<?xml version='1.0' encoding='UTF-8'?>
<VTKFile xmlns='VTK' byte_order='LittleEndian' version='0.1' type='UnstructuredGrid'>
<UnstructuredGrid>
<Piece NumberOfCells='1380' NumberOfPoints='1380'>
<Points>
<DataArray NumberOfComponents='3' type='Float32' Name='Position' format='ascii'>
-0.075000 -0.075000 0.000000
-0.075000 -0.050000 0.000000
-0.075000 -0.025000 0.000000
-0.075000 0.000000 0.000000
-0.075000 0.025000 0.000000
-0.075000 0.050000 0.000000
-0.075000 0.075000 0.000000
-0.075000 0.100000 0.000000
-0.075000 0.125000 0.000000
-0.075000 0.150000 0.000000
-0.075000 0.175000 0.000000
-0.075000 0.200000 0.000000
-0.075000 0.225000 0.000000
-0.075000 0.250000 0.000000
-0.075000 0.275000 0.000000
-0.075000 0.300000 0.000000
-0.075000 0.325000 0.000000
-0.075000 0.350000 0.000000
-0.075000 0.375000 0.000000
-0.075000 0.400000 0.000000
-0.075000 0.425000 0.000000
-0.075000 0.450000 0.000000
-0.075000 0.475000 0.000000
-0.075000 0.500000 0.000000
-0.075000 0.525000 0.000000
-0.075000 0.550000 0.000000
-0.075000 0.575000 0.000000
-0.075000 0.600000 0.000000
0.233000 0.625000 0.000000
0.233000 0.650000 0.000000
0.233000 0.675000 0.000000
-0.050000 -0.075000 0.000000
-0.050000 -0.050000 0.000000
-0.050000 -0.025000 0.000000
-0.050000 0.000000 0.000000
-0.050000 0.025000 0.000000
-0.050000 0.050000 0.000000
-0.050000 0.075000 0.000000
-0.050000 0.100000 0.000000
-0.050000 0.125000 0.000000
-0.050000 0.150000 0.000000
-0.050000 0.175000 0.000000
-0.050000 0.200000 0.000000
-0.050000 0.225000 0.000000
-0.050000 0.250000 0.000000
-0.050000 0.275000 0.000000
-0.050000 0.300000 0.000000
-0.050000 0.325000 0.000000
-0.050000 0.350000 0.000000
-0.050000 0.375000 0.000000
-0.050000 0.400000 0.000000
-0.050000 0.425000 0.000000
-0.050000 0.450000 0.000000
-0.050000 0.475000 0.000000
-0.050000 0.500000 0.000000
-0.050000 0.525000 0.000000
-0.050000 0.550000 0.000000
-0.050000 0.575000 0.000000
-0.050000 0.600000 0.000000
0.258000 0.625000 0.000000
0.258000 0.650000 0.000000
0.258000 0.675000 0.000000
-0.025000 -0.075000 0.000000
-0.025000 -0.050000 0.000000
-0.025000 -0.025000 0.000000
-0.025000 0.000000 0.000000
-0.025000 0.025000 0.000000
-0.025000 0.050000 0.000000
-0.025000 0.075000 0.000000
-0.025000 0.100000 0.000000
-0.025000 0.125000 0.000000
-0.025000 0.150000 0.000000
-0.025000 0.175000 0.000000
-0.025000 0.200000 0.000000
-0.025000 0.225000 0.000000
-0.025000 0.250000 0.000000
-0.025000 0.275000 0.000000
-0.025000 0.300000 0.000000
-0.025000 0.325000 0.000000
-0.025000 0.350000 0.000000
-0.025000 0.375000 0.000000
-0.025000 0.400000 0.000000
-0.025000 0.425000 0.000000
-0.025000 0.450000 0.000000
-0.025000 0.475000 0.000000
-0.025000 0.500000 0.000000
-0.025000 0.525000 0.000000
-0.025000 0.550000 0.000000
-0.025000 0.575000 0.000000
-0.025000 0.600000 0.000000
0.283000 0.625000 0.000000
0.283000 0.650000 0.000000
0.283000 0.675000 0.000000
0.000000 -0.075000 0.000000
0.000000 -0.050000 0.000000
0.000000 -0.025000 0.000000
0.000000 0.000000 0.000000
0.000000 0.025000 0.000000
0.000000 0.050000 0.000000
0.000000 0.075000 0.000000
0.000000 0.100000 0.000000
0.000000 0.125000 0.000000
0.000000 0.150000 0.000000
0.000000 0.175000 0.000000
0.000000 0.200000 0.000000
0.000000 0.225000 0.000000
0.000000 0.250000 0.000000
0.000000 0.275000 0.000000
0.000000 0.300000 0.000000
0.000000 0.325000 0.000000
0.000000 0.350000 0.000000
0.000000 0.375000 0.000000
0.000000 0.400000 0.000000
0.000000 0.425000 0.000000
0.000000 0.450000 0.000000
0.000000 0.475000 0.000000
0.000000 0.500000 0.000000
0.000000 0.525000 0.000000
0.000000 0.550000 0.000000
0.000000 0.575000 0.000000
0.000000 0.600000 0.000000
0.308000 0.625000 0.000000
0.308000 0.650000 0.000000
0.308000 0.675000 0.000000
0.025000 -0.075000 0.000000
0.025000 -0.050000 0.000000
0.025000 -0.025000 0.000000
0.025000 0.000000 0.000000
0.025000 0.025000 0.000000
0.025000 0.050000 0.000000
0.025000 0.075000 0.000000
0.025000 0.100000 0.000000
0.025000 0.125000 0.000000
0.025000 0.150000 0.000000
0.025000 0.175000 0.000000
0.025000 0.200000 0.000000
0.025000 0.225000 0.000000
0.025000 0.250000 0.000000
0.025000 0.275000 0.000000
0.025000 0.300000 0.000000
0.025000 0.325000 0.000000
0.025000 0.350000 0.000000
0.025000 0.375000 0.000000
0.025000 0.400000 0.000000
0.025000 0.425000 0.000000
0.025000 0.450000 0.000000
0.025000 0.475000 0.000000
0.025000 0.500000 0.000000
0.025000 0.525000 0.000000
0.025000 0.550000 0.000000
0.030468 0.572737 0.000000
0.018293 0.595888 0.000000
0.333000 0.625000 0.000000
0.333000 0.650000 0.000000
0.333000 0.675000 0.000000
0.050000 -0.075000 0.000000
0.050000 -0.050000 0.000000
0.050000 -0.025000 0.000000
0.050000 0.000000 0.000000
0.050000 0.025000 0.000000
0.050000 0.050000 0.000000
0.050000 0.075000 0.000000
0.050000 0.100000 0.000000
0.050000 0.125000 0.000000
0.050000 0.150000 0.000000
0.050000 0.175000 0.000000
0.050000 0.200000 0.000000
0.050000 0.225000 0.000000
0.050000 0.250000 0.000000
0.050000 0.275000 0.000000
0.050000 0.300000 0.000000
0.050000 0.325000 0.000000
0.050000 0.350000 0.000000
0.050000 0.375000 0.000000
0.050000 0.400000 0.000000
0.050000 0.425000 0.000000
0.050000 0.450000 0.000000
0.050000 0.475000 0.000000
0.050000 0.500000 0.000000
0.050000 0.525000 0.000000
0.050000 0.550000 0.000000
0.064564 0.569853 0.000000
0.038834 0.599652 0.000000
0.358000 0.625000 0.000000
0.358000 0.650000 0.000000
0.358000 0.675000 0.000000
0.075000 -0.075000 0.000000
0.075000 -0.050000 0.000000
0.075000 -0.025000 0.000000
0.075000 0.000000 0.000000
0.075000 0.025000 0.000000
0.075000 0.050000 0.000000
0.075000 0.075000 0.000000
0.075000 0.100000 0.000000
0.075000 0.125000 0.000000
0.075000 0.150000 0.000000
0.075000 0.175000 0.000000
0.075000 0.200000 0.000000
0.075000 0.225000 0.000000
0.075000 0.250000 0.000000
0.075000 0.275000 0.000000
0.075000 0.300000 0.000000
0.075000 0.325000 0.000000
0.075000 0.350000 0.000000
0.075000 0.375000 0.000000
0.075000 0.400000 0.000000
0.075000 0.425000 0.000000
0.075000 0.450000 0.000000
0.075000 0.475000 0.000000
0.075000 0.500000 0.000000
0.075000 0.525000 0.000000
0.075000 0.550000 0.000000
0.102596 0.574550 0.000000
0.053659 0.596503 0.000000
0.383000 0.625000 0.000000
0.383000 0.650000 0.000000
0.383000 0.675000 0.000000
0.100000 -0.075000 0.000000
0.100000 -0.050000 0.000000
0.100000 -0.025000 0.000000
0.100000 0.000000 0.000000
0.100000 0.025000 0.000000
0.100000 0.050000 0.000000
0.100000 0.075000 0.000000
0.100000 0.100000 0.000000
0.100000 0.125000 0.000000
0.100000 0.150000 0.000000
0.100000 0.175000 0.000000
0.100000 0.200000 0.000000
0.100000 0.225000 0.000000
0.100000 0.250000 0.000000
0.100000 0.275000 0.000000
0.100000 0.300000 0.000000
0.100000 0.325000 0.000000
0.100000 0.350000 0.000000
0.100000 0.375000 0.000000
0.100000 0.400000 0.000000
0.100000 0.425000 0.000000
0.100000 0.450000 0.000000
0.100000 0.475000 0.000000
0.100000 0.500000 0.000000
0.100000 0.525000 0.000000
0.100000 0.550000 0.000000
0.138350 0.567806 0.000000
0.075709 0.594416 0.000000
0.408000 0.625000 0.000000
0.408000 0.650000 0.000000
0.408000 0.675000 0.000000
0.125000 -0.075000 0.000000
0.125000 -0.050000 0.000000
0.125000 -0.025000 0.000000
0.125000 0.000000 0.000000
0.125000 0.025000 0.000000
0.125000 0.050000 0.000000
0.125000 0.075000 0.000000
0.125000 0.100000 0.000000
0.125000 0.125000 0.000000
0.125000 0.150000 0.000000
0.125000 0.175000 0.000000
0.125000 0.200000 0.000000
0.125000 0.225000 0.000000
0.125000 0.250000 0.000000
0.125000 0.275000 0.000000
0.125000 0.300000 0.000000
0.125000 0.325000 0.000000
0.125000 0.350000 0.000000
0.125000 0.375000 0.000000
0.125000 0.400000 0.000000
0.125000 0.425000 0.000000
0.125000 0.450000 0.000000
0.125000 0.475000 0.000000
0.125000 0.500000 0.000000
0.125000 0.525000 0.000000
0.122515 0.550882 0.000000
0.130206 0.597295 0.000000
0.090193 0.599818 0.000000
0.433000 0.625000 0.000000
0.433000 0.650000 0.000000
0.433000 0.675000 0.000000
0.150000 -0.075000 0.000000
0.150000 -0.050000 0.000000
0.150000 -0.025000 0.000000
0.150000 0.000000 0.000000
0.150000 0.025000 0.000000
0.150000 0.050000 0.000000
0.150000 0.075000 0.000000
0.150000 0.100000 0.000000
0.150000 0.125000 0.000000
0.150000 0.150000 0.000000
0.150000 0.175000 0.000000
0.150000 0.200000 0.000000
0.150000 0.225000 0.000000
0.150000 0.250000 0.000000
0.150000 0.275000 0.000000
0.150000 0.300000 0.000000
0.150000 0.325000 0.000000
0.150000 0.350000 0.000000
0.150000 0.375000 0.000000
0.150000 0.400000 0.000000
0.150000 0.425000 0.000000
0.150000 0.450000 0.000000
0.150000 0.475000 0.000000
0.150000 0.500000 0.000000
0.150000 0.525000 0.000000
0.151598 0.549420 0.000000
0.168515 0.570092 0.000000
0.109699 0.594772 0.000000
0.458000 0.625000 0.000000
0.458000 0.650000 0.000000
0.458000 0.675000 0.000000
0.175000 -0.075000 0.000000
0.175000 -0.050000 0.000000
0.175000 -0.025000 0.000000
0.175000 0.000000 0.000000
0.175000 0.025000 0.000000
0.175000 0.050000 0.000000
0.175000 0.075000 0.000000
0.175000 0.100000 0.000000
0.175000 0.125000 0.000000
0.175000 0.150000 0.000000
0.175000 0.175000 0.000000
0.175000 0.200000 0.000000
0.175000 0.225000 0.000000
0.175000 0.250000 0.000000
0.175000 0.275000 0.000000
0.175000 0.300000 0.000000
0.175000 0.325000 0.000000
0.175000 0.350000 0.000000
0.175000 0.375000 0.000000
0.175000 0.400000 0.000000
0.175000 0.425000 0.000000
0.175000 0.450000 0.000000
0.175000 0.475000 0.000000
0.175000 0.500000 0.000000
0.175000 0.525000 0.000000
0.177592 0.550249 0.000000
0.199580 0.573964 0.000000
0.144980 0.597659 0.000000
0.483000 0.625000 0.000000
0.483000 0.650000 0.000000
0.483000 0.675000 0.000000
0.200000 -0.075000 0.000000
0.200000 -0.050000 0.000000
0.200000 -0.025000 0.000000
0.200000 0.000000 0.000000
0.200000 0.025000 0.000000
0.200000 0.050000 0.000000
0.200000 0.075000 0.000000
0.200000 0.100000 0.000000
0.200000 0.125000 0.000000
0.200000 0.150000 0.000000
0.200000 0.175000 0.000000
0.200000 0.200000 0.000000
0.200000 0.225000 0.000000
0.200000 0.250000 0.000000
[...]
<PointData>
<DataArray NumberOfComponents='1' type='Int32' Name='ParticleType' format='ascii'>
4
4
4
4
4
4
4
4
4
4
4
4
4
4
4
4
4
4
4
4
4
4
4
4
4
4
4
4
5
5
5
4
4
4
4
4
4
4
4
4
4
4
4
4
4
4
4
4
4
4
4
4
4
4
4
4
4
4
4
5
5
5
4
4
3
3
3
3
3
3
3
3
3
3
3
3
3
3
3
3
3
3
3
3
3
3
3
3
3
3
5
5
5
4
4
3
3
3
3
3
3
3
3
3
3
3
3
3
3
3
3
3
3
3
3
3
3
3
3
3
3
5
5
5
4
4
3
3
2
2
2
2
2
2
2
2
2
2
2
2
2
2
2
2
2
2
2
2
1
1
0
0
5
5
5
4
4
3
3
2
2
2
2
2
2
2
2
2
2
2
2
2
2
2
2
2
2
2
2
1
1
0
0
5
5
5
4
4
3
3
2
2
2
2
2
2
2
2
2
2
2
2
2
2
2
2
2
2
2
2
1
1
0
0
5
5
5
4
4
3
3
2
2
2
2
2
2
2
2
2
2
2
2
2
2
2
2
2
2
2
2
1
1
0
0
5
5
5
4
4
3
3
2
2
2
2
2
2
2
2
2
2
2
2
2
2
2
2
2
2
2
1
1
0
0
0
5
5
5
4
4
3
3
2
2
2
2
2
2
2
2
2
2
2
2
2
2
2
2
2
2
2
1
1
0
0
0
5
5
5
4
4
3
3
2
2
2
2
2
2
2
2
2
2
2
2
2
2
2
2
2
2
2
1
1
0
0
0
5
5
5
4
4
3
3
2
2
2
2
2
2
2
2
2
2
2
2
2
2
2
2
2
2
2
1
1
0
0
0
5
5
5
4
4
3
3
2
2
2
2
2
2
2
2
2
2
2
2
2
2
2
2
2
2
2
1
1
0
0
0
4
4
3
3
2
2
2
2
2
2
2
2
2
2
2
2
2
2
2
2
2
2
2
2
1
1
0
0
4
4
3
3
2
2
2
2
2
2
2
2
2
2
2
2
2
2
2
2
2
2
2
2
1
1
0
0
4
4
3
3
2
2
2
2
2
2
2
2
2
2
2
2
2
2
2
2
2
2
2
2
1
1
0
0
4
4
3
3
2
2
2
2
2
2
2
2
2
2
2
2
2
2
2
2
2
2
2
2
1
1
0
0
4
4
3
3
2
2
2
2
2
2
2
2
2
2
2
2
2
2
2
2
2
2
2
2
1
1
0
0
4
4
3
3
2
2
2
2
2
2
2
2
2
2
2
2
2
2
2
2
2
2
2
2
2
1
0
0
4
4
3
3
2
2
2
2
2
2
2
2
2
2
2
2
2
2
2
2
2
2
2
2
2
1
1
0
4
4
3
3
2
2
2
2
2
2
2
2
2
2
2
2
2
2
2
2
2
2
2
2
2
1
1
0
4
4
3
3
2
2
2
2
2
2
2
2
2
2
2
2
2
2
2
2
2
2
2
2
2
1
1
0
4
4
3
3
2
2
2
2
2
2
2
2
2
2
2
2
2
2
2
2
2
2
2
2
2
2
1
1
4
4
3
3
2
2
2
2
2
2
2
2
2
2
2
2
2
2
2
2
2
2
2
2
2
2
1
1
4
4
3
3
2
2
2
2
2
2
2
2
2
2
2
2
2
2
2
2
2
2
2
2
2
2
1
1
4
4
3
3
2
2
2
2
2
2
2
2
2
2
2
2
2
2
2
2
2
2
2
2
2
2
2
1
4
4
3
3
2
2
2
2
2
2
2
2
2
2
2
2
2
2
2
2
2
2
2
2
2
2
2
2
4
4
3
3
2
2
2
2
2
2
2
2
2
2
2
2
2
2
2
2
2
2
2
2
2
2
2
2
4
4
3
3
2
2
2
2
2
2
2
2
2
2
2
2
2
2
2
2
2
2
2
2
2
2
2
2
4
4
3
3
2
2
2
2
2
2
2
2
2
2
2
2
2
2
2
2
2
2
2
2
2
2
2
2
4
4
3
3
2
2
2
2
2
2
2
2
2
2
2
2
2
2
2
2
2
2
2
2
2
2
2
2
4
4
3
3
2
2
2
2
2
2
2
2
2
2
2
2
2
2
2
2
2
2
2
2
2
2
2
2
4
4
3
3
2
2
2
2
2
2
2
2
2
2
2
2
2
2
2
2
2
2
2
2
2
2
2
2
4
4
3
3
2
2
2
2
2
2
2
2
2
2
2
2
2
2
2
2
2
2
2
2
2
2
2
2
4
4
3
3
2
2
2
2
2
2
2
2
2
2
2
2
2
2
2
2
2
2
2
2
2
2
2
2
4
4
3
3
2
2
2
2
2
2
2
2
2
2
2
2
2
2
2
2
2
2
2
2
2
2
2
2
4
4
3
3
2
2
2
2
2
2
2
2
2
2
2
2
2
2
2
2
2
2
2
2
2
2
2
2
4
4
3
3
2
2
2
2
2
2
2
2
2
2
2
2
2
2
2
2
2
2
2
2
2
2
2
2
4
4
3
3
2
2
2
2
2
2
2
2
2
2
2
2
2
2
2
2
2
2
2
2
2
2
2
2
4
4
3
3
2
2
2
2
2
2
2
2
2
2
2
2
2
2
2
2
2
2
2
2
2
2
2
2
4
4
3
3
2
2
2
2
2
2
2
2
2
2
2
2
2
2
2
2
2
2
2
2
2
2
2
2
4
4
3
3
2
2
2
2
2
2
2
2
2
2
2
2
2
2
2
2
2
2
2
2
2
2
2
2
4
4
3
3
2
2
2
2
2
2
2
2
2
2
2
2
2
2
2
2
2
2
2
2
2
2
2
2
4
4
3
3
2
2
2
2
2
2
2
2
2
2
2
2
2
2
2
2
2
2
2
2
2
2
2
2
4
4
3
3
3
3
3
3
3
3
3
3
3
3
3
3
3
3
3
3
3
3
3
3
3
3
3
3
4
4
3
3
3
3
3
3
3
3
3
3
3
3
3
3
3
3
3
3
3
3
3
3
3
3
3
3
4
4
4
4
4
4
4
4
4
4
4
4
4
4
4
4
4
4
4
4
4
4
4
4
4
4
4
4
4
4
4
4
4
4
4
4
4
4
4
4
4
4
4
4
4
4
4
4
4
4
4
4
4
4
4
4
</DataArray>
<DataArray NumberOfComponents='1' type='Float32' Name='Velocity' format='ascii'>
0.000000
0.000000
0.000000
0.000000
0.000000
0.000000
0.000000
0.000000
0.000000
0.000000
0.000000
0.000000
0.000000
0.000000
0.000000
0.000000
0.000000
0.000000
0.000000
0.000000
0.000000
0.000000
0.000000
0.000000
0.000000
0.000000
0.000000
0.000000
0.100000
0.100000
0.100000
0.000000
0.000000
0.000000
0.000000
0.000000
0.000000
0.000000
0.000000
0.000000
0.000000
0.000000
0.000000
0.000000
0.000000
0.000000
0.000000
0.000000
0.000000
0.000000
0.000000
0.000000
0.000000
0.000000
0.000000
0.000000
0.000000
0.000000
0.000000
0.100000
0.100000
0.100000
0.000000
0.000000
0.000000
0.000000
0.000000
0.000000
0.000000
0.000000
0.000000
0.000000
0.000000
0.000000
0.000000
0.000000
0.000000
0.000000
0.000000
0.000000
0.000000
0.000000
0.000000
0.000000
0.000000
0.000000
0.000000
0.000000
0.000000
0.000000
0.100000
0.100000
0.100000
0.000000
0.000000
0.000000
0.000000
0.000000
0.000000
0.000000
0.000000
0.000000
0.000000
0.000000
0.000000
0.000000
0.000000
0.000000
0.000000
0.000000
0.000000
0.000000
0.000000
0.000000
0.000000
0.000000
0.000000
0.000000
0.000000
0.000000
0.000000
0.100000
0.100000
0.100000
0.000000
0.000000
0.000000
0.000000
0.000000
0.000000
0.000000
0.000000
0.000000
0.000000
0.000000
0.000000
0.000000
0.000000
0.000000
0.000000
0.000000
0.000000
0.000000
0.000000
0.000000
0.000000
0.000000
0.000000
0.000000
0.000000
0.029021
0.091841
0.100000
0.100000
0.100000
0.000000
0.000000
0.000000
0.000000
0.000000
0.000000
0.000000
0.000000
0.000000
0.000000
0.000000
0.000000
0.000000
0.000000
0.000000
0.000000
0.000000
0.000000
0.000000
0.000000
0.000000
0.000000
0.000000
0.000000
0.000000
0.000000
0.066254
0.072063
0.100000
0.100000
0.100000
0.000000
0.000000
0.000000
0.000000
0.000000
0.000000
0.000000
0.000000
0.000000
0.000000
0.000000
0.000000
0.000000
0.000000
0.000000
0.000000
0.000000
0.000000
0.000000
0.000000
0.000000
0.000000
0.000000
0.000000
0.000000
0.000000
0.138808
0.081419
0.100000
0.100000
0.100000
0.000000
0.000000
0.000000
0.000000
0.000000
0.000000
0.000000
0.000000
0.000000
0.000000
0.000000
0.000000
0.000000
0.000000
0.000000
0.000000
0.000000
0.000000
0.000000
0.000000
0.000000
0.000000
0.000000
0.000000
0.000000
0.000000
0.065510
0.105567
0.100000
0.100000
0.100000
0.000000
0.000000
0.000000
0.000000
0.000000
0.000000
0.000000
0.000000
0.000000
0.000000
0.000000
0.000000
0.000000
0.000000
0.000000
0.000000
0.000000
0.000000
0.000000
0.000000
0.000000
0.000000
0.000000
0.000000
0.000000
0.067489
0.104041
0.045190
0.100000
0.100000
0.100000
0.000000
0.000000
0.000000
0.000000
0.000000
0.000000
0.000000
0.000000
0.000000
0.000000
0.000000
0.000000
0.000000
0.000000
0.000000
0.000000
0.000000
0.000000
0.000000
0.000000
0.000000
0.000000
0.000000
0.000000
0.000000
0.136157
0.092812
0.222256
0.100000
0.100000
0.100000
0.000000
0.000000
0.000000
0.000000
0.000000
0.000000
0.000000
0.000000
0.000000
0.000000
0.000000
0.000000
0.000000
0.000000
0.000000
0.000000
0.000000
0.000000
0.000000
0.000000
0.000000
0.000000
0.000000
0.000000
0.000000
0.032570
0.164509
0.104414
0.100000
0.100000
0.100000
0.000000
0.000000
0.000000
0.000000
0.000000
0.000000
0.000000
0.000000
0.000000
0.000000
0.000000
0.000000
0.000000
0.000000
0.000000
0.000000
0.000000
0.000000
0.000000
0.000000
0.000000
0.000000
0.000000
0.000000
0.000000
0.036391
0.134514
0.160778
0.100000
0.100000
0.100000
0.000000
0.000000
0.000000
0.000000
0.000000
0.000000
0.000000
0.000000
0.000000
0.000000
0.000000
0.000000
0.000000
0.000000
0.000000
0.000000
0.000000
0.000000
0.000000
0.000000
0.000000
0.000000
0.000000
0.000000
0.000000
0.024105
0.128108
0.050529
0.000000
0.000000
0.000000
0.000000
0.000000
0.000000
0.000000
0.000000
0.000000
0.000000
0.000000
0.000000
0.000000
0.000000
0.000000
0.000000
0.000000
0.000000
0.000000
0.000000
0.000000
0.000000
0.000000
0.000000
0.000000
0.000000
0.155526
0.074899
0.000000
0.000000
0.000000
0.000000
0.000000
0.000000
0.000000
0.000000
0.000000
0.000000
0.000000
0.000000
0.000000
0.000000
0.000000
0.000000
0.000000
0.000000
0.000000
0.000000
0.000000
0.000000
0.000000
0.000000
0.000000
0.000000
0.314076
0.088608
0.000000
0.000000
0.000000
0.000000
0.000000
0.000000
0.000000
0.000000
0.000000
0.000000
0.000000
0.000000
0.000000
0.000000
0.000000
0.000000
0.000000
0.000000
0.000000
0.000000
0.000000
0.000000
0.000000
0.000000
0.000000
0.000000
0.046948
0.088121
0.000000
0.000000
0.000000
0.000000
0.000000
0.000000
0.000000
0.000000
0.000000
0.000000
0.000000
0.000000
0.000000
0.000000
0.000000
0.000000
0.000000
0.000000
0.000000
0.000000
0.000000
0.000000
0.000000
0.000000
0.000000
0.000000
0.068359
0.015293
0.000000
0.000000
0.000000
0.000000
0.000000
0.000000
0.000000
0.000000
0.000000
0.000000
0.000000
0.000000
0.000000
0.000000
0.000000
0.000000
0.000000
0.000000
0.000000
0.000000
0.000000
0.000000
0.000000
0.000000
0.000000
0.000000
0.073856
0.059709
0.000000
0.000000
0.000000
0.000000
0.000000
0.000000
0.000000
0.000000
0.000000
0.000000
0.000000
0.000000
0.000000
0.000000
0.000000
0.000000
0.000000
0.000000
0.000000
0.000000
0.000000
0.000000
0.000000
0.000000
0.000000
0.000000
0.030642
0.106570
0.000000
0.000000
0.000000
0.000000
0.000000
0.000000
0.000000
0.000000
0.000000
0.000000
0.000000
0.000000
0.000000
0.000000
0.000000
0.000000
0.000000
0.000000
0.000000
0.000000
0.000000
0.000000
0.000000
0.000000
0.000000
0.000000
0.000000
0.080495
0.000000
0.000000
0.000000
0.000000
0.000000
0.000000
0.000000
0.000000
0.000000
0.000000
0.000000
0.000000
0.000000
0.000000
0.000000
0.000000
0.000000
0.000000
0.000000
0.000000
0.000000
0.000000
0.000000
0.000000
0.000000
0.000000
0.000000
0.054692
0.000000
0.000000
0.000000
0.000000
0.000000
0.000000
0.000000
0.000000
0.000000
0.000000
0.000000
0.000000
0.000000
0.000000
0.000000
0.000000
0.000000
0.000000
0.000000
0.000000
0.000000
0.000000
0.000000
0.000000
0.000000
0.000000
0.000000
0.064740
0.000000
0.000000
0.000000
0.000000
0.000000
0.000000
0.000000
0.000000
0.000000
0.000000
0.000000
0.000000
0.000000
0.000000
0.000000
0.000000
0.000000
0.000000
0.000000
0.000000
0.000000
0.000000
0.000000
0.000000
0.000000
0.000000
0.000000
0.000000
0.000000
0.000000
0.000000
0.000000
0.000000
0.000000
0.000000
0.000000
0.000000
0.000000
0.000000
0.000000
0.000000
0.000000
0.000000
0.000000
0.000000
0.000000
0.000000
0.000000
0.000000
0.000000
0.000000
0.000000
0.000000
0.000000
0.000000
0.000000
0.000000
0.000000
0.000000
0.000000
0.000000
0.000000
0.000000
0.000000
0.000000
0.000000
0.000000
0.000000
0.000000
0.000000
0.000000
0.000000
0.000000
0.000000
0.000000
0.000000
0.000000
0.000000
0.000000
0.000000
0.000000
0.000000
0.000000
0.000000
0.000000
0.000000
0.000000
0.000000
0.000000
0.000000
0.000000
0.000000
0.000000
0.000000
0.000000
0.000000
0.000000
0.000000
0.000000
0.000000
0.000000
0.000000
0.000000
0.000000
0.000000
0.000000
0.000000
0.000000
0.000000
0.000000
0.000000
0.000000
0.000000
0.000000
0.000000
0.000000
0.000000
0.000000
0.000000
0.000000
0.000000
0.000000
0.000000
0.000000
0.000000
0.000000
0.000000
0.000000
0.000000
0.000000
0.000000
0.000000
0.000000
0.000000
0.000000
0.000000
0.000000
0.000000
0.000000
0.000000
0.000000
0.000000
0.000000
0.000000
0.000000
0.000000
0.000000
0.000000
0.000000
0.000000
0.000000
0.000000
0.000000
0.000000
0.000000
0.000000
0.000000
0.000000
0.000000
0.000000
0.000000
0.000000
0.000000
0.000000
0.000000
0.000000
0.000000
0.000000
0.000000
0.000000
0.000000
0.000000
0.000000
0.000000
0.000000
0.000000
0.000000
0.000000
0.000000
0.000000
0.000000
0.000000
0.000000
0.000000
0.000000
0.000000
0.000000
0.000000
0.000000
0.000000
0.000000
0.000000
0.000000
0.000000
0.000000
0.000000
0.000000
0.000000
0.000000
0.000000
0.000000
0.000000
0.000000
0.000000
0.000000
0.000000
0.000000
0.000000
0.000000
0.000000
0.000000
0.000000
0.000000
0.000000
0.000000
0.000000
0.000000
0.000000
0.000000
0.000000
0.000000
0.000000
0.000000
0.000000
0.000000
0.000000
0.000000
0.000000
0.000000
0.000000
0.000000
0.000000
0.000000
0.000000
0.000000
0.000000
0.000000
0.000000
0.000000
0.000000
0.000000
0.000000
0.000000
0.000000
0.000000
0.000000
0.000000
0.000000
0.000000
0.000000
0.000000
0.000000
0.000000
0.000000
0.000000
0.000000
0.000000
0.000000
0.000000
0.000000
0.000000
0.000000
0.000000
0.000000
0.000000
0.000000
0.000000
0.000000
0.000000
0.000000
0.000000
0.000000
0.000000
0.000000
0.000000
0.000000
0.000000
0.000000
0.000000
0.000000
0.000000
0.000000
0.000000
0.000000
0.000000
0.000000
0.000000
0.000000
0.000000
0.000000
0.000000
0.000000
0.000000
0.000000
0.000000
0.000000
0.000000
0.000000
0.000000
0.000000
0.000000
0.000000
0.000000
0.000000
0.000000
0.000000
0.000000
0.000000
0.000000
0.000000
0.000000
0.000000
0.000000
0.000000
0.000000
0.000000
0.000000
0.000000
0.000000
0.000000
0.000000
0.000000
0.000000
0.000000
0.000000
0.000000
0.000000
0.000000
0.000000
0.000000
0.000000
0.000000
0.000000
0.000000
0.000000
0.000000
0.000000
0.000000
0.000000
0.000000
0.000000
0.000000
0.000000
0.000000
0.000000
0.000000
0.000000
0.000000
0.000000
0.000000
0.000000
0.000000
0.000000
0.000000
0.000000
0.000000
0.000000
0.000000
0.000000
0.000000
0.000000
0.000000
0.000000
0.000000
0.000000
0.000000
0.000000
0.000000
0.000000
0.000000
0.000000
0.000000
0.000000
0.000000
0.000000
0.000000
0.000000
0.000000
0.000000
0.000000
0.000000
0.000000
0.000000
0.000000
0.000000
0.000000
0.000000
0.000000
0.000000
0.000000
0.000000
0.000000
0.000000
0.000000
0.000000
0.000000
0.000000
0.000000
0.000000
0.000000
0.000000
0.000000
0.000000
0.000000
0.000000
0.000000
0.000000
0.000000
0.000000
0.000000
0.000000
0.000000
0.000000
0.000000
0.000000
0.000000
0.000000
0.000000
0.000000
0.000000
0.000000
0.000000
0.000000
0.000000
0.000000
0.000000
0.000000
0.000000
0.000000
0.000000
0.000000
0.000000
0.000000
0.000000
0.000000
0.000000
0.000000
0.000000
0.000000
0.000000
0.000000
0.000000
0.000000
0.000000
0.000000
0.000000
0.000000
0.000000
0.000000
0.000000
0.000000
0.000000
0.000000
0.000000
0.000000
0.000000
0.000000
0.000000
0.000000
0.000000
0.000000
0.000000
0.000000
0.000000
0.000000
0.000000
0.000000
0.000000
0.000000
0.000000
0.000000
0.000000
0.000000
0.000000
0.000000
0.000000
0.000000
0.000000
0.000000
0.000000
0.000000
0.000000
0.000000
0.000000
0.000000
0.000000
0.000000
0.000000
0.000000
0.000000
0.000000
0.000000
0.000000
0.000000
0.000000
0.000000
0.000000
0.000000
0.000000
0.000000
0.000000
0.000000
0.000000
0.000000
0.000000
0.000000
0.000000
0.000000
0.000000
0.000000
0.000000
0.000000
0.000000
0.000000
0.000000
0.000000
0.000000
0.000000
0.000000
0.000000
0.000000
0.000000
0.000000
0.000000
0.000000
0.000000
0.000000
0.000000
0.000000
0.000000
0.000000
0.000000
0.000000
0.000000
0.000000
0.000000
0.000000
0.000000
0.000000
0.000000
0.000000
0.000000
0.000000
0.000000
0.000000
0.000000
0.000000
0.000000
0.000000
0.000000
0.000000
0.000000
0.000000
0.000000
0.000000
0.000000
0.000000
0.000000
0.000000
0.000000
0.000000
0.000000
0.000000
0.000000
0.000000
0.000000
0.000000
0.000000
0.000000
0.000000
0.000000
0.000000
0.000000
0.000000
0.000000
0.000000
0.000000
0.000000
0.000000
0.000000
0.000000
0.000000
0.000000
0.000000
0.000000
0.000000
0.000000
0.000000
0.000000
0.000000
0.000000
0.000000
0.000000
0.000000
0.000000
0.000000
0.000000
0.000000
0.000000
0.000000
0.000000
0.000000
0.000000
0.000000
0.000000
0.000000
0.000000
0.000000
0.000000
0.000000
0.000000
0.000000
0.000000
0.000000
0.000000
0.000000
0.000000
0.000000
0.000000
0.000000
0.000000
0.000000
0.000000
0.000000
0.000000
0.000000
0.000000
0.000000
0.000000
0.000000
0.000000
0.000000
0.000000
0.000000
0.000000
0.000000
0.000000
0.000000
0.000000
0.000000
0.000000
0.000000
0.000000
0.000000
0.000000
0.000000
0.000000
0.000000
0.000000
0.000000
0.000000
0.000000
0.000000
0.000000
0.000000
0.000000
0.000000
0.000000
0.000000
0.000000
0.000000
0.000000
0.000000
0.000000
0.000000
0.000000
0.000000
0.000000
0.000000
0.000000
0.000000
0.000000
0.000000
0.000000
0.000000
0.000000
0.000000
0.000000
0.000000
0.000000
0.000000
0.000000
0.000000
0.000000
0.000000
0.000000
0.000000
0.000000
0.000000
0.000000
0.000000
0.000000
0.000000
0.000000
0.000000
0.000000
0.000000
0.000000
0.000000
0.000000
0.000000
0.000000
0.000000
0.000000
0.000000
0.000000
0.000000
0.000000
0.000000
0.000000
0.000000
0.000000
0.000000
0.000000
0.000000
0.000000
0.000000
0.000000
0.000000
0.000000
0.000000
0.000000
0.000000
0.000000
0.000000
0.000000
0.000000
0.000000
</DataArray>
<DataArray NumberOfComponents='1' type='Float32' Name='Pressure' format='ascii'>
0.000000
0.000000
0.000000
0.000000
0.000000
0.000000
0.000000
0.000000
0.000000
0.000000
0.000000
0.000000
0.000000
0.000000
0.000000
0.000000
0.000000
0.000000
0.000000
0.000000
0.000000
0.000000
0.000000
0.000000
0.000000
0.000000
0.000000
0.000000
0.000000
0.000000
0.000000
0.000000
0.000000
0.000000
0.000000
0.000000
0.000000
0.000000
0.000000
0.000000
0.000000
0.000000
0.000000
0.000000
0.000000
0.000000
0.000000
0.000000
0.000000
0.000000
0.000000
0.000000
0.000000
0.000000
0.000000
0.000000
0.000000
0.000000
0.000000
0.000000
0.000000
0.000000
0.000000
0.000000
277.071655
279.444214
284.096924
291.735748
302.319885
315.926880
332.636871
352.549683
375.780640
402.458832
432.722229
466.708466
504.537689
546.279541
591.890686
641.092896
693.139404
746.297424
797.003967
837.116394
852.635193
807.544922
696.435730
525.925720
289.865295
0.000000
0.000000
0.000000
0.000000
0.000000
0.000000
274.850586
277.206085
281.828522
289.435822
299.970581
313.515411
330.150177
349.975677
373.109100
399.683136
429.842651
463.738434
501.515472
543.290344
589.110229
638.873840
692.193359
748.061584
804.525635
855.873779
896.909973
879.227722
766.884888
131.425186
1190.694580
0.000000
0.000000
0.000000
0.000000
0.000000
0.000000
270.419922
272.756805
277.334747
284.870697
295.307190
308.726929
325.210266
344.859222
367.793854
394.152496
424.091187
457.781799
495.408905
537.163513
583.233582
633.788025
688.974243
748.859192
813.893616
882.864807
966.596558
1008.044983
1348.077881
107.209206
789.455566
0.000000
0.000000
0.000000
0.000000
0.000000
0.000000
263.165649
265.460846
269.965942
277.383759
287.657990
300.870819
317.102783
336.457214
359.057159
385.047485
414.597137
447.902832
485.195618
526.752502
572.920532
624.162476
681.180420
745.088989
818.567810
904.653259
1030.687866
1135.085327
1894.058228
160.037292
702.732483
0.000000
0.000000
0.000000
0.000000
0.000000
0.000000
253.216705
255.461151
259.866974
267.122314
277.172699
290.099274
305.982330
324.925446
347.053223
372.514984
401.489044
434.190979
470.887238
511.919861
557.751282
609.043823
666.832886
732.729492
810.211609
902.684265
1039.394165
1161.519165
2023.013672
370.031738
550.256897
0.000000
0.000000
0.000000
0.000000
0.000000
0.000000
240.619202
242.798935
247.078812
254.127563
263.892700
276.453674
291.889435
310.302216
331.815674
356.579010
384.772705
416.618164
452.394592
492.467834
537.340637
587.733337
644.736450
709.901428
786.180481
873.272766
991.995667
1081.323730
1554.270386
221.413666
1042.952393
34.735382
0.000000
0.000000
0.000000
0.000000
0.000000
225.449295
227.551056
231.678864
238.477829
247.897537
260.014923
274.906494
292.671051
313.428101
337.321472
364.524506
395.248840
429.759216
468.398468
511.629761
560.099976
614.755127
676.839783
748.328308
827.869751
927.928528
795.398010
1020.075012
215.656998
0.000000
0.000000
0.000000
0.000000
0.000000
0.000000
0.000000
207.795837
209.806641
213.756973
220.264191
229.280167
240.878479
255.131973
272.134399
291.998016
314.856476
340.867767
370.219757
403.139008
439.905701
480.878784
526.534302
577.547058
634.818848
700.381409
774.257812
875.425293
1071.412231
1709.011841
0.000000
486.368988
0.000000
0.000000
0.000000
0.000000
0.000000
0.000000
187.763000
189.670364
193.418777
199.594055
208.150497
219.157700
232.684143
248.817154
267.660034
289.333038
313.973755
341.737946
372.799927
407.353821
445.615479
487.825714
534.284607
585.344543
642.049805
705.545654
792.502502
799.647827
1328.794434
512.602966
791.122925
0.000000
0.000000
0.000000
0.000000
0.000000
0.000000
165.469177
167.261185
170.784485
176.589645
184.633774
194.982101
207.698425
222.863342
240.570633
260.926697
284.048309
310.058258
339.077911
371.213806
406.534943
445.033722
486.577942
530.777344
577.362061
623.322388
679.265442
752.889221
917.834290
206.565262
216.459488
0.000000
0.000000
0.000000
0.000000
0.000000
0.000000
141.046387
142.711823
145.988098
151.387238
158.869522
168.495804
180.325302
194.432312
210.902145
229.829498
251.314117
275.453186
302.327728
331.978363
364.363525
399.283630
436.258362
474.220551
511.234985
541.865723
562.480408
422.340088
596.925476
577.250183
837.772095
0.000000
0.000000
0.000000
114.639565
116.167892
119.176620
124.136116
131.010376
139.855865
150.727722
163.694946
178.836502
196.239227
215.993088
238.182449
262.870544
290.071838
319.703430
351.496643
384.845398
418.468903
450.111481
473.505432
485.664124
473.151306
315.773315
145.551239
0.000000
0.000000
0.000000
0.000000
86.405701
87.787117
90.509193
94.997734
101.220886