<?xml version='1.0' encoding='UTF-8'?>
<VTKFile xmlns='VTK' byte_order='LittleEndian' version='0.1' type='UnstructuredGrid'>
<UnstructuredGrid>
<Piece NumberOfCells='2512' NumberOfPoints='2512'>
<Points>
<DataArray NumberOfComponents='3' type='Float32' Name='Position' format='ascii'>
-0.075000 -0.075000 0.000000
-0.075000 -0.050000 0.000000
-0.075000 -0.025000 0.000000
-0.075000 0.000000 0.000000
-0.075000 0.025000 0.000000
-0.075000 0.050000 0.000000
-0.075000 0.075000 0.000000
-0.075000 0.100000 0.000000
-0.075000 0.125000 0.000000
-0.075000 0.150000 0.000000
-0.075000 0.175000 0.000000
-0.075000 0.200000 0.000000
-0.075000 0.225000 0.000000
-0.075000 0.250000 0.000000
-0.075000 0.275000 0.000000
-0.075000 0.300000 0.000000
-0.075000 0.325000 0.000000
-0.075000 0.350000 0.000000
-0.075000 0.375000 0.000000
-0.075000 0.400000 0.000000
-0.075000 0.425000 0.000000
-0.075000 0.450000 0.000000
-0.075000 0.475000 0.000000
-0.075000 0.500000 0.000000
-0.075000 0.525000 0.000000
-0.075000 0.550000 0.000000
-0.075000 0.575000 0.000000
-0.075000 0.600000 0.000000
-0.050000 -0.075000 0.000000
-0.050000 -0.050000 0.000000
-0.050000 -0.025000 0.000000
-0.050000 0.000000 0.000000
-0.050000 0.025000 0.000000
-0.050000 0.050000 0.000000
-0.050000 0.075000 0.000000
-0.050000 0.100000 0.000000
-0.050000 0.125000 0.000000
-0.050000 0.150000 0.000000
-0.050000 0.175000 0.000000
-0.050000 0.200000 0.000000
-0.050000 0.225000 0.000000
-0.050000 0.250000 0.000000
-0.050000 0.275000 0.000000
-0.050000 0.300000 0.000000
-0.050000 0.325000 0.000000
-0.050000 0.350000 0.000000
-0.050000 0.375000 0.000000
-0.050000 0.400000 0.000000
-0.050000 0.425000 0.000000
-0.050000 0.450000 0.000000
-0.050000 0.475000 0.000000
-0.050000 0.500000 0.000000
-0.050000 0.525000 0.000000
-0.050000 0.550000 0.000000
-0.050000 0.575000 0.000000
-0.050000 0.600000 0.000000
-0.025000 -0.075000 0.000000
-0.025000 -0.050000 0.000000
-0.025000 -0.025000 0.000000
-0.025000 0.000000 0.000000
-0.025000 0.025000 0.000000
-0.025000 0.050000 0.000000
-0.025000 0.075000 0.000000
-0.025000 0.100000 0.000000
-0.025000 0.125000 0.000000
-0.025000 0.150000 0.000000
-0.025000 0.175000 0.000000
-0.025000 0.200000 0.000000
-0.025000 0.225000 0.000000
-0.025000 0.250000 0.000000
-0.025000 0.275000 0.000000
-0.025000 0.300000 0.000000
-0.025000 0.325000 0.000000
-0.025000 0.350000 0.000000
-0.025000 0.375000 0.000000
-0.025000 0.400000 0.000000
-0.025000 0.425000 0.000000
-0.025000 0.450000 0.000000
-0.025000 0.475000 0.000000
-0.025000 0.500000 0.000000
-0.025000 0.525000 0.000000
-0.025000 0.550000 0.000000
-0.025000 0.575000 0.000000
-0.025000 0.600000 0.000000
0.000000 -0.075000 0.000000
0.000000 -0.050000 0.000000
0.000000 -0.025000 0.000000
0.000000 0.000000 0.000000
0.000000 0.025000 0.000000
0.000000 0.050000 0.000000
0.000000 0.075000 0.000000
0.000000 0.100000 0.000000
0.000000 0.125000 0.000000
0.000000 0.150000 0.000000
0.000000 0.175000 0.000000
0.000000 0.200000 0.000000
0.000000 0.225000 0.000000
0.000000 0.250000 0.000000
0.000000 0.275000 0.000000
0.000000 0.300000 0.000000
0.000000 0.325000 0.000000
0.000000 0.350000 0.000000
0.000000 0.375000 0.000000
0.000000 0.400000 0.000000
0.000000 0.425000 0.000000
0.000000 0.450000 0.000000
0.000000 0.475000 0.000000
0.000000 0.500000 0.000000
0.000000 0.525000 0.000000
0.000000 0.550000 0.000000
0.000000 0.575000 0.000000
0.000000 0.600000 0.000000
0.025000 -0.075000 0.000000
0.025000 -0.050000 0.000000
0.025000 -0.025000 0.000000
0.025000 0.000000 0.000000
0.024700 0.026920 0.000000
0.025389 0.049549 0.000000
0.024307 0.076668 0.000000
0.026564 0.100306 0.000000
0.024959 0.123607 0.000000
0.024523 0.154991 0.000000
0.024369 0.184282 0.000000
0.024772 0.209561 0.000000
0.025751 0.233450 0.000000
0.025708 0.257537 0.000000
0.025034 0.281711 0.000000
0.024196 0.307920 0.000000
0.025224 0.333268 0.000000
0.024657 0.359573 0.000000
0.024974 0.383867 0.000000
0.024161 0.411239 0.000000
0.022501 0.440367 0.000000
0.026916 0.466673 0.000000
0.023677 0.490595 0.000000
0.021408 0.530181 0.000000
0.038763 0.583618 0.000000
0.039722 0.600000 0.000000
0.059415 0.600000 0.000000
0.013725 0.600000 0.000000
0.685000 0.625000 0.000000
0.685000 0.650000 0.000000
0.685000 0.675000 0.000000
0.050000 -0.075000 0.000000
0.050000 -0.050000 0.000000
0.050000 -0.025000 0.000000
0.050000 0.000000 0.000000
0.049304 0.023037 0.000000
0.055922 0.050205 0.000000
0.046555 0.069115 0.000000
0.049060 0.109598 0.000000
0.041491 0.140671 0.000000
0.043156 0.170747 0.000000
0.049694 0.197958 0.000000
0.053415 0.224038 0.000000
0.050880 0.247090 0.000000
0.049850 0.273073 0.000000
0.050375 0.298179 0.000000
0.047966 0.322160 0.000000
0.048462 0.349557 0.000000
0.048796 0.374264 0.000000
0.047234 0.404729 0.000000
0.045064 0.427733 0.000000
0.049305 0.459192 0.000000
0.058532 0.482280 0.000000
0.040194 0.501346 0.000000
0.044164 0.528048 0.000000
0.023020 0.560924 0.000000
0.065175 0.566042 0.000000
0.087257 0.560066 0.000000
0.075250 0.600000 0.000000
0.710000 0.625000 0.000000
0.710000 0.650000 0.000000
0.710000 0.675000 0.000000
0.075000 -0.075000 0.000000
0.075000 -0.050000 0.000000
0.075000 -0.025000 0.000000
0.075000 0.000000 0.000000
0.092893 0.022749 0.000000
0.071175 0.031336 0.000000
0.071404 0.075127 0.000000
0.066501 0.098543 0.000000
0.069696 0.126037 0.000000
0.064818 0.157113 0.000000
0.075274 0.176483 0.000000
0.071859 0.203298 0.000000
0.076046 0.231492 0.000000
0.076290 0.259275 0.000000
0.073306 0.287083 0.000000
0.073109 0.313989 0.000000
0.073520 0.342069 0.000000
0.074626 0.364151 0.000000
0.068656 0.389900 0.000000
0.074446 0.415417 0.000000
0.064859 0.441436 0.000000
0.076823 0.468149 0.000000
0.079910 0.496130 0.000000
0.067824 0.516034 0.000000
0.069770 0.540480 0.000000
0.044228 0.550999 0.000000
0.091099 0.589501 0.000000
0.106360 0.600000 0.000000
0.735000 0.625000 0.000000
0.735000 0.650000 0.000000
0.735000 0.675000 0.000000
0.100000 -0.075000 0.000000
0.100000 -0.050000 0.000000
0.100000 -0.025000 0.000000
0.100000 0.000000 0.000000
0.118846 0.029155 0.000000
0.089074 0.063607 0.000000
0.095678 0.094280 0.000000
0.090418 0.119511 0.000000
0.086087 0.144459 0.000000
0.103429 0.159626 0.000000
0.095334 0.186564 0.000000
0.096669 0.213074 0.000000
0.102258 0.236502 0.000000
0.094444 0.266396 0.000000
0.097721 0.295429 0.000000
0.094855 0.320080 0.000000
0.099784 0.347104 0.000000
0.100339 0.370333 0.000000
0.094192 0.395015 0.000000
0.097100 0.419271 0.000000
0.091000 0.444285 0.000000
0.101091 0.465256 0.000000
0.113350 0.494861 0.000000
0.094313 0.512145 0.000000
0.099630 0.535789 0.000000
0.112529 0.558703 0.000000
0.124926 0.579839 0.000000
0.123893 0.600000 0.000000
0.760000 0.625000 0.000000
0.760000 0.650000 0.000000
0.760000 0.675000 0.000000
0.125000 -0.075000 0.000000
0.125000 -0.050000 0.000000
0.125000 -0.025000 0.000000
0.125000 0.000000 0.000000
0.142108 0.022787 0.000000
0.101156 0.047535 0.000000
0.112925 0.081837 0.000000
0.123277 0.102391 0.000000
0.117472 0.124084 0.000000
0.125626 0.149763 0.000000
0.120796 0.177838 0.000000
0.121214 0.201765 0.000000
0.125819 0.226970 0.000000
0.118520 0.253589 0.000000
0.119449 0.284139 0.000000
0.125505 0.305869 0.000000
0.119644 0.327646 0.000000
0.123369 0.359472 0.000000
0.132772 0.382087 0.000000
0.117818 0.399190 0.000000
0.131324 0.421968 0.000000
0.117071 0.440435 0.000000
0.123244 0.471982 0.000000
0.121863 0.537417 0.000000
0.145757 0.543223 0.000000
0.150214 0.567481 0.000000
0.173716 0.578336 0.000000
0.145357 0.600000 0.000000
0.785000 0.625000 0.000000
0.785000 0.650000 0.000000
0.785000 0.675000 0.000000
0.150000 -0.075000 0.000000
0.150000 -0.050000 0.000000
0.150000 -0.025000 0.000000
0.150000 0.000000 0.000000
0.167439 0.026004 0.000000
0.128695 0.050230 0.000000
0.140560 0.079240 0.000000
0.149188 0.100695 0.000000
0.140742 0.132225 0.000000
0.152215 0.153455 0.000000
0.145961 0.175642 0.000000
0.144031 0.208032 0.000000
0.150768 0.237561 0.000000
0.137658 0.264088 0.000000
0.146406 0.290629 0.000000
0.157725 0.311608 0.000000
0.140274 0.341513 0.000000
0.156388 0.360977 0.000000
0.147410 0.404317 0.000000
0.160778 0.426582 0.000000
0.139274 0.449581 0.000000
0.145595 0.472685 0.000000
0.127139 0.508926 0.000000
0.155629 0.496934 0.000000
0.149578 0.518066 0.000000
0.167870 0.549040 0.000000
0.183529 0.600000 0.000000
0.161118 0.600000 0.000000
0.810000 0.625000 0.000000
0.810000 0.650000 0.000000
0.810000 0.675000 0.000000
0.175000 -0.075000 0.000000
0.175000 -0.050000 0.000000
0.175000 -0.025000 0.000000
0.175000 0.000000 0.000000
0.192881 0.025056 0.000000
0.148512 0.055715 0.000000
0.165101 0.075920 0.000000
0.179619 0.104160 0.000000
0.164417 0.121670 0.000000
0.178103 0.152980 0.000000
0.171192 0.177218 0.000000
0.164090 0.203395 0.000000
0.172769 0.225595 0.000000
0.162796 0.256903 0.000000
0.168629 0.282822 0.000000
0.181369 0.309004 0.000000
0.161874 0.335142 0.000000
0.185649 0.367990 0.000000
0.160085 0.382766 0.000000
0.176544 0.410435 0.000000
0.169459 0.447464 0.000000
0.192034 0.455825 0.000000
0.171101 0.471608 0.000000
0.179655 0.498390 0.000000
0.177044 0.521255 0.000000
0.189616 0.545246 0.000000
0.199626 0.566562 0.000000
0.198847 0.600000 0.000000
0.835000 0.625000 0.000000
0.835000 0.650000 0.000000
0.835000 0.675000 0.000000
0.200000 -0.075000 0.000000
0.200000 -0.050000 0.000000
0.200000 -0.025000 0.000000
0.200000 0.000000 0.000000
0.217261 0.023128 0.000000
0.175296 0.046845 0.000000
0.186972 0.079959 0.000000
0.207805 0.098432 0.000000
0.188076 0.127006 0.000000
0.199979 0.153021 0.000000
0.189213 0.190356 0.000000
0.200492 0.212069 0.000000
0.183983 0.247405 0.000000
0.201512 0.262157 0.000000
0.192737 0.283138 0.000000
0.201107 0.309442 0.000000
0.184597 0.343387 0.000000
0.207087 0.351877 0.000000
0.189918 0.388744 0.000000
0.206630 0.406468 0.000000
0.194669 0.428055 0.000000
0.213530 0.451883 0.000000
0.198874 0.483319 0.000000
0.213434 0.499522 0.000000
0.205806 0.519275 0.000000
0.216230 0.541291 0.000000
[...]
<PointData>
<DataArray NumberOfComponents='1' type='Int32' Name='ParticleType' format='ascii'>
3
3
3
3
3
3
3
3
3
3
3
3
3
3
3
3
3
3
3
3
3
3
3
3
3
3
3
3
3
3
3
3
3
3
3
3
3
3
3
3
3
3
3
3
3
3
3
3
3
3
3
3
3
3
3
3
3
3
2
2
2
2
2
2
2
2
2
2
2
2
2
2
2
2
2
2
2
2
2
2
2
2
2
2
3
3
2
2
2
2
2
2
2
2
2
2
2
2
2
2
2
2
2
2
2
2
2
2
2
2
2
2
3
3
2
2
0
0
0
0
0
0
0
0
0
0
0
0
0
0
0
0
0
0
0
0
0
0
0
0
1
1
1
3
3
2
2
0
0
0
0
0
0
0
0
0
0
0
0
0
0
0
0
0
0
0
0
0
0
0
0
1
1
1
3
3
2
2
0
0
0
0
0
0
0
0
0
0
0
0
0
0
0
0
0
0
0
0
0
0
0
0
1
1
1
3
3
2
2
0
0
0
0
0
0
0
0
0
0
0
0
0
0
0
0
0
0
0
0
0
0
0
0
1
1
1
3
3
2
2
0
0
0
0
0
0
0
0
0
0
0
0
0
0
0
0
0
0
0
0
0
0
0
0
1
1
1
3
3
2
2
0
0
0
0
0
0
0
0
0
0
0
0
0
0
0
0
0
0
0
0
0
0
0
0
1
1
1
3
3
2
2
0
0
0
0
0
0
0
0
0
0
0
0
0
0
0
0
0
0
0
0
0
0
0
0
1
1
1
3
3
2
2
0
0
0
0
0
0
0
0
0
0
0
0
0
0
0
0
0
0
0
0
0
0
0
0
1
1
1
3
3
2
2
0
0
0
0
0
0
0
0
0
0
0
0
0
0
0
0
0
0
0
0
0
0
0
0
1
1
1
3
3
2
2
0
0
0
0
0
0
0
0
0
0
0
0
0
0
0
0
0
0
0
0
0
0
0
0
1
1
1
3
3
2
2
0
0
0
0
0
0
0
0
0
0
0
0
0
0
0
0
0
0
0
0
0
0
0
0
1
1
1
3
3
2
2
0
0
0
0
0
0
0
0
0
0
0
0
0
0
0
0
0
0
0
0
0
0
0
0
1
1
1
3
3
2
2
0
0
0
0
0
0
0
0
0
0
0
0
0
0
0
0
0
0
0
0
0
0
0
0
1
1
1
3
3
2
2
0
0
0
0
0
0
0
0
0
0
0
0
0
0
0
0
0
0
0
0
0
0
0
0
1
1
1
3
3
2
2
0
0
0
0
0
0
0
0
0
0
0
0
0
0
0
0
0
0
0
0
0
0
0
0
1
1
1
3
3
2
2
0
0
0
0
0
0
0
0
0
0
0
0
0
0
0
0
0
0
0
0
0
0
0
0
1
1
1
3
3
2
2
0
0
0
0
0
0
0
0
0
0
0
0
0
0
0
0
0
0
0
0
0
0
0
0
3
3
2
2
0
0
0
0
0
0
0
0
0
0
0
0
0
0
0
0
0
0
0
0
0
0
0
0
3
3
2
2
0
0
0
0
0
0
0
0
0
0
0
0
0
0
0
0
0
0
0
0
0
0
0
0
3
3
2
2
0
0
0
0
0
0
0
0
0
0
0
0
0
0
0
0
0
0
0
0
0
0
0
0
3
3
2
2
0
0
0
0
0
0
0
0
0
0
0
0
0
0
0
0
0
0
0
0
0
0
0
0
3
3
2
2
0
0
0
0
0
0
0
0
0
0
0
0
0
0
0
0
0
0
0
0
0
0
0
0
3
3
2
2
0
0
0
0
0
0
0
0
0
0
0
0
0
0
0
0
0
0
0
0
0
0
0
0
3
3
2
2
0
0
0
0
0
0
0
0
0
0
0
0
0
0
0
0
0
0
0
0
0
0
0
0
3
3
2
2
0
0
0
0
0
0
0
0
0
0
0
0
0
0
0
0
0
0
0
0
0
0
0
0
3
3
2
2
0
0
0
0
0
0
0
0
0
0
0
0
0
0
0
0
0
0
0
0
0
0
0
0
3
3
2
2
0
0
0
0
0
0
0
0
0
0
0
0
0
0
0
0
0
0
0
0
0
0
0
0
3
3
2
2
0
0
0
0
0
0
0
0
0
0
0
0
0
0
0
0
0
0
0
0
0
0
0
0
3
3
2
2
0
0
0
0
0
0
0
0
0
0
0
0
0
0
0
0
0
0
0
0
0
0
0
0
3
3
2
2
0
0
0
0
0
0
0
0
0
0
0
0
0
0
0
0
0
0
0
0
0
0
0
0
3
3
2
2
0
0
0
0
0
0
0
0
0
0
0
0
0
0
0
0
0
0
0
0
0
0
0
0
3
3
2
2
0
0
0
0
0
0
0
0
0
0
0
0
0
0
0
0
0
0
0
0
0
0
0
0
3
3
2
2
0
0
0
0
0
0
0
0
0
0
0
0
0
0
0
0
0
0
0
0
0
0
0
0
3
3
2
2
0
0
0
0
0
0
0
0
0
0
0
0
0
0
0
0
0
0
0
0
0
0
0
0
3
3
2
2
0
0
0
0
0
0
0
0
0
0
0
0
0
0
0
0
0
0
0
0
0
0
0
0
3
3
2
2
0
0
0
0
0
0
0
0
0
0
0
0
0
0
0
0
0
0
0
0
0
0
0
0
3
3
2
2
0
0
0
0
0
0
0
0
0
0
0
0
0
0
0
0
0
0
0
0
0
0
0
0
3
3
2
2
0
0
0
0
0
0
0
0
0
0
0
0
0
0
0
0
0
0
0
0
0
0
0
0
3
3
2
2
0
0
0
0
0
0
0
0
0
0
0
0
0
0
0
0
0
0
0
0
0
0
0
0
3
3
2
2
0
0
0
0
0
0
0
0
0
0
0
0
0
0
0
0
0
0
0
0
0
0
0
0
3
3
2
2
0
0
0
0
0
0
0
0
0
0
0
0
0
0
0
0
0
0
0
0
0
0
0
0
3
3
2
2
0
0
0
0
0
0
0
0
0
0
0
0
0
0
0
0
0
0
0
0
0
0
0
0
3
3
2
2
0
0
0
0
0
0
0
0
0
0
0
0
0
0
0
0
0
0
0
0
0
0
0
0
3
3
2
2
0
0
0
0
0
0
0
0
0
0
0
0
0
0
0
0
0
0
0
0
0
0
0
0
3
3
2
2
0
0
0
0
0
0
0
0
0
0
0
0
0
0
0
0
0
0
0
0
0
0
0
0
3
3
2
2
0
0
0
0
0
0
0
0
0
0
0
0
0
0
0
0
0
0
0
0
0
0
0
0
3
3
2
2
0
0
0
0
0
0
0
0
0
0
0
0
0
0
0
0
0
0
0
0
0
0
0
0
3
3
2
2
0
0
0
0
0
0
0
0
0
0
0
0
0
0
0
0
0
0
0
0
0
0
0
0
3
3
2
2
0
0
0
0
0
0
0
0
0
0
0
0
0
0
0
0
0
0
0
0
0
0
0
0
3
3
2
2
0
0
0
0
0
0
0
0
0
0
0
0
0
0
0
0
0
0
0
0
0
0
0
0
3
3
2
2
0
0
0
0
0
0
0
0
0
0
0
0
0
0
0
0
0
0
0
0
0
0
0
0
3
3
2
2
0
0
0
0
0
0
0
0
0
0
0
0
0
0
0
0
0
0
0
0
0
0
0
0
3
3
2
2
0
0
0
0
0
0
0
0
0
0
0
0
0
0
0
0
0
0
0
0
0
0
0
0
3
3
2
2
0
0
0
0
0
0
0
0
0
0
0
0
0
0
0
0
0
0
0
0
0
0
0
0
3
3
2
2
0
0
0
0
0
0
0
0
0
0
0
0
0
0
0
0
0
0
0
0
0
0
0
0
3
3
2
2
0
0
0
0
0
0
0
0
0
0
0
0
0
0
0
0
0
0
0
0
0
0
0
0
3
3
2
2
0
0
0
0
0
0
0
0
0
0
0
0
0
0
0
0
0
0
0
0
0
0
0
0
3
3
2
2
0
0
0
0
0
0
0
0
0
0
0
0
0
0
0
0
0
0
0
0
0
0
0
0
3
3
2
2
0
0
0
0
0
0
0
0
0
0
0
0
0
0
0
0
0
0
0
0
0
0
0
0
3
3
2
2
0
0
0
0
0
0
0
0
0
0
0
0
0
0
0
0
0
0
0
0
0
0
0
0
3
3
2
2
0
0
0
0
0
0
0
0
0
0
0
0
0
0
0
0
0
0
0
0
0
0
0
0
3
3
2
2
0
0
0
0
0
0
0
0
0
0
0
0
0
0
0
0
0
0
0
0
0
0
0
0
3
3
2
2
0
0
0
0
0
0
0
0
0
0
0
0
0
0
0
0
0
0
0
0
0
0
0
0
3
3
2
2
0
0
0
0
0
0
0
0
0
0
0
0
0
0
0
0
0
0
0
0
0
0
0
0
3
3
2
2
0
0
0
0
0
0
0
0
0
0
0
0
0
0
0
0
0
0
0
0
0
0
0
0
3
3
2
2
0
0
0
0
0
0
0
0
0
0
0
0
0
0
0
0
0
0
0
0
0
0
0
0
3
3
2
2
0
0
0
0
0
0
0
0
0
0
0
0
0
0
0
0
0
0
0
0
0
0
0
0
3
3
2
2
0
0
0
0
0
0
0
0
0
0
0
0
0
0
0
0
0
0
0
0
0
0
0
0
3
3
2
2
0
0
0
0
0
0
0
0
0
0
0
0
0
0
0
0
0
0
0
0
0
0
0
0
3
3
2
2
0
0
0
0
0
0
0
0
0
0
0
0
0
0
0
0
0
0
0
0
0
0
0
0
3
3
2
2
0
0
0
0
0
0
0
0
0
0
0
0
0
0
0
0
0
0
0
0
0
0
0
0
3
3
2
2
0
0
0
0
0
0
0
0
0
0
0
0
0
0
0
0
0
0
0
0
0
0
0
0
3
3
2
2
0
0
0
0
0
0
0
0
0
0
0
0
0
0
0
0
0
0
0
0
0
0
0
0
3
3
2
2
0
0
0
0
0
0
0
0
0
0
0
0
0
0
0
0
0
0
0
0
0
0
0
0
3
3
2
2
0
0
0
0
0
0
0
0
0
0
0
0
0
0
0
0
0
0
0
0
0
0
0
0
3
3
2
2
0
0
0
0
0
0
0
0
0
0
0
0
0
0
0
0
0
0
0
0
0
0
0
0
3
3
2
2
0
0
0
0
0
0
0
0
0
0
0
0
0
0
0
0
0
0
0
0
0
0
0
0
3
3
2
2
0
0
0
0
0
0
0
0
0
0
0
0
0
0
0
0
0
0
0
0
0
0
0
0
3
3
2
2
0
0
0
0
0
0
0
0
0
0
0
0
0
0
0
0
0
0
0
0
0
0
0
0
3
3
2
2
0
0
0
0
0
0
0
0
0
0
0
0
0
0
0
0
0
0
0
0
0
0
0
0
3
3
2
2
2
2
2
2
2
2
2
2
2
2
2
2
2
2
2
2
2
2
2
2
2
2
2
2
3
3
2
2
2
2
2
2
2
2
2
2
2
2
2
2
2
2
2
2
2
2
2
2
2
2
2
2
3
3
3
3
3
3
3
3
3
3
3
3
3
3
3
3
3
3
3
3
3
3
3
3
3
3
3
3
3
3
3
3
3
3
3
3
3
3
3
3
3
3
3
3
3
3
3
3
3
3
3
3
3
3
3
3
</DataArray>
<DataArray NumberOfComponents='1' type='Float32' Name='Velocity' format='ascii'>
0.000000
0.000000
0.000000
0.000000
0.000000
0.000000
0.000000
0.000000
0.000000
0.000000
0.000000
0.000000
0.000000
0.000000
0.000000
0.000000
0.000000
0.000000
0.000000
0.000000
0.000000
0.000000
0.000000
0.000000
0.000000
0.000000
0.000000
0.000000
0.000000
0.000000
0.000000
0.000000
0.000000
0.000000
0.000000
0.000000
0.000000
0.000000
0.000000
0.000000
0.000000
0.000000
0.000000
0.000000
0.000000
0.000000
0.000000
0.000000
0.000000
0.000000
0.000000
0.000000
0.000000
0.000000
0.000000
0.000000
0.000000
0.000000
0.000000
0.000000
0.000000
0.000000
0.000000
0.000000
0.000000
0.000000
0.000000
0.000000
0.000000
0.000000
0.000000
0.000000
0.000000
0.000000
0.000000
0.000000
0.000000
0.000000
0.000000
0.000000
0.000000
0.000000
0.000000
0.000000
0.000000
0.000000
0.000000
0.000000
0.000000
0.000000
0.000000
0.000000
0.000000
0.000000
0.000000
0.000000
0.000000
0.000000
0.000000
0.000000
0.000000
0.000000
0.000000
0.000000
0.000000
0.000000
0.000000
0.000000
0.000000
0.000000
0.000000
0.000000
0.000000
0.000000
0.000000
0.000000
0.096217
0.067450
0.025245
0.039851
0.129413
0.062388
0.181355
0.122313
0.117995
0.216941
0.036184
0.190734
0.029084
0.237548
0.045212
0.141607
0.105044
0.080110
0.105352
0.147322
0.286202
15.829651
12.378380
12.397472
1.000000
1.000000
1.000000
0.000000
0.000000
0.000000
0.000000
0.072348
0.074239
0.053925
0.159308
0.125676
0.111450
0.095918
0.055183
0.140702
0.104486
0.159545
0.163608
0.144001
0.119635
0.088921
0.087778
0.270898
0.078026
0.179081
0.021467
0.393837
0.169655
0.536043
9.562601
1.000000
1.000000
1.000000
0.000000
0.000000
0.000000
0.000000
0.078393
0.068159
0.075754
0.080720
0.138012
0.082473
0.037431
0.087644
0.192015
0.085825
0.105435
0.131218
0.151315
0.074975
0.124600
0.070186
0.138761
0.191042
0.172068
0.508046
0.280754
0.362213
0.383483
6.740076
1.000000
1.000000
1.000000
0.000000
0.000000
0.000000
0.000000
0.116016
0.115273
0.182715
0.207852
0.095829
0.083722
0.024011
0.160259
0.109699
0.037844
0.187643
0.062924
0.210765
0.120876
0.233718
0.206858
0.046190
0.120995
0.092688
0.219190
0.021511
0.369026
0.082920
6.431407
1.000000
1.000000
1.000000
0.000000
0.000000
0.000000
0.000000
0.108446
0.054739
0.183650
0.080747
0.030389
0.145188
0.065212
0.049515
0.101072
0.089832
0.252798
0.305248
0.085800
0.117146
0.216185
0.080097
0.089975
0.233621
0.099494
0.192873
0.187671
0.212095
0.186333
4.121129
1.000000
1.000000
1.000000
0.000000
0.000000
0.000000
0.000000
0.007158
0.156139
0.188908
0.128597
0.078107
0.027093
0.030769
0.187030
0.094381
0.124140
0.113221
0.103264
0.148444
0.088870
0.124723
0.191079
0.142662
0.333850
0.125805
0.227811
0.060599
0.222492
6.712269
8.778018
1.000000
1.000000
1.000000
0.000000
0.000000
0.000000
0.000000
0.059304
0.047709
0.117883
0.160494
0.078942
0.044304
0.033788
0.109354
0.149927
0.086336
0.089161
0.089785
0.143714
0.195833
0.129844
0.022880
0.075129
0.129019
0.035626
0.193043
0.167545
0.127938
0.288958
2.708737
1.000000
1.000000
1.000000
0.000000
0.000000
0.000000
0.000000
0.095676
0.080534
0.144363
0.183993
0.105673
0.118828
0.062742
0.179107
0.148629
0.116755
0.077962
0.046295
0.081586
0.158618
0.110844
0.169200
0.243672
0.170828
0.079673
0.069859
0.166927
0.106952
0.262914
3.805716
1.000000
1.000000
1.000000
0.000000
0.000000
0.000000
0.000000
0.126318
0.027929
0.262049
0.092713
0.024346
0.028714
0.149923
0.099225
0.190217
0.002175
0.075085
0.086829
0.202076
0.071152
0.130870
0.200234
0.062520
0.111237
0.151245
0.213085
0.243654
0.183988
0.106456
4.865363
1.000000
1.000000
1.000000
0.000000
0.000000
0.000000
0.000000
0.071344
0.099144
0.081043
0.063272
0.062991
0.011697
0.156928
0.078948
0.126039
0.047104
0.129847
0.098674
0.089802
0.052385
0.140395
0.114954
0.159677
0.010805
0.157540
0.300373
0.213230
0.155583
0.312698
5.168248
1.000000
1.000000
1.000000
0.000000
0.000000
0.000000
0.000000
0.015030
0.129680
0.156007
0.089365
0.132488
0.097242
0.072599
0.074247
0.088046
0.039651
0.060626
0.193468
0.074719
0.038750
0.078459
0.169967
0.094955
0.121318
0.056250
0.086500
0.079960
0.231331
0.107619
1.595671
1.000000
1.000000
1.000000
0.000000
0.000000
0.000000
0.000000
0.079124
0.052354
0.057976
0.082110
0.096161
0.086442
0.088140
0.102330
0.056195
0.101955
0.030045
0.067154
0.045883
0.043421
0.073808
0.058446
0.059039
0.113794
0.169718
0.029819
0.261915
0.087388
1.403174
2.820188
1.000000
1.000000
1.000000
0.000000
0.000000
0.000000
0.000000
0.027893
0.092332
0.119932
0.136485
0.009397
0.124956
0.089442
0.016961
0.052399
0.090618
0.162871
0.069952
0.058724
0.057021
0.014506
0.082459
0.191781
0.136858
0.102433
0.081417
0.151248
0.245358
0.176018
2.186946
1.000000
1.000000
1.000000
0.000000
0.000000
0.000000
0.000000
0.090101
0.089822
0.100077
0.121637
0.007081
0.148457
0.036448
0.118888
0.070083
0.008701
0.148988
0.024416
0.015286
0.040089
0.101006
0.074190
0.045197
0.066983
0.131102
0.037480
0.050552
0.108095
0.241259
2.921469
1.000000
1.000000
1.000000
0.000000
0.000000
0.000000
0.000000
0.054661
0.097033
0.016052
0.033678
0.105254
0.091481
0.049874
0.056595
0.041410
0.105298
0.044818
0.064570
0.098342
0.127116
0.065254
0.020010
0.142898
0.145510
0.088620
0.166479
0.125141
0.145947
2.839000
3.119816
1.000000
1.000000
1.000000
0.000000
0.000000
0.000000
0.000000
0.046736
0.133507
0.067232
0.076196
0.063061
0.025669
0.082821
0.085566
0.071758
0.064243
0.003919
0.166595
0.027477
0.065527
0.056408
0.155141
0.031934
0.182675
0.219270
0.084592
0.198181
0.199453
0.083405
2.594039
1.000000
1.000000
1.000000
0.000000
0.000000
0.000000
0.000000
0.048408
0.088504
0.023006
0.062975
0.021421
0.144534
0.074823
0.200149
0.065244
0.121643
0.119266
0.168151
0.298611
0.238778
0.066629
0.154695
0.153665
0.024297
0.261340
0.146977
0.168286
0.214225
0.063415
2.836153
0.000000
0.000000
0.000000
0.000000
0.012011
0.125888
0.074140
0.069436
0.126511
0.120942
0.137843
0.064844
0.108300
0.041925
0.073197
0.163638
0.038150
0.087870
0.144797
0.085146
0.104239
0.157061
0.142508
0.206277
0.142201
0.446195
0.116312
5.805805
0.000000
0.000000
0.000000
0.000000
0.093894
0.084872
0.042628
0.105018
0.053758
0.107222
0.155060
0.072548
0.052595
0.091010
0.057749
0.173065
0.170646
0.045742
0.068055
0.215866
0.142434
0.086716
0.106720
0.223733
0.384199
0.340149
0.267233
3.981506
0.000000
0.000000
0.000000
0.000000
0.028561
0.038917
0.127091
0.043173
0.077462
0.073843
0.067128
0.070484
0.020653
0.051841
0.005199
0.161297
0.060049
0.053322
0.039818
0.190708
0.048612
0.109324
0.054306
0.354596
0.155467
0.080678
2.213202
14.004645
0.000000
0.000000
0.000000
0.000000
0.038407
0.026644
0.047184
0.084128
0.110343
0.086145
0.208515
0.118703
0.030056
0.024310
0.130728
0.124464
0.120254
0.105663
0.211678
0.163489
0.057257
0.222282
0.050401
0.080055
0.197022
0.241156
1.566865
7.895206
0.000000
0.000000
0.000000
0.000000
0.033299
0.079550
0.057025
0.132822
0.150590
0.038418
0.068888
0.033044
0.065863
0.056095
0.012363
0.057301
0.094016
0.113814
0.067411
0.063201
0.098625
0.179857
0.206900
0.298043
0.361855
0.457380
0.265011
12.753520
0.000000
0.000000
0.000000
0.000000
0.040295
0.025047
0.043013
0.058042
0.044822
0.053385
0.094627
0.148830
0.021944
0.053295
0.017973
0.084797
0.057818
0.038168
0.112388
0.058506
0.085732
0.079938
0.138990
0.119616
0.256393
0.134262
8.415242
5.262294
0.000000
0.000000
0.000000
0.000000
0.045132
0.090411
0.031429
0.052178
0.100947
0.094667
0.074681
0.097078
0.026889
0.077580
0.030948
0.103113
0.131547
0.109611
0.164051
0.123903
0.191452
0.154479
0.080941
0.059198
0.204743
0.190611
0.318929
3.020642
0.000000
0.000000
0.000000
0.000000
0.070895
0.099232
0.055616
0.026595
0.014686
0.041401
0.031161
0.072505
0.055026
0.031556
0.089281
0.004303
0.046960
0.052938
0.180935
0.053589
0.125737
0.083176
0.099996
0.055905
0.183336
0.018976
0.060105
5.199903
0.000000
0.000000
0.000000
0.000000
0.037381
0.093254
0.100175
0.060601
0.043090
0.089084
0.026544
0.116949
0.029191
0.058129
0.058072
0.100276
0.057383
0.083993
0.093256
0.038152
0.133558
0.139219
0.047173
0.095924
0.124381
0.241497
0.241515
4.028891
0.000000
0.000000
0.000000
0.000000
0.058510
0.049593
0.025238
0.017245
0.035707
0.091867
0.047052
0.089411
0.096763
0.050947
0.031042
0.048864
0.048235
0.059471
0.101276
0.034761
0.019506
0.079240
0.093162
0.116893
0.124261
0.051470
0.043071
2.880651
0.000000
0.000000
0.000000
0.000000
0.066725
0.035493
0.102765
0.039320
0.058857
0.077026
0.049156
0.158301
0.044594
0.075373
0.030832
0.084606
0.051533
0.088417
0.067111
0.051876
0.054488
0.030669
0.162586
0.074970
0.116536
0.059969
0.035647
2.263134
0.000000
0.000000
0.000000
0.000000
0.064030
0.033746
0.056233
0.019894
0.049302
0.076265
0.073395
0.055572
0.117354
0.027947
0.036568
0.076892
0.071479
0.086539
0.046320
0.048753
0.071522
0.137910
0.045770
0.078122
0.174811
0.082389
0.096328
3.119317
0.000000
0.000000
0.000000
0.000000
0.065092
0.104523
0.039266
0.065614
0.034565
0.067827
0.071650
0.111089
0.052193
0.100474
0.045802
0.075952
0.072324
0.063909
0.113665
0.071608
0.036951
0.135368
0.120481
0.037836
0.099829
0.134088
0.295676
3.022811
0.000000
0.000000
0.000000
0.000000
0.023287
0.018487
0.030639
0.032987
0.039586
0.045564
0.093665
0.028300
0.085799
0.036106
0.069609
0.057556
0.062642
0.111169
0.010074
0.072472
0.063571
0.100447
0.111104
0.074716
0.104365
0.212558
0.173656
2.962134
0.000000
0.000000
0.000000
0.000000
0.087609
0.071134
0.067534
0.055470
0.048895
0.031060
0.080669
0.031782
0.026133
0.033132
0.066692
0.039402
0.061078
0.064881
0.133849
0.070049
0.117215
0.079744
0.133864
0.045543
0.020847
0.135044
0.067286
2.979166
0.000000
0.000000
0.000000
0.000000
0.030164
0.033420
0.065436
0.023013
0.025427
0.018630
0.044772
0.037153
0.020744
0.010384
0.051959
0.050020
0.035257
0.108636
0.057502
0.074107
0.075645
0.015510
0.048957
0.009443
0.074442
0.079522
0.073243
2.046136
0.000000
0.000000
0.000000
0.000000
0.102916
0.071528
0.086385
0.031175
0.033923
0.019178
0.066088
0.024344
0.008446
0.040847
0.036835
0.012928
0.067368
0.016728
0.117227
0.051609
0.121077
0.014449
0.091536
0.025910
0.149547
0.043274
0.030276
1.190380
0.000000
0.000000
0.000000
0.000000
0.042984
0.040986
0.066722
0.033700
0.008145
0.035019
0.032324
0.039439
0.013707
0.016073
0.028805
0.057753
0.030994
0.050061
0.042527
0.007323
0.072776
0.087327
0.075787
0.038385
0.097470
0.103778
0.062766
0.807472
0.000000
0.000000
0.000000
0.000000
0.073670
0.034911
0.070527
0.042769
0.035890
0.022249
0.018305
0.041945
0.031385
0.038235
0.056753
0.049452
0.047679
0.058563
0.040086
0.058950
0.043814
0.052129
0.103243
0.085061
0.068401
0.099889
0.039536
1.190963
0.000000
0.000000
0.000000
0.000000
0.084156
0.027363
0.076486
0.017583
0.033675
0.029031
0.024463
0.044840
0.015323
0.010435
0.016855
0.064315
0.035108
0.090632
0.025111
0.098048
0.052304
0.124944
0.024049
0.068611
0.094185
0.149377
0.070418
1.890349
0.000000
0.000000
0.000000
0.000000
0.062105
0.017036
0.059843
0.064798
0.067016
0.027843
0.008185
0.017041
0.041213
0.038025
0.034765
0.023627
0.079538
0.015713
0.096127
0.064144
0.098045
0.067765
0.142410
0.143132
0.070646
0.118009
0.092308
3.836396
0.000000
0.000000
0.000000
0.000000
0.104403
0.023364
0.093385
0.007903
0.077112
0.015623
0.045096
0.046907
0.012810
0.021874
0.031609
0.035388
0.037623
0.045515
0.025980
0.049124
0.091899
0.066530
0.098745
0.036394
0.212883
0.157246
0.439284
5.749130
0.000000
0.000000
0.000000
0.000000
0.063396
0.006404
0.068591
0.040586
0.052183
0.017349
0.018759
0.014579
0.048698
0.048052
0.040064
0.052628
0.054070
0.020891
0.032847
0.031466
0.059439
0.101901
0.031189
0.106746
0.155731
0.270248
0.133545
4.890404
0.000000
0.000000
0.000000
0.000000
0.096831
0.029175
0.085347
0.023899
0.078113
0.041412
0.019064
0.046765
0.025394
0.008412
0.049194
0.010011
0.034745
0.044263
0.025061
0.116246
0.024376
0.103248
0.197829
0.011298
0.378716
0.235530
0.286293
4.448895
0.000000
0.000000
0.000000
0.000000
0.056060
0.008246
0.064960
0.021148
0.060166
0.059589
0.026897
0.024746
0.023457
0.043338
0.019069
0.034653
0.037086
0.016286
0.058326
0.053874
0.058313
0.068821
0.096366
0.100404
0.188544
0.081778
0.453122
5.745267
0.000000
0.000000
0.000000
0.000000
0.072718
0.031462
0.077641
0.019409
0.063939
0.064660
0.007333
0.047703
0.046611
0.032604
0.047482
0.041257
0.027202
0.042087
0.011877
0.132251
0.054319
0.117966
0.166984
0.115927
0.110301
0.078618
0.482896
12.374225
0.000000
0.000000
0.000000
0.000000
0.052415
0.009583
0.058810
0.027482
0.018853
0.105520
0.020884
0.006559
0.038964
0.043565
0.051094
0.062906
0.080919
0.068906
0.083470
0.118088
0.126839
0.131470
0.030538
0.077948
0.037549
0.073942
0.286462
8.016769
0.000000
0.000000
0.000000
0.000000
0.052172
0.024669
0.066133
0.077068
0.105832
0.090054
0.038694
0.054948
0.055006
0.061359
0.069380
0.040700
0.054839
0.025478
0.035670
0.018366
0.046713
0.048376
0.166456
0.135872
0.078318
0.192597
0.261908
7.521554
0.000000
0.000000
0.000000
0.000000
0.056832
0.033304
0.059908
0.085714
0.096107
0.077825
0.048995
0.015395
0.111293
0.056872
0.124587
0.082298
0.127127
0.069593
0.112121
0.020437
0.121113
0.028572
0.037219
0.114088
0.042575
0.063533
0.341093
7.513474
0.000000
0.000000
0.000000
0.000000
0.043359
0.024544
0.063455
0.063210
0.127488
0.053261
0.051777
0.055064
0.048657
0.035254
0.075056
0.082991
0.036821
0.066738
0.027996
0.147739
0.058562
0.234674
0.097135
0.095085
0.121193
0.228690
0.217076
7.659903
0.000000
0.000000
0.000000
0.000000
0.044489
0.034647
0.023710
0.033549
0.125019
0.074640
0.085387
0.009092
0.097699
0.030429
0.123164
0.037298
0.133889
0.113239
0.039008
0.205975
0.066829
0.084012
0.077592
0.125134
0.048131
0.306290
0.253421
8.572571
0.000000
0.000000
0.000000
0.000000
0.044775
0.041767
0.042146
0.026456
0.127384
0.036403
0.091603
0.044517
0.086479
0.064901
0.108619
0.145148
0.130658
0.288920
0.064702
0.202587
0.237860
0.159673
0.148364
0.085825
0.153938
0.162274
0.531541
7.640238
0.000000
0.000000
0.000000
0.000000
0.034574
0.034651
0.020407
0.068874
0.143112
0.035025
0.105512
0.034831
0.127378
0.051277
0.160356
0.016072
0.159196
0.088396
0.154417
0.050381
0.278919
0.087936
0.214703
0.273138
0.282931
0.421341
0.326472
9.288314
0.000000
0.000000
0.000000
0.000000
0.043177
0.033209
0.019932
0.043651
0.116535
0.026490
0.100549
0.048140
0.105127
0.031011
0.138483
0.097774
0.161845
0.219160
0.051823
0.142640
0.056401
0.282261
0.068598
0.149405
0.194411
0.410862
1.764398
7.440546
0.000000
0.000000
0.000000
0.000000
0.037005
0.031313
0.019057
0.033109
0.104347
0.114112
0.108731
0.126042
0.159446
0.063414
0.165146
0.139165
0.085065
0.065518
0.157778
0.095951
0.171593
0.164197
0.397774
0.081252
0.234775
0.231245
0.359636
13.693200
0.000000
0.000000
0.000000
0.000000
0.042883
0.040826
0.032196
0.021269
0.114902
0.093017
0.042177
0.062792
0.126333
0.068857
0.168717
0.078618
0.095081
0.186624
0.103333
0.088635
0.056392
0.064832
0.075152
0.386402
0.013832
0.682791