<?xml version='1.0' encoding='UTF-8'?>
<VTKFile xmlns='VTK' byte_order='LittleEndian' version='0.1' type='UnstructuredGrid'>
<UnstructuredGrid>
<Piece NumberOfCells='2512' NumberOfPoints='2512'>
<Points>
<DataArray NumberOfComponents='3' type='Float32' Name='Position' format='ascii'>
-0.075000 -0.075000 0.000000
-0.075000 -0.050000 0.000000
-0.075000 -0.025000 0.000000
-0.075000 0.000000 0.000000
-0.075000 0.025000 0.000000
-0.075000 0.050000 0.000000
-0.075000 0.075000 0.000000
-0.075000 0.100000 0.000000
-0.075000 0.125000 0.000000
-0.075000 0.150000 0.000000
-0.075000 0.175000 0.000000
-0.075000 0.200000 0.000000
-0.075000 0.225000 0.000000
-0.075000 0.250000 0.000000
-0.075000 0.275000 0.000000
-0.075000 0.300000 0.000000
-0.075000 0.325000 0.000000
-0.075000 0.350000 0.000000
-0.075000 0.375000 0.000000
-0.075000 0.400000 0.000000
-0.075000 0.425000 0.000000
-0.075000 0.450000 0.000000
-0.075000 0.475000 0.000000
-0.075000 0.500000 0.000000
-0.075000 0.525000 0.000000
-0.075000 0.550000 0.000000
-0.075000 0.575000 0.000000
-0.075000 0.600000 0.000000
-0.050000 -0.075000 0.000000
-0.050000 -0.050000 0.000000
-0.050000 -0.025000 0.000000
-0.050000 0.000000 0.000000
-0.050000 0.025000 0.000000
-0.050000 0.050000 0.000000
-0.050000 0.075000 0.000000
-0.050000 0.100000 0.000000
-0.050000 0.125000 0.000000
-0.050000 0.150000 0.000000
-0.050000 0.175000 0.000000
-0.050000 0.200000 0.000000
-0.050000 0.225000 0.000000
-0.050000 0.250000 0.000000
-0.050000 0.275000 0.000000
-0.050000 0.300000 0.000000
-0.050000 0.325000 0.000000
-0.050000 0.350000 0.000000
-0.050000 0.375000 0.000000
-0.050000 0.400000 0.000000
-0.050000 0.425000 0.000000
-0.050000 0.450000 0.000000
-0.050000 0.475000 0.000000
-0.050000 0.500000 0.000000
-0.050000 0.525000 0.000000
-0.050000 0.550000 0.000000
-0.050000 0.575000 0.000000
-0.050000 0.600000 0.000000
-0.025000 -0.075000 0.000000
-0.025000 -0.050000 0.000000
-0.025000 -0.025000 0.000000
-0.025000 0.000000 0.000000
-0.025000 0.025000 0.000000
-0.025000 0.050000 0.000000
-0.025000 0.075000 0.000000
-0.025000 0.100000 0.000000
-0.025000 0.125000 0.000000
-0.025000 0.150000 0.000000
-0.025000 0.175000 0.000000
-0.025000 0.200000 0.000000
-0.025000 0.225000 0.000000
-0.025000 0.250000 0.000000
-0.025000 0.275000 0.000000
-0.025000 0.300000 0.000000
-0.025000 0.325000 0.000000
-0.025000 0.350000 0.000000
-0.025000 0.375000 0.000000
-0.025000 0.400000 0.000000
-0.025000 0.425000 0.000000
-0.025000 0.450000 0.000000
-0.025000 0.475000 0.000000
-0.025000 0.500000 0.000000
-0.025000 0.525000 0.000000
-0.025000 0.550000 0.000000
-0.025000 0.575000 0.000000
-0.025000 0.600000 0.000000
0.000000 -0.075000 0.000000
0.000000 -0.050000 0.000000
0.000000 -0.025000 0.000000
0.000000 0.000000 0.000000
0.000000 0.025000 0.000000
0.000000 0.050000 0.000000
0.000000 0.075000 0.000000
0.000000 0.100000 0.000000
0.000000 0.125000 0.000000
0.000000 0.150000 0.000000
0.000000 0.175000 0.000000
0.000000 0.200000 0.000000
0.000000 0.225000 0.000000
0.000000 0.250000 0.000000
0.000000 0.275000 0.000000
0.000000 0.300000 0.000000
0.000000 0.325000 0.000000
0.000000 0.350000 0.000000
0.000000 0.375000 0.000000
0.000000 0.400000 0.000000
0.000000 0.425000 0.000000
0.000000 0.450000 0.000000
0.000000 0.475000 0.000000
0.000000 0.500000 0.000000
0.000000 0.525000 0.000000
0.000000 0.550000 0.000000
0.000000 0.575000 0.000000
0.000000 0.600000 0.000000
0.025000 -0.075000 0.000000
0.025000 -0.050000 0.000000
0.025000 -0.025000 0.000000
0.025000 0.000000 0.000000
-82.285383 0.600000 0.000000
7.004467 -11.451785 0.000000
-2.259767 -3.681322 0.000000
1.688987 -3.612243 0.000000
0.120887 0.026040 0.000000
-4767843.139881 0.600000 0.000000
1.038408 -6.924543 0.000000
2.857768 -4.908074 0.000000
-4.436621 -0.425870 0.000000
1.488165 -10.751630 0.000000
53.752991 -185.238009 0.000000
3.618862 -23.421857 0.000000
4644.006702 0.600000 0.000000
-1781.938924 0.600000 0.000000
0.584414 0.600000 0.000000
-27.420735 -52.135528 0.000000
-7.889610 -7.208042 0.000000
67.690182 -93.830252 0.000000
5.920277 -6.079933 0.000000
-102.943385 0.600000 0.000000
28.963055 -61.156551 0.000000
-70.369478 0.600000 0.000000
-166.998852 0.600000 0.000000
5481272.157812 0.600000 0.000000
1.065000 0.625000 0.000000
1.065000 0.650000 0.000000
1.065000 0.675000 0.000000
0.050000 -0.075000 0.000000
0.050000 -0.050000 0.000000
0.050000 -0.025000 0.000000
0.050000 0.000000 0.000000
-8.707363 0.580073 0.000000
-7.038773 -1.661376 0.000000
92.929984 0.600000 0.000000
2.437825 0.600000 0.000000
306.246656 0.600000 0.000000
-1.816880 -1.147660 0.000000
-2.001123 -3.657773 0.000000
-3.234365 0.530680 0.000000
-1455.068030 -2709.591479 0.000000
1413.407193 0.600000 0.000000
0.658808 -7.768683 0.000000
5.975880 -5.024954 0.000000
-18.179635 -6.587007 0.000000
7.300395 0.600000 0.000000
1127.074879 0.600000 0.000000
-68.978645 0.600000 0.000000
-8.814228 -3.829649 0.000000
-18.928077 0.600000 0.000000
122.072698 0.600000 0.000000
-18.091238 -23.513220 0.000000
85.841182 0.600000 0.000000
1769.336767 -368.419949 0.000000
18.608193 -75.518095 0.000000
197.027465 0.600000 0.000000
1.090000 0.625000 0.000000
1.090000 0.650000 0.000000
1.090000 0.675000 0.000000
0.075000 -0.075000 0.000000
0.075000 -0.050000 0.000000
0.075000 -0.025000 0.000000
0.075000 0.000000 0.000000
-5.796807 -5.700332 0.000000
1303.262994 0.600000 0.000000
1.398406 0.114439 0.000000
-232.267649 0.600000 0.000000
-4.681873 -3.065045 0.000000
7.932998 0.600000 0.000000
2.738941 -11.017664 0.000000
332.926541 0.600000 0.000000
66.551145 0.600000 0.000000
3.031852 -30.685029 0.000000
10.972599 -10.319878 0.000000
-114.585158 0.600000 0.000000
-51.186466 0.600000 0.000000
83.390759 -54.656003 0.000000
54.898988 0.600000 0.000000
2.533491 -0.019608 0.000000
311.086108 -123.517399 0.000000
0.246055 0.341396 0.000000
22.053294 -16.864554 0.000000
5.469735 -7.116555 0.000000
439.407887 0.600000 0.000000
-8.130805 -21.786105 0.000000
-619.143663 0.600000 0.000000
-131.774634 0.600000 0.000000
1.115000 0.625000 0.000000
1.115000 0.650000 0.000000
1.115000 0.675000 0.000000
0.100000 -0.075000 0.000000
0.100000 -0.050000 0.000000
0.100000 -0.025000 0.000000
0.100000 0.000000 0.000000
0.370651 0.600000 0.000000
6240356.702940 0.600000 0.000000
-72.126057 -68.368247 0.000000
5566.829574 0.600000 0.000000
-652.234879 0.600000 0.000000
-10.536254 0.600000 0.000000
-11594.461714 0.600000 0.000000
10.919668 0.201781 0.000000
1.868260 -2.148526 0.000000
7.260918 -2.149589 0.000000
-2.484849 -4.229162 0.000000
-192.283120 0.600000 0.000000
-3.806882 0.600000 0.000000
22.773336 -4.898560 0.000000
-11.430795 0.600000 0.000000
-12.369305 -10.411823 0.000000
0.366682 0.120356 0.000000
-8.950053 0.600000 0.000000
5.730089 -2.333346 0.000000
1.262970 0.600000 0.000000
0.708164 0.142910 0.000000
9.458419 -13.242722 0.000000
212.348245 0.600000 0.000000
-2738.732464 0.600000 0.000000
1.140000 0.625000 0.000000
1.140000 0.650000 0.000000
1.140000 0.675000 0.000000
0.125000 -0.075000 0.000000
0.125000 -0.050000 0.000000
0.125000 -0.025000 0.000000
0.125000 0.000000 0.000000
-53.376129 0.600000 0.000000
183.599867 0.600000 0.000000
-144.672073 0.600000 0.000000
-42.032373 0.600000 0.000000
0.935461 -3.687608 0.000000
13.596043 -9.229310 0.000000
-77.737162 0.600000 0.000000
-1.175138 -8.290932 0.000000
4404.146501 0.600000 0.000000
-32.292073 -106.433605 0.000000
-35.799547 0.600000 0.000000
-12.532427 0.600000 0.000000
-0.168054 0.548388 0.000000
-23.020746 0.302280 0.000000
-38.017982 0.600000 0.000000
-44.050271 0.600000 0.000000
596.633046 0.600000 0.000000
122.618977 0.600000 0.000000
-2.647262 -9.214825 0.000000
-22.062278 -13.184486 0.000000
-13.383069 0.510218 0.000000
200.799561 0.600000 0.000000
67895.947936 0.600000 0.000000
-16904.372027 0.600000 0.000000
1.165000 0.625000 0.000000
1.165000 0.650000 0.000000
1.165000 0.675000 0.000000
0.150000 -0.075000 0.000000
0.150000 -0.050000 0.000000
0.150000 -0.025000 0.000000
0.150000 0.000000 0.000000
-6.886591 0.373211 0.000000
-128.231504 0.600000 0.000000
-0.089064 -4.257901 0.000000
-15.217421 -9.163556 0.000000
-265.883099 0.600000 0.000000
1.035194 0.393748 0.000000
22.255785 0.600000 0.000000
0.789028 -1.954702 0.000000
6.244208 0.600000 0.000000
-356.277267 0.600000 0.000000
-50.682501 -22.436974 0.000000
2.671008 -5.498484 0.000000
-7.076195 -6.368895 0.000000
-2743.558369 0.600000 0.000000
-786.851729 0.600000 0.000000
-16.038102 -6.023228 0.000000
-9.274838 0.600000 0.000000
1.171150 -440.323604 0.000000
818.573436 0.600000 0.000000
540.512655 0.600000 0.000000
-766.085373 0.600000 0.000000
14.899866 -34.320751 0.000000
357.286664 0.600000 0.000000
140.808786 0.600000 0.000000
1.190000 0.625000 0.000000
1.190000 0.650000 0.000000
1.190000 0.675000 0.000000
0.175000 -0.075000 0.000000
0.175000 -0.050000 0.000000
0.175000 -0.025000 0.000000
0.175000 0.000000 0.000000
-30.146382 0.600000 0.000000
-277.278643 0.600000 0.000000
1.070010 -3.499622 0.000000
5991.212495 0.600000 0.000000
71.060697 0.600000 0.000000
-17.242311 -13.027246 0.000000
2.118794 -16.318897 0.000000
20.966212 0.600000 0.000000
-153.491930 0.600000 0.000000
-96.414656 -49.138222 0.000000
1304.342949 0.600000 0.000000
-129.910001 0.600000 0.000000
325.613464 0.600000 0.000000
519.664311 0.600000 0.000000
175.462872 -83.845720 0.000000
-34.390830 0.600000 0.000000
-483.795041 -1079.873149 0.000000
376.754187 0.600000 0.000000
2183206.142244 0.600000 0.000000
76.736104 0.600000 0.000000
857.616185 0.600000 0.000000
-68.594377 -31.065727 0.000000
-10.059304 -62.482605 0.000000
189.438419 0.600000 0.000000
1.215000 0.625000 0.000000
1.215000 0.650000 0.000000
1.215000 0.675000 0.000000
0.200000 -0.075000 0.000000
0.200000 -0.050000 0.000000
0.200000 -0.025000 0.000000
0.200000 0.000000 0.000000
-53.339674 0.600000 0.000000
-115.467669 0.600000 0.000000
55.972950 -2.548468 0.000000
2.925468 -60.658647 0.000000
-148.793295 0.600000 0.000000
-6.313105 -3.683684 0.000000
1479.921662 0.600000 0.000000
[...]
<PointData>
<DataArray NumberOfComponents='1' type='Int32' Name='ParticleType' format='ascii'>
3
3
3
3
3
3
3
3
3
3
3
3
3
3
3
3
3
3
3
3
3
3
3
3
3
3
3
3
3
3
3
3
3
3
3
3
3
3
3
3
3
3
3
3
3
3
3
3
3
3
3
3
3
3
3
3
3
3
2
2
2
2
2
2
2
2
2
2
2
2
2
2
2
2
2
2
2
2
2
2
2
2
2
2
3
3
2
2
2
2
2
2
2
2
2
2
2
2
2
2
2
2
2
2
2
2
2
2
2
2
2
2
3
3
2
2
0
0
0
0
0
0
0
0
0
0
0
0
0
0
0
0
0
0
0
0
0
0
0
0
1
1
1
3
3
2
2
0
0
0
0
0
0
0
0
0
0
0
0
0
0
0
0
0
0
0
0
0
0
0
0
1
1
1
3
3
2
2
0
0
0
0
0
0
0
0
0
0
0
0
0
0
0
0
0
0
0
0
0
0
0
0
1
1
1
3
3
2
2
0
0
0
0
0
0
0
0
0
0
0
0
0
0
0
0
0
0
0
0
0
0
0
0
1
1
1
3
3
2
2
0
0
0
0
0
0
0
0
0
0
0
0
0
0
0
0
0
0
0
0
0
0
0
0
1
1
1
3
3
2
2
0
0
0
0
0
0
0
0
0
0
0
0
0
0
0
0
0
0
0
0
0
0
0
0
1
1
1
3
3
2
2
0
0
0
0
0
0
0
0
0
0
0
0
0
0
0
0
0
0
0
0
0
0
0
0
1
1
1
3
3
2
2
0
0
0
0
0
0
0
0
0
0
0
0
0
0
0
0
0
0
0
0
0
0
0
0
1
1
1
3
3
2
2
0
0
0
0
0
0
0
0
0
0
0
0
0
0
0
0
0
0
0
0
0
0
0
0
1
1
1
3
3
2
2
0
0
0
0
0
0
0
0
0
0
0
0
0
0
0
0
0
0
0
0
0
0
0
0
1
1
1
3
3
2
2
0
0
0
0
0
0
0
0
0
0
0
0
0
0
0
0
0
0
0
0
0
0
0
0
1
1
1
3
3
2
2
0
0
0
0
0
0
0
0
0
0
0
0
0
0
0
0
0
0
0
0
0
0
0
0
1
1
1
3
3
2
2
0
0
0
0
0
0
0
0
0
0
0
0
0
0
0
0
0
0
0
0
0
0
0
0
1
1
1
3
3
2
2
0
0
0
0
0
0
0
0
0
0
0
0
0
0
0
0
0
0
0
0
0
0
0
0
1
1
1
3
3
2
2
0
0
0
0
0
0
0
0
0
0
0
0
0
0
0
0
0
0
0
0
0
0
0
0
1
1
1
3
3
2
2
0
0
0
0
0
0
0
0
0
0
0
0
0
0
0
0
0
0
0
0
0
0
0
0
1
1
1
3
3
2
2
0
0
0
0
0
0
0
0
0
0
0
0
0
0
0
0
0
0
0
0
0
0
0
0
3
3
2
2
0
0
0
0
0
0
0
0
0
0
0
0
0
0
0
0
0
0
0
0
0
0
0
0
3
3
2
2
0
0
0
0
0
0
0
0
0
0
0
0
0
0
0
0
0
0
0
0
0
0
0
0
3
3
2
2
0
0
0
0
0
0
0
0
0
0
0
0
0
0
0
0
0
0
0
0
0
0
0
0
3
3
2
2
0
0
0
0
0
0
0
0
0
0
0
0
0
0
0
0
0
0
0
0
0
0
0
0
3
3
2
2
0
0
0
0
0
0
0
0
0
0
0
0
0
0
0
0
0
0
0
0
0
0
0
0
3
3
2
2
0
0
0
0
0
0
0
0
0
0
0
0
0
0
0
0
0
0
0
0
0
0
0
0
3
3
2
2
0
0
0
0
0
0
0
0
0
0
0
0
0
0
0
0
0
0
0
0
0
0
0
0
3
3
2
2
0
0
0
0
0
0
0
0
0
0
0
0
0
0
0
0
0
0
0
0
0
0
0
0
3
3
2
2
0
0
0
0
0
0
0
0
0
0
0
0
0
0
0
0
0
0
0
0
0
0
0
0
3
3
2
2
0
0
0
0
0
0
0
0
0
0
0
0
0
0
0
0
0
0
0
0
0
0
0
0
3
3
2
2
0
0
0
0
0
0
0
0
0
0
0
0
0
0
0
0
0
0
0
0
0
0
0
0
3
3
2
2
0
0
0
0
0
0
0
0
0
0
0
0
0
0
0
0
0
0
0
0
0
0
0
0
3
3
2
2
0
0
0
0
0
0
0
0
0
0
0
0
0
0
0
0
0
0
0
0
0
0
0
0
3
3
2
2
0
0
0
0
0
0
0
0
0
0
0
0
0
0
0
0
0
0
0
0
0
0
0
0
3
3
2
2
0
0
0
0
0
0
0
0
0
0
0
0
0
0
0
0
0
0
0
0
0
0
0
0
3
3
2
2
0
0
0
0
0
0
0
0
0
0
0
0
0
0
0
0
0
0
0
0
0
0
0
0
3
3
2
2
0
0
0
0
0
0
0
0
0
0
0
0
0
0
0
0
0
0
0
0
0
0
0
0
3
3
2
2
0
0
0
0
0
0
0
0
0
0
0
0
0
0
0
0
0
0
0
0
0
0
0
0
3
3
2
2
0
0
0
0
0
0
0
0
0
0
0
0
0
0
0
0
0
0
0
0
0
0
0
0
3
3
2
2
0
0
0
0
0
0
0
0
0
0
0
0
0
0
0
0
0
0
0
0
0
0
0
0
3
3
2
2
0
0
0
0
0
0
0
0
0
0
0
0
0
0
0
0
0
0
0
0
0
0
0
0
3
3
2
2
0
0
0
0
0
0
0
0
0
0
0
0
0
0
0
0
0
0
0
0
0
0
0
0
3
3
2
2
0
0
0
0
0
0
0
0
0
0
0
0
0
0
0
0
0
0
0
0
0
0
0
0
3
3
2
2
0
0
0
0
0
0
0
0
0
0
0
0
0
0
0
0
0
0
0
0
0
0
0
0
3
3
2
2
0
0
0
0
0
0
0
0
0
0
0
0
0
0
0
0
0
0
0
0
0
0
0
0
3
3
2
2
0
0
0
0
0
0
0
0
0
0
0
0
0
0
0
0
0
0
0
0
0
0
0
0
3
3
2
2
0
0
0
0
0
0
0
0
0
0
0
0
0
0
0
0
0
0
0
0
0
0
0
0
3
3
2
2
0
0
0
0
0
0
0
0
0
0
0
0
0
0
0
0
0
0
0
0
0
0
0
0
3
3
2
2
0
0
0
0
0
0
0
0
0
0
0
0
0
0
0
0
0
0
0
0
0
0
0
0
3
3
2
2
0
0
0
0
0
0
0
0
0
0
0
0
0
0
0
0
0
0
0
0
0
0
0
0
3
3
2
2
0
0
0
0
0
0
0
0
0
0
0
0
0
0
0
0
0
0
0
0
0
0
0
0
3
3
2
2
0
0
0
0
0
0
0
0
0
0
0
0
0
0
0
0
0
0
0
0
0
0
0
0
3
3
2
2
0
0
0
0
0
0
0
0
0
0
0
0
0
0
0
0
0
0
0
0
0
0
0
0
3
3
2
2
0
0
0
0
0
0
0
0
0
0
0
0
0
0
0
0
0
0
0
0
0
0
0
0
3
3
2
2
0
0
0
0
0
0
0
0
0
0
0
0
0
0
0
0
0
0
0
0
0
0
0
0
3
3
2
2
0
0
0
0
0
0
0
0
0
0
0
0
0
0
0
0
0
0
0
0
0
0
0
0
3
3
2
2
0
0
0
0
0
0
0
0
0
0
0
0
0
0
0
0
0
0
0
0
0
0
0
0
3
3
2
2
0
0
0
0
0
0
0
0
0
0
0
0
0
0
0
0
0
0
0
0
0
0
0
0
3
3
2
2
0
0
0
0
0
0
0
0
0
0
0
0
0
0
0
0
0
0
0
0
0
0
0
0
3
3
2
2
0
0
0
0
0
0
0
0
0
0
0
0
0
0
0
0
0
0
0
0
0
0
0
0
3
3
2
2
0
0
0
0
0
0
0
0
0
0
0
0
0
0
0
0
0
0
0
0
0
0
0
0
3
3
2
2
0
0
0
0
0
0
0
0
0
0
0
0
0
0
0
0
0
0
0
0
0
0
0
0
3
3
2
2
0
0
0
0
0
0
0
0
0
0
0
0
0
0
0
0
0
0
0
0
0
0
0
0
3
3
2
2
0
0
0
0
0
0
0
0
0
0
0
0
0
0
0
0
0
0
0
0
0
0
0
0
3
3
2
2
0
0
0
0
0
0
0
0
0
0
0
0
0
0
0
0
0
0
0
0
0
0
0
0
3
3
2
2
0
0
0
0
0
0
0
0
0
0
0
0
0
0
0
0
0
0
0
0
0
0
0
0
3
3
2
2
0
0
0
0
0
0
0
0
0
0
0
0
0
0
0
0
0
0
0
0
0
0
0
0
3
3
2
2
0
0
0
0
0
0
0
0
0
0
0
0
0
0
0
0
0
0
0
0
0
0
0
0
3
3
2
2
0
0
0
0
0
0
0
0
0
0
0
0
0
0
0
0
0
0
0
0
0
0
0
0
3
3
2
2
0
0
0
0
0
0
0
0
0
0
0
0
0
0
0
0
0
0
0
0
0
0
0
0
3
3
2
2
0
0
0
0
0
0
0
0
0
0
0
0
0
0
0
0
0
0
0
0
0
0
0
0
3
3
2
2
0
0
0
0
0
0
0
0
0
0
0
0
0
0
0
0
0
0
0
0
0
0
0
0
3
3
2
2
0
0
0
0
0
0
0
0
0
0
0
0
0
0
0
0
0
0
0
0
0
0
0
0
3
3
2
2
0
0
0
0
0
0
0
0
0
0
0
0
0
0
0
0
0
0
0
0
0
0
0
0
3
3
2
2
0
0
0
0
0
0
0
0
0
0
0
0
0
0
0
0
0
0
0
0
0
0
0
0
3
3
2
2
0
0
0
0
0
0
0
0
0
0
0
0
0
0
0
0
0
0
0
0
0
0
0
0
3
3
2
2
0
0
0
0
0
0
0
0
0
0
0
0
0
0
0
0
0
0
0
0
0
0
0
0
3
3
2
2
0
0
0
0
0
0
0
0
0
0
0
0
0
0
0
0
0
0
0
0
0
0
0
0
3
3
2
2
0
0
0
0
0
0
0
0
0
0
0
0
0
0
0
0
0
0
0
0
0
0
0
0
3
3
2
2
0
0
0
0
0
0
0
0
0
0
0
0
0
0
0
0
0
0
0
0
0
0
0
0
3
3
2
2
0
0
0
0
0
0
0
0
0
0
0
0
0
0
0
0
0
0
0
0
0
0
0
0
3
3
2
2
0
0
0
0
0
0
0
0
0
0
0
0
0
0
0
0
0
0
0
0
0
0
0
0
3
3
2
2
0
0
0
0
0
0
0
0
0
0
0
0
0
0
0
0
0
0
0
0
0
0
0
0
3
3
2
2
2
2
2
2
2
2
2
2
2
2
2
2
2
2
2
2
2
2
2
2
2
2
2
2
3
3
2
2
2
2
2
2
2
2
2
2
2
2
2
2
2
2
2
2
2
2
2
2
2
2
2
2
3
3
3
3
3
3
3
3
3
3
3
3
3
3
3
3
3
3
3
3
3
3
3
3
3
3
3
3
3
3
3
3
3
3
3
3
3
3
3
3
3
3
3
3
3
3
3
3
3
3
3
3
3
3
3
3
</DataArray>
<DataArray NumberOfComponents='1' type='Float32' Name='Velocity' format='ascii'>
0.000000
0.000000
0.000000
0.000000
0.000000
0.000000
0.000000
0.000000
0.000000
0.000000
0.000000
0.000000
0.000000
0.000000
0.000000
0.000000
0.000000
0.000000
0.000000
0.000000
0.000000
0.000000
0.000000
0.000000
0.000000
0.000000
0.000000
0.000000
0.000000
0.000000
0.000000
0.000000
0.000000
0.000000
0.000000
0.000000
0.000000
0.000000
0.000000
0.000000
0.000000
0.000000
0.000000
0.000000
0.000000
0.000000
0.000000
0.000000
0.000000
0.000000
0.000000
0.000000
0.000000
0.000000
0.000000
0.000000
0.000000
0.000000
0.000000
0.000000
0.000000
0.000000
0.000000
0.000000
0.000000
0.000000
0.000000
0.000000
0.000000
0.000000
0.000000
0.000000
0.000000
0.000000
0.000000
0.000000
0.000000
0.000000
0.000000
0.000000
0.000000
0.000000
0.000000
0.000000
0.000000
0.000000
0.000000
0.000000
0.000000
0.000000
0.000000
0.000000
0.000000
0.000000
0.000000
0.000000
0.000000
0.000000
0.000000
0.000000
0.000000
0.000000
0.000000
0.000000
0.000000
0.000000
0.000000
0.000000
0.000000
0.000000
0.000000
0.000000
0.000000
0.000000
0.000000
0.000000
4401.172852
208.586472
68.937073
62.903740
1.504541
95356864.000000
111.262230
93.103401
68.440353
522.051636
2971.847656
364.467590
76158.250000
28430.195312
235.974655
898.660522
166.974609
1786.019287
165.242218
1675.812622
1002.806641
1062.907471
2536.448730
83049576.000000
1.000000
1.000000
1.000000
0.000000
0.000000
0.000000
0.000000
136.741119
129.424927
1797.940552
176.590866
5407.775879
41.170074
67.919571
50.178513
47320.691406
49286.453125
124.375702
151.371475
300.620911
162.438583
23500.089844
1174.410889
147.186554
394.247162
2117.696777
486.312164
1467.743164
28239.894531
1149.525513
2972.123535
1.000000
1.000000
1.000000
0.000000
0.000000
0.000000
0.000000
128.967789
48682.972656
22.693472
4535.205078
87.819565
274.588257
238.114502
5149.207520
1053.981812
642.429688
238.952652
2014.167114
1004.799805
1560.390015
959.121399
33.162983
5671.464355
3.704240
455.920990
147.738724
6866.586914
366.264862
9610.186523
2141.252686
1.000000
1.000000
1.000000
0.000000
0.000000
0.000000
0.000000
8.744354
164219952.000000
1578.710205
135656.203125
10448.538086
543.072327
227129.031250
175.595642
46.851665
122.662643
83.192146
3403.658691
88.663956
366.986176
222.542267
273.834625
1.089159
452.638397
127.318512
125.230659
14.404142
262.391266
3320.653076
41519.289062
1.000000
1.000000
1.000000
0.000000
0.000000
0.000000
0.000000
1062.506226
3411.784912
2796.262939
907.866516
67.809616
248.850922
1546.145996
138.250519
81647.492188
1769.187988
885.109680
315.165833
35.097496
480.209076
619.532288
712.721619
10194.134766
2119.631592
169.730850
414.434296
196.203247
3741.525635
998466.625000
324624.781250
1.000000
1.000000
1.000000
0.000000
0.000000
0.000000
0.000000
109.847832
2240.689697
67.714958
295.683014
7866.760254
11.365085
453.000305
38.536591
219.626114
6514.522949
868.498657
96.373093
181.564362
42874.500000
12904.242188
268.816071
347.775940
6998.500000
13420.525391
9315.308594
12991.107422
555.914307
5252.424805
2126.416748
1.000000
1.000000
1.000000
0.000000
0.000000
0.000000
0.000000
635.785706
6835.217285
59.031693
107051.000000
1225.934937
335.834534
258.724792
492.010468
2508.024414
1694.721191
31802.394531
3953.631104
5386.976074
8406.714844
3476.903564
880.470459
17935.230469
6927.464355
37641568.000000
1225.043579
12991.808594
1128.581177
926.141174
3024.840576
1.000000
1.000000
1.000000
0.000000
0.000000
0.000000
0.000000
890.243408
2547.217041
1055.280884
935.536255
2479.786133
115.633621
27921.142578
287566.156250
1581.122803
1611.430420
96.494377
124.220757
317.683228
151.461014
1299.786987
15052.358398
1064.440918
1784.470947
2132.476807
4261.550781
17893.679688
2262.997070
2017.768311
2421.534912
1.000000
1.000000
1.000000
0.000000
0.000000
0.000000
0.000000
106.287872
10989698.000000
2048.694824
79.427048
755.532593
190.809067
20260.888672
484.298248
2112.934082
362.298859
6485.924316
388.411255
8532.726562
976.813660
152.763474
0.949359
174155.921875
198.515182
262.277954
68543.257812
1487.432983
26142.718750
91.055313
191028.375000
1.000000
1.000000
1.000000
0.000000
0.000000
0.000000
0.000000
43348.957031
291.761688
127.307487
9029.447266
16063.675781
668.294861
635.949646
12968.502930
190196.296875
584.789795
161.519730
938.675781
1674.192505
198.283386
91.557678
53.987625
266763.218750
153.965790
349.519379
289706.187500
493.842102
1085.356079
95400.992188
95085.890625
1.000000
1.000000
1.000000
0.000000
0.000000
0.000000
0.000000
787.197205
129.769196
1758.908813
37.980774
1826.243408
50.416828
88.925652
157.329819
243.359970
163.062454
857.244019
2961.387939
2174.498291
666.775269
304234.031250
60897.406250
109189544.000000
855.326904
43347.976562
5692.895508
123.755081
9136.545898
3759.839111
3982.849854
1.000000
1.000000
1.000000
0.000000
0.000000
0.000000
0.000000
289.228455
1010911488.000000
272.276825
313831.718750
43311.808594
41954936.000000
8036.613770
9932.434570
326.773193
420.569489
1293.142578
11015329.000000
861.631104
7859819520.000000
26.574493
57765.035156
117242.046875
1863.535767
373.138733
17.506367
7545.505371
6939.795898
161842336.000000
7708.007812
1.000000
1.000000
1.000000
0.000000
0.000000
0.000000
0.000000
820.213684
296.500488
99.058533
88.590096
102.462929
10577.998047
146.050293
162.959274
138.255280
2392.103516
6692.506836
1620.171509
343.980865
58.894428
2914.796387
376.878815
242.021133
17.576393
424.946228
1686.800537
672.261475
68.535065
39987.773438
3991.795654
1.000000
1.000000
1.000000
0.000000
0.000000
0.000000
0.000000
80.808525
1941.665771
181.273361
32.689903
235.440414
331.266632
2289.524414
7072.097656
914.827881
1092.080811
20031.251953
70.806763
399.950439
251.199799
244.131409
7657.575195
49153.628906
261.851685
90296.835938
274.490295
6454.461426
1098.885010
4566.392578
998081.687500
1.000000
1.000000
1.000000
0.000000
0.000000
0.000000
0.000000
84.243126
81898.601562
120.926254
20.598978
139.617279
594.245850
23.992464
1772.702759
41956152.000000
79.609955
837.529419
1784.180542
339448.062500
24146.246094
482.305267
707.601440
1120.254883
221.640839
1296.623657
48.594624
1561.012085
82941672.000000
956.535950
15229.274414
1.000000
1.000000
1.000000
0.000000
0.000000
0.000000
0.000000
1402.036865
44920.703125
317.968475
281.895966
405.798767
909.063416
140.254990
1764.731323
215.347824
2619.661621
17711.324219
446.300262
2870.199463
663.691345
8.348659
48621.335938
94.015694
12590.309570
3792.591064
1771.419678
125.487915
1776.206055
1127.552246
15809.731445
1.000000
1.000000
1.000000
0.000000
0.000000
0.000000
0.000000
238.680206
1096.401245
195.952774
511.460327
25509.533203
101.754898
1655.050537
2046.020996
4755.648438
122.921761
612.679565
4968.295898
3887.511963
180.913406
276.367157
128.472092
361.809692
314.222595
159659.765625
188.063171
5939.165527
68.220520
98.603020
4415.248535
0.000000
0.000000
0.000000
0.000000
56.697815
39281.597656
2574.020996
149.680206
2674.988037
4871.317383
2316.148193
10128.725586
2525.881592
21141.142578
6729.350098
7730.261719
193.382736
98441824.000000
1950.375732
495978.718750
6310.397949
38.958286
416.861969
552.748352
96046.179688
27242.652344
143.845215
1062.678833
0.000000
0.000000
0.000000
0.000000
1911.816284
743.829468
130.771179
373.882324
295.483093
5025.199707
118.032082
60.043880
150.978043
7906.494141
1227.804932
3710.622803
98599.781250
230.014587
128.512543
156.674744
285.592377
527.892334
4829300.500000
19885750.000000
1329.137207
2053.815186
608.082520
15961.997070
0.000000
0.000000
0.000000
0.000000
49.915707
1296.221436
474.485840
3207.458984
3087.507324
286.810638
13265.656250
466.005615
123.206123
288258.031250
45.055355
1294.423462
522.813721
43177.687500
897.682617
1041.279175
1930.400269
14036.111328
196.039352
49.479637
2958.505127
692.449463
1213.731445
4774220.000000
0.000000
0.000000
0.000000
0.000000
1676.398315
1330.754272
157.376343
4118.925781
43065.179688
674.675476
404.362427
351.219574
681.719177
301.114685
1742.113037
268.588196
592.786743
163.208313
117.825912
117.472542
5530499.500000
209.535080
1001.497009
346.840820
4797.788574
1860.164551
1829.248779
2164.734863
0.000000
0.000000
0.000000
0.000000
123.087860
728.774353
52.093666
1666460.000000
23588.013672
278.267731
60.043076
69.768272
1763.425781
6722.555176
203547328.000000
134.187790
2548.281982
811.416077
272.932922
111.834145
734.678223
337.981140
185.694061
324.544769
1252.075684
307293.531250
341.872284
1176.956787
0.000000
0.000000
0.000000
0.000000
422.695190
1327.482544
262.850281
1452.742676
119.007309
2300.697998
331.868042
39930.316406
93.351967
30677.171875
1209.695068
223.854446
3254.296875
59.356613
3205.853027
102359.648438
1628.577759
151.206268
3975.294189
248.616867
38518.199219
117.301971
517.148010
2748.710693
0.000000
0.000000
0.000000
0.000000
65.309708
2.731609
9624.416016
367294.187500
349.948975
207.304504
57535692.000000
21699.605469
792.486755
885.873535
6320.466309
1935943.625000
137.047241
97.079063
1905.161377
840.594910
1157.693115
1433.863037
4917.842285
1291.292847
203547792.000000
27107.343750
4328.608887
9517.484375
0.000000
0.000000
0.000000
0.000000
139.789459
596.629639
283.587982
10.407746
139930.890625
81.378738
13827.875977
1192.552979
400.636383
335.627075
795.596008
1854.785645
16375.468750
28250.353516
1557.030884
185.515259
253.171295
305.799316
1240.869629
8.142878
15372175.000000
108.076057
415.767578
1056.202637
0.000000
0.000000
0.000000
0.000000
616.767761
43.740501
3190.303467
904.604004
2167.954102
291.195892
709960.875000
348.740753
445.382721
9597.248047
671.474243
126.941574
40.868866
46.904530
439.660706
6.440248
1014.042725
849.313171
3540.912598
300.429779
3785.766602
12455.862305
5500.667969
4545.315430
0.000000
0.000000
0.000000
0.000000
1065.976440
110.191544
10160.072266
21743.785156
14.989244
79958.921875
81155.101562
140148.156250
2028.654907
90.898529
106.188454
324.496857
1270.241455
12.047603
878.908447
686.725403
65.358353
58.248981
950.635742
1054.436523
2068.520508
990.955322
154.988129
1799.555664
0.000000
0.000000
0.000000
0.000000
16074.111328
69402.585938
858.281921
68.490486
205149.765625
798.577881
160.545685
1550.184082
1243.249268
85.008057
24622.843750
22169.095703
253.988678
10534.183594
366.030060
285.010651
1437.253418
1408.575073
9.621328
27196.619141
234.309799
2188.352295
86.316681
8849.969727
0.000000
0.000000
0.000000
0.000000
16159.384766
112181.335938
700.047302
1519.376099
122.833817
94768.734375
303.374359
3364.938965
3157.557861
498.493927
450.064911
445.971710
1065.939331
5455.564941
12373.696289
82307.078125
81594.234375
6.017205
577.004456
960.981934
163329.281250
107688.375000
1084.146362
2094.019531
0.000000
0.000000
0.000000
0.000000
529.536804
72.363617
66.191635
81.900940
107776.695312
3882.217041
1705.566650
234.406342
735.443176
663460.062500
2112.894287
1523.974609
922.128967
23744.494141
48.366234
149.056046
99.829308
105.389000
171.675751
228.185120
222.744583
2275.217041
370.141876
1859.423950
0.000000
0.000000
0.000000
0.000000
12854.984375
58.215588
786193.125000
720.992920
258.034210
304.069336
155.154526
796.896118
6.788630
22493.763672
29818181648384.000000
493.705994
722.309204
868.596497
170.330429
811.626892
300.078369
138.016220
294.598663
63.220341
712.979797
32273.306641
7105.646484
6863.760254
0.000000
0.000000
0.000000
0.000000
1983.659058
11138.583008
1777.688843
152.225113
1582.121582
4642.795410
330.632904
12981.797852
19754.941406
342.521606
2985.982422
49007.941406
800.894226
248.275330
6126.158203
609.908813
1220.216187
540.319458
81.360130
3514.450439
90958.132812
375.598022
1805.567871
20957.486328
0.000000
0.000000
0.000000
0.000000
78.176872
65.678116
3365.202881
203.982162
19576.595703
1883.769409
1113.108521
477.532104
522.135071
121.450539
41.560410
68.674301
105.981331
1251777920.000000
3623.143066
152.213135
237.091125
202.751953
126.022888
39096.757812
274.111115
5787.488281
22676.941406
5687.695801
0.000000
0.000000
0.000000
0.000000
109266000.000000
9190.125977
1113.676758
90.559227
164.369980
1186.210083
48.242840
95356440.000000
1635.327393
16809.017578
1744.814453
142.408173
24.098171
82.625748
24338.191406
245.007034
4068.103760
828.300781
1144.362793
133.860077
299.645020
2315.872559
11944.708984
5083.812500
0.000000
0.000000
0.000000
0.000000
128181.062500
36.058475
215609.859375
542.742981
90.224731
16.901072
151.297668
386.351440
545.071716
13220.996094
46276.218750
185422.390625
1085.307739
29612.701172
1161.332031
2258.634766
6082527.000000
239.693726
577.688721
46.418343
14900.022461
371.369629
2758.488281
23664962.000000
0.000000
0.000000
0.000000
0.000000
190375.000000
101.754379
552.041382
224.336884
22318.789062
3955.016113
9132.334961
117335.429688
1663.461426
520.928162
69.984863
684.597534
36312.191406
158.991302
40.554569
169.325943
202056.750000
4896.347656
1318.420654
63.058414
1743.899536
447.594574
707.762146
3294.561768
0.000000
0.000000
0.000000
0.000000
66.958031
13.708204
19159504.000000
965.653992
128.187897
514.863037
257.433502
2776.559326
362.886169
15206.207031
342.183655
339.072296
2974.786133
281.682953
327.056305
113043.070312
1572.625366
3447.458008
2616.033203
3027.001221
901.236816
755.487488
39003.386719
11095.418945
0.000000
0.000000
0.000000
0.000000
56.712662
467.427856
483.421112
8088.198242
635.507385
794.658752
2773.455566
167.486145
15410.154297
163.914886
1703.817017
278.723267
112.926804
77766.078125
1183.554077
2774.981689
650.466492
304.395294
3432.006104
1633.118042
529.300049
174255.500000
449.252655
79955.406250
0.000000
0.000000
0.000000
0.000000
33.363190
118.612442
112.992470
810.213623
99.446899
206.009033
74.716156
49.135334
15372272.000000
124.115921
80961.054688
448975.000000
1671.812622
152.430161
283.140442
98099.492188
2749.875732
944355.062500
362.400177
126.188606
21625.080078
66.309464
131.619186
4929.021484
0.000000
0.000000
0.000000
0.000000
83570.070312
170.213196
2841.035645
2175.942383
1036.531738
173768.453125
72.847336
538.572510
664.629822
70.066910
205.614365
478.637329
1.405712
3971.614014
3340.564941
38.090214
255.315842
307.667725
214.630066
791.271729
694.707153
111.272881
203.609222
961.383484
0.000000
0.000000
0.000000
0.000000
106.833893
103.849907
170.051437
319320.968750
2212.253418
10.528255
217.150299
3245.340820
583.588867
6084.328613
12.021956
21588.812500
36.597557
426.252655
8697.601562
167.224487
28.521187
128166.570312
17501.121094
4530.363770
7180.445801
196817.296875
141.651260
7760.892090
0.000000
0.000000
0.000000
0.000000
333.131897
3297.487793
366.149750
89.342926
10511.034180
2669.330322
3063.193115
175.632996
68835.500000
165.061081
215246224.000000
4244.396484
870.173523
225.642319
97.748131
488973.312500
35.572189
112331.835938
2101.922363
113.221725
2608.582520
2067.374023
85.837563
1156.723022
0.000000
0.000000
0.000000
0.000000