<?xml version='1.0' encoding='UTF-8'?>
<VTKFile xmlns='VTK' byte_order='LittleEndian' version='0.1' type='UnstructuredGrid'>
<UnstructuredGrid>
<Piece NumberOfCells='2512' NumberOfPoints='2512'>
<Points>
<DataArray NumberOfComponents='3' type='Float32' Name='Position' format='ascii'>
-0.075000 -0.075000 0.000000
-0.075000 -0.050000 0.000000
-0.075000 -0.025000 0.000000
-0.075000 0.000000 0.000000
-0.075000 0.025000 0.000000
-0.075000 0.050000 0.000000
-0.075000 0.075000 0.000000
-0.075000 0.100000 0.000000
-0.075000 0.125000 0.000000
-0.075000 0.150000 0.000000
-0.075000 0.175000 0.000000
-0.075000 0.200000 0.000000
-0.075000 0.225000 0.000000
-0.075000 0.250000 0.000000
-0.075000 0.275000 0.000000
-0.075000 0.300000 0.000000
-0.075000 0.325000 0.000000
-0.075000 0.350000 0.000000
-0.075000 0.375000 0.000000
-0.075000 0.400000 0.000000
-0.075000 0.425000 0.000000
-0.075000 0.450000 0.000000
-0.075000 0.475000 0.000000
-0.075000 0.500000 0.000000
-0.075000 0.525000 0.000000
-0.075000 0.550000 0.000000
-0.075000 0.575000 0.000000
-0.075000 0.600000 0.000000
-0.050000 -0.075000 0.000000
-0.050000 -0.050000 0.000000
-0.050000 -0.025000 0.000000
-0.050000 0.000000 0.000000
-0.050000 0.025000 0.000000
-0.050000 0.050000 0.000000
-0.050000 0.075000 0.000000
-0.050000 0.100000 0.000000
-0.050000 0.125000 0.000000
-0.050000 0.150000 0.000000
-0.050000 0.175000 0.000000
-0.050000 0.200000 0.000000
-0.050000 0.225000 0.000000
-0.050000 0.250000 0.000000
-0.050000 0.275000 0.000000
-0.050000 0.300000 0.000000
-0.050000 0.325000 0.000000
-0.050000 0.350000 0.000000
-0.050000 0.375000 0.000000
-0.050000 0.400000 0.000000
-0.050000 0.425000 0.000000
-0.050000 0.450000 0.000000
-0.050000 0.475000 0.000000
-0.050000 0.500000 0.000000
-0.050000 0.525000 0.000000
-0.050000 0.550000 0.000000
-0.050000 0.575000 0.000000
-0.050000 0.600000 0.000000
-0.025000 -0.075000 0.000000
-0.025000 -0.050000 0.000000
-0.025000 -0.025000 0.000000
-0.025000 0.000000 0.000000
-0.025000 0.025000 0.000000
-0.025000 0.050000 0.000000
-0.025000 0.075000 0.000000
-0.025000 0.100000 0.000000
-0.025000 0.125000 0.000000
-0.025000 0.150000 0.000000
-0.025000 0.175000 0.000000
-0.025000 0.200000 0.000000
-0.025000 0.225000 0.000000
-0.025000 0.250000 0.000000
-0.025000 0.275000 0.000000
-0.025000 0.300000 0.000000
-0.025000 0.325000 0.000000
-0.025000 0.350000 0.000000
-0.025000 0.375000 0.000000
-0.025000 0.400000 0.000000
-0.025000 0.425000 0.000000
-0.025000 0.450000 0.000000
-0.025000 0.475000 0.000000
-0.025000 0.500000 0.000000
-0.025000 0.525000 0.000000
-0.025000 0.550000 0.000000
-0.025000 0.575000 0.000000
-0.025000 0.600000 0.000000
0.000000 -0.075000 0.000000
0.000000 -0.050000 0.000000
0.000000 -0.025000 0.000000
0.000000 0.000000 0.000000
0.000000 0.025000 0.000000
0.000000 0.050000 0.000000
0.000000 0.075000 0.000000
0.000000 0.100000 0.000000
0.000000 0.125000 0.000000
0.000000 0.150000 0.000000
0.000000 0.175000 0.000000
0.000000 0.200000 0.000000
0.000000 0.225000 0.000000
0.000000 0.250000 0.000000
0.000000 0.275000 0.000000
0.000000 0.300000 0.000000
0.000000 0.325000 0.000000
0.000000 0.350000 0.000000
0.000000 0.375000 0.000000
0.000000 0.400000 0.000000
0.000000 0.425000 0.000000
0.000000 0.450000 0.000000
0.000000 0.475000 0.000000
0.000000 0.500000 0.000000
0.000000 0.525000 0.000000
0.000000 0.550000 0.000000
0.000000 0.575000 0.000000
0.000000 0.600000 0.000000
0.025000 -0.075000 0.000000
0.025000 -0.050000 0.000000
0.025000 -0.025000 0.000000
0.025000 0.000000 0.000000
0.025102 0.025795 0.000000
0.025312 0.049287 0.000000
0.024369 0.075264 0.000000
0.027090 0.099869 0.000000
0.024882 0.121530 0.000000
0.023789 0.152580 0.000000
0.024266 0.179739 0.000000
0.025211 0.206722 0.000000
0.025810 0.229505 0.000000
0.024340 0.253317 0.000000
0.024359 0.280833 0.000000
0.024930 0.303230 0.000000
0.025091 0.332506 0.000000
0.024640 0.354302 0.000000
0.025216 0.382892 0.000000
0.023758 0.408897 0.000000
0.023459 0.437500 0.000000
0.026387 0.466462 0.000000
0.020951 0.491202 0.000000
0.022998 0.533409 0.000000
0.028172 0.586633 0.000000
0.047871 0.600000 0.000000
0.062687 0.600000 0.000000
0.013559 0.600000 0.000000
0.655000 0.625000 0.000000
0.655000 0.650000 0.000000
0.655000 0.675000 0.000000
0.050000 -0.075000 0.000000
0.050000 -0.050000 0.000000
0.050000 -0.025000 0.000000
0.050000 0.000000 0.000000
0.049245 0.024679 0.000000
0.055257 0.049773 0.000000
0.046687 0.071225 0.000000
0.050515 0.109470 0.000000
0.043102 0.138353 0.000000
0.045505 0.169199 0.000000
0.049422 0.193961 0.000000
0.053981 0.221292 0.000000
0.050329 0.244549 0.000000
0.050919 0.268118 0.000000
0.049853 0.293941 0.000000
0.047396 0.319797 0.000000
0.051394 0.347237 0.000000
0.045646 0.373810 0.000000
0.048632 0.401039 0.000000
0.044128 0.426877 0.000000
0.046302 0.454751 0.000000
0.054479 0.481656 0.000000
0.042075 0.500775 0.000000
0.044735 0.523862 0.000000
0.026215 0.555805 0.000000
0.060653 0.576845 0.000000
0.074665 0.556501 0.000000
0.084561 0.600000 0.000000
0.680000 0.625000 0.000000
0.680000 0.650000 0.000000
0.680000 0.675000 0.000000
0.075000 -0.075000 0.000000
0.075000 -0.050000 0.000000
0.075000 -0.025000 0.000000
0.075000 0.000000 0.000000
0.089545 0.021228 0.000000
0.071865 0.033996 0.000000
0.070240 0.074875 0.000000
0.069938 0.097519 0.000000
0.069992 0.124781 0.000000
0.064155 0.154137 0.000000
0.075553 0.177277 0.000000
0.070682 0.203496 0.000000
0.078955 0.231226 0.000000
0.073791 0.258489 0.000000
0.073192 0.286364 0.000000
0.072405 0.311443 0.000000
0.071789 0.337733 0.000000
0.073826 0.363336 0.000000
0.068717 0.387747 0.000000
0.075236 0.413310 0.000000
0.066616 0.438616 0.000000
0.072479 0.465066 0.000000
0.079544 0.488605 0.000000
0.071375 0.509820 0.000000
0.066337 0.534312 0.000000
0.047258 0.554463 0.000000
0.091745 0.580323 0.000000
0.104753 0.600000 0.000000
0.705000 0.625000 0.000000
0.705000 0.650000 0.000000
0.705000 0.675000 0.000000
0.100000 -0.075000 0.000000
0.100000 -0.050000 0.000000
0.100000 -0.025000 0.000000
0.100000 0.000000 0.000000
0.116774 0.029567 0.000000
0.090906 0.065364 0.000000
0.097159 0.091815 0.000000
0.095375 0.114959 0.000000
0.086320 0.141030 0.000000
0.100797 0.158269 0.000000
0.094858 0.185655 0.000000
0.099293 0.209073 0.000000
0.099258 0.236357 0.000000
0.097021 0.267228 0.000000
0.099301 0.291188 0.000000
0.094594 0.319554 0.000000
0.099377 0.343835 0.000000
0.097855 0.369043 0.000000
0.095301 0.392775 0.000000
0.096129 0.420433 0.000000
0.091221 0.442632 0.000000
0.101075 0.468237 0.000000
0.108323 0.492962 0.000000
0.099400 0.514536 0.000000
0.095674 0.536384 0.000000
0.105059 0.559171 0.000000
0.126816 0.566045 0.000000
0.121242 0.600000 0.000000
0.730000 0.625000 0.000000
0.730000 0.650000 0.000000
0.730000 0.675000 0.000000
0.125000 -0.075000 0.000000
0.125000 -0.050000 0.000000
0.125000 -0.025000 0.000000
0.125000 0.000000 0.000000
0.140440 0.022088 0.000000
0.104319 0.049006 0.000000
0.118504 0.076954 0.000000
0.125350 0.102082 0.000000
0.118070 0.124289 0.000000
0.121288 0.151926 0.000000
0.123756 0.177203 0.000000
0.122732 0.202297 0.000000
0.126793 0.224856 0.000000
0.116042 0.252003 0.000000
0.121650 0.279962 0.000000
0.120161 0.307612 0.000000
0.121867 0.328045 0.000000
0.120287 0.360812 0.000000
0.129528 0.380073 0.000000
0.117597 0.404096 0.000000
0.132326 0.422685 0.000000
0.117694 0.444970 0.000000
0.123147 0.473271 0.000000
0.120220 0.530420 0.000000
0.139223 0.544179 0.000000
0.149069 0.565435 0.000000
0.169255 0.583044 0.000000
0.139526 0.600000 0.000000
0.755000 0.625000 0.000000
0.755000 0.650000 0.000000
0.755000 0.675000 0.000000
0.150000 -0.075000 0.000000
0.150000 -0.050000 0.000000
0.150000 -0.025000 0.000000
0.150000 0.000000 0.000000
0.165063 0.026099 0.000000
0.129766 0.051370 0.000000
0.142878 0.081034 0.000000
0.151128 0.103193 0.000000
0.139916 0.132751 0.000000
0.152706 0.151872 0.000000
0.145125 0.177012 0.000000
0.147886 0.209125 0.000000
0.147226 0.236296 0.000000
0.142243 0.264980 0.000000
0.145432 0.290395 0.000000
0.154766 0.310010 0.000000
0.141623 0.340474 0.000000
0.156460 0.363132 0.000000
0.144863 0.398923 0.000000
0.158304 0.424675 0.000000
0.139203 0.448318 0.000000
0.150610 0.470163 0.000000
0.131403 0.506211 0.000000
0.153316 0.491620 0.000000
0.150619 0.514783 0.000000
0.166103 0.544599 0.000000
0.180406 0.600000 0.000000
0.155115 0.600000 0.000000
0.780000 0.625000 0.000000
0.780000 0.650000 0.000000
0.780000 0.675000 0.000000
0.175000 -0.075000 0.000000
0.175000 -0.050000 0.000000
0.175000 -0.025000 0.000000
0.175000 0.000000 0.000000
0.192863 0.023971 0.000000
0.151679 0.054638 0.000000
0.167934 0.074606 0.000000
0.180870 0.098368 0.000000
0.165252 0.122115 0.000000
0.176522 0.152683 0.000000
0.169340 0.175030 0.000000
0.169730 0.203707 0.000000
0.172826 0.226021 0.000000
0.161397 0.257168 0.000000
0.172521 0.279946 0.000000
0.177423 0.309976 0.000000
0.161574 0.333983 0.000000
0.181916 0.361371 0.000000
0.160493 0.383298 0.000000
0.177808 0.408675 0.000000
0.168687 0.444441 0.000000
0.188766 0.451332 0.000000
0.176592 0.476006 0.000000
0.184852 0.501224 0.000000
0.176345 0.522060 0.000000
0.187752 0.543720 0.000000
0.193018 0.568526 0.000000
0.196959 0.600000 0.000000
0.805000 0.625000 0.000000
0.805000 0.650000 0.000000
0.805000 0.675000 0.000000
0.200000 -0.075000 0.000000
0.200000 -0.050000 0.000000
0.200000 -0.025000 0.000000
0.200000 0.000000 0.000000
0.216096 0.026387 0.000000
0.176235 0.045922 0.000000
0.191569 0.078938 0.000000
0.206636 0.102564 0.000000
0.186217 0.127684 0.000000
0.203019 0.153148 0.000000
0.190001 0.188564 0.000000
0.202856 0.207774 0.000000
0.186919 0.243078 0.000000
0.201654 0.259178 0.000000
0.192856 0.283559 0.000000
0.200314 0.308932 0.000000
0.187252 0.340173 0.000000
0.209214 0.354707 0.000000
0.190877 0.386005 0.000000
0.206925 0.403643 0.000000
0.193649 0.424104 0.000000
0.213518 0.452266 0.000000
0.198654 0.479986 0.000000
0.214323 0.498982 0.000000
0.206133 0.522767 0.000000
0.217730 0.546291 0.000000
[...]
<PointData>
<DataArray NumberOfComponents='1' type='Int32' Name='ParticleType' format='ascii'>
3
3
3
3
3
3
3
3
3
3
3
3
3
3
3
3
3
3
3
3
3
3
3
3
3
3
3
3
3
3
3
3
3
3
3
3
3
3
3
3
3
3
3
3
3
3
3
3
3
3
3
3
3
3
3
3
3
3
2
2
2
2
2
2
2
2
2
2
2
2
2
2
2
2
2
2
2
2
2
2
2
2
2
2
3
3
2
2
2
2
2
2
2
2
2
2
2
2
2
2
2
2
2
2
2
2
2
2
2
2
2
2
3
3
2
2
0
0
0
0
0
0
0
0
0
0
0
0
0
0
0
0
0
0
0
0
0
0
0
0
1
1
1
3
3
2
2
0
0
0
0
0
0
0
0
0
0
0
0
0
0
0
0
0
0
0
0
0
0
0
0
1
1
1
3
3
2
2
0
0
0
0
0
0
0
0
0
0
0
0
0
0
0
0
0
0
0
0
0
0
0
0
1
1
1
3
3
2
2
0
0
0
0
0
0
0
0
0
0
0
0
0
0
0
0
0
0
0
0
0
0
0
0
1
1
1
3
3
2
2
0
0
0
0
0
0
0
0
0
0
0
0
0
0
0
0
0
0
0
0
0
0
0
0
1
1
1
3
3
2
2
0
0
0
0
0
0
0
0
0
0
0
0
0
0
0
0
0
0
0
0
0
0
0
0
1
1
1
3
3
2
2
0
0
0
0
0
0
0
0
0
0
0
0
0
0
0
0
0
0
0
0
0
0
0
0
1
1
1
3
3
2
2
0
0
0
0
0
0
0
0
0
0
0
0
0
0
0
0
0
0
0
0
0
0
0
0
1
1
1
3
3
2
2
0
0
0
0
0
0
0
0
0
0
0
0
0
0
0
0
0
0
0
0
0
0
0
0
1
1
1
3
3
2
2
0
0
0
0
0
0
0
0
0
0
0
0
0
0
0
0
0
0
0
0
0
0
0
0
1
1
1
3
3
2
2
0
0
0
0
0
0
0
0
0
0
0
0
0
0
0
0
0
0
0
0
0
0
0
0
1
1
1
3
3
2
2
0
0
0
0
0
0
0
0
0
0
0
0
0
0
0
0
0
0
0
0
0
0
0
0
1
1
1
3
3
2
2
0
0
0
0
0
0
0
0
0
0
0
0
0
0
0
0
0
0
0
0
0
0
0
0
1
1
1
3
3
2
2
0
0
0
0
0
0
0
0
0
0
0
0
0
0
0
0
0
0
0
0
0
0
0
0
1
1
1
3
3
2
2
0
0
0
0
0
0
0
0
0
0
0
0
0
0
0
0
0
0
0
0
0
0
0
0
1
1
1
3
3
2
2
0
0
0
0
0
0
0
0
0
0
0
0
0
0
0
0
0
0
0
0
0
0
0
0
1
1
1
3
3
2
2
0
0
0
0
0
0
0
0
0
0
0
0
0
0
0
0
0
0
0
0
0
0
0
0
3
3
2
2
0
0
0
0
0
0
0
0
0
0
0
0
0
0
0
0
0
0
0
0
0
0
0
0
3
3
2
2
0
0
0
0
0
0
0
0
0
0
0
0
0
0
0
0
0
0
0
0
0
0
0
0
3
3
2
2
0
0
0
0
0
0
0
0
0
0
0
0
0
0
0
0
0
0
0
0
0
0
0
0
3
3
2
2
0
0
0
0
0
0
0
0
0
0
0
0
0
0
0
0
0
0
0
0
0
0
0
0
3
3
2
2
0
0
0
0
0
0
0
0
0
0
0
0
0
0
0
0
0
0
0
0
0
0
0
0
3
3
2
2
0
0
0
0
0
0
0
0
0
0
0
0
0
0
0
0
0
0
0
0
0
0
0
0
3
3
2
2
0
0
0
0
0
0
0
0
0
0
0
0
0
0
0
0
0
0
0
0
0
0
0
0
3
3
2
2
0
0
0
0
0
0
0
0
0
0
0
0
0
0
0
0
0
0
0
0
0
0
0
0
3
3
2
2
0
0
0
0
0
0
0
0
0
0
0
0
0
0
0
0
0
0
0
0
0
0
0
0
3
3
2
2
0
0
0
0
0
0
0
0
0
0
0
0
0
0
0
0
0
0
0
0
0
0
0
0
3
3
2
2
0
0
0
0
0
0
0
0
0
0
0
0
0
0
0
0
0
0
0
0
0
0
0
0
3
3
2
2
0
0
0
0
0
0
0
0
0
0
0
0
0
0
0
0
0
0
0
0
0
0
0
0
3
3
2
2
0
0
0
0
0
0
0
0
0
0
0
0
0
0
0
0
0
0
0
0
0
0
0
0
3
3
2
2
0
0
0
0
0
0
0
0
0
0
0
0
0
0
0
0
0
0
0
0
0
0
0
0
3
3
2
2
0
0
0
0
0
0
0
0
0
0
0
0
0
0
0
0
0
0
0
0
0
0
0
0
3
3
2
2
0
0
0
0
0
0
0
0
0
0
0
0
0
0
0
0
0
0
0
0
0
0
0
0
3
3
2
2
0
0
0
0
0
0
0
0
0
0
0
0
0
0
0
0
0
0
0
0
0
0
0
0
3
3
2
2
0
0
0
0
0
0
0
0
0
0
0
0
0
0
0
0
0
0
0
0
0
0
0
0
3
3
2
2
0
0
0
0
0
0
0
0
0
0
0
0
0
0
0
0
0
0
0
0
0
0
0
0
3
3
2
2
0
0
0
0
0
0
0
0
0
0
0
0
0
0
0
0
0
0
0
0
0
0
0
0
3
3
2
2
0
0
0
0
0
0
0
0
0
0
0
0
0
0
0
0
0
0
0
0
0
0
0
0
3
3
2
2
0
0
0
0
0
0
0
0
0
0
0
0
0
0
0
0
0
0
0
0
0
0
0
0
3
3
2
2
0
0
0
0
0
0
0
0
0
0
0
0
0
0
0
0
0
0
0
0
0
0
0
0
3
3
2
2
0
0
0
0
0
0
0
0
0
0
0
0
0
0
0
0
0
0
0
0
0
0
0
0
3
3
2
2
0
0
0
0
0
0
0
0
0
0
0
0
0
0
0
0
0
0
0
0
0
0
0
0
3
3
2
2
0
0
0
0
0
0
0
0
0
0
0
0
0
0
0
0
0
0
0
0
0
0
0
0
3
3
2
2
0
0
0
0
0
0
0
0
0
0
0
0
0
0
0
0
0
0
0
0
0
0
0
0
3
3
2
2
0
0
0
0
0
0
0
0
0
0
0
0
0
0
0
0
0
0
0
0
0
0
0
0
3
3
2
2
0
0
0
0
0
0
0
0
0
0
0
0
0
0
0
0
0
0
0
0
0
0
0
0
3
3
2
2
0
0
0
0
0
0
0
0
0
0
0
0
0
0
0
0
0
0
0
0
0
0
0
0
3
3
2
2
0
0
0
0
0
0
0
0
0
0
0
0
0
0
0
0
0
0
0
0
0
0
0
0
3
3
2
2
0
0
0
0
0
0
0
0
0
0
0
0
0
0
0
0
0
0
0
0
0
0
0
0
3
3
2
2
0
0
0
0
0
0
0
0
0
0
0
0
0
0
0
0
0
0
0
0
0
0
0
0
3
3
2
2
0
0
0
0
0
0
0
0
0
0
0
0
0
0
0
0
0
0
0
0
0
0
0
0
3
3
2
2
0
0
0
0
0
0
0
0
0
0
0
0
0
0
0
0
0
0
0
0
0
0
0
0
3
3
2
2
0
0
0
0
0
0
0
0
0
0
0
0
0
0
0
0
0
0
0
0
0
0
0
0
3
3
2
2
0
0
0
0
0
0
0
0
0
0
0
0
0
0
0
0
0
0
0
0
0
0
0
0
3
3
2
2
0
0
0
0
0
0
0
0
0
0
0
0
0
0
0
0
0
0
0
0
0
0
0
0
3
3
2
2
0
0
0
0
0
0
0
0
0
0
0
0
0
0
0
0
0
0
0
0
0
0
0
0
3
3
2
2
0
0
0
0
0
0
0
0
0
0
0
0
0
0
0
0
0
0
0
0
0
0
0
0
3
3
2
2
0
0
0
0
0
0
0
0
0
0
0
0
0
0
0
0
0
0
0
0
0
0
0
0
3
3
2
2
0
0
0
0
0
0
0
0
0
0
0
0
0
0
0
0
0
0
0
0
0
0
0
0
3
3
2
2
0
0
0
0
0
0
0
0
0
0
0
0
0
0
0
0
0
0
0
0
0
0
0
0
3
3
2
2
0
0
0
0
0
0
0
0
0
0
0
0
0
0
0
0
0
0
0
0
0
0
0
0
3
3
2
2
0
0
0
0
0
0
0
0
0
0
0
0
0
0
0
0
0
0
0
0
0
0
0
0
3
3
2
2
0
0
0
0
0
0
0
0
0
0
0
0
0
0
0
0
0
0
0
0
0
0
0
0
3
3
2
2
0
0
0
0
0
0
0
0
0
0
0
0
0
0
0
0
0
0
0
0
0
0
0
0
3
3
2
2
0
0
0
0
0
0
0
0
0
0
0
0
0
0
0
0
0
0
0
0
0
0
0
0
3
3
2
2
0
0
0
0
0
0
0
0
0
0
0
0
0
0
0
0
0
0
0
0
0
0
0
0
3
3
2
2
0
0
0
0
0
0
0
0
0
0
0
0
0
0
0
0
0
0
0
0
0
0
0
0
3
3
2
2
0
0
0
0
0
0
0
0
0
0
0
0
0
0
0
0
0
0
0
0
0
0
0
0
3
3
2
2
0
0
0
0
0
0
0
0
0
0
0
0
0
0
0
0
0
0
0
0
0
0
0
0
3
3
2
2
0
0
0
0
0
0
0
0
0
0
0
0
0
0
0
0
0
0
0
0
0
0
0
0
3
3
2
2
0
0
0
0
0
0
0
0
0
0
0
0
0
0
0
0
0
0
0
0
0
0
0
0
3
3
2
2
0
0
0
0
0
0
0
0
0
0
0
0
0
0
0
0
0
0
0
0
0
0
0
0
3
3
2
2
0
0
0
0
0
0
0
0
0
0
0
0
0
0
0
0
0
0
0
0
0
0
0
0
3
3
2
2
0
0
0
0
0
0
0
0
0
0
0
0
0
0
0
0
0
0
0
0
0
0
0
0
3
3
2
2
0
0
0
0
0
0
0
0
0
0
0
0
0
0
0
0
0
0
0
0
0
0
0
0
3
3
2
2
0
0
0
0
0
0
0
0
0
0
0
0
0
0
0
0
0
0
0
0
0
0
0
0
3
3
2
2
0
0
0
0
0
0
0
0
0
0
0
0
0
0
0
0
0
0
0
0
0
0
0
0
3
3
2
2
0
0
0
0
0
0
0
0
0
0
0
0
0
0
0
0
0
0
0
0
0
0
0
0
3
3
2
2
0
0
0
0
0
0
0
0
0
0
0
0
0
0
0
0
0
0
0
0
0
0
0
0
3
3
2
2
0
0
0
0
0
0
0
0
0
0
0
0
0
0
0
0
0
0
0
0
0
0
0
0
3
3
2
2
2
2
2
2
2
2
2
2
2
2
2
2
2
2
2
2
2
2
2
2
2
2
2
2
3
3
2
2
2
2
2
2
2
2
2
2
2
2
2
2
2
2
2
2
2
2
2
2
2
2
2
2
3
3
3
3
3
3
3
3
3
3
3
3
3
3
3
3
3
3
3
3
3
3
3
3
3
3
3
3
3
3
3
3
3
3
3
3
3
3
3
3
3
3
3
3
3
3
3
3
3
3
3
3
3
3
3
3
</DataArray>
<DataArray NumberOfComponents='1' type='Float32' Name='Velocity' format='ascii'>
0.000000
0.000000
0.000000
0.000000
0.000000
0.000000
0.000000
0.000000
0.000000
0.000000
0.000000
0.000000
0.000000
0.000000
0.000000
0.000000
0.000000
0.000000
0.000000
0.000000
0.000000
0.000000
0.000000
0.000000
0.000000
0.000000
0.000000
0.000000
0.000000
0.000000
0.000000
0.000000
0.000000
0.000000
0.000000
0.000000
0.000000
0.000000
0.000000
0.000000
0.000000
0.000000
0.000000
0.000000
0.000000
0.000000
0.000000
0.000000
0.000000
0.000000
0.000000
0.000000
0.000000
0.000000
0.000000
0.000000
0.000000
0.000000
0.000000
0.000000
0.000000
0.000000
0.000000
0.000000
0.000000
0.000000
0.000000
0.000000
0.000000
0.000000
0.000000
0.000000
0.000000
0.000000
0.000000
0.000000
0.000000
0.000000
0.000000
0.000000
0.000000
0.000000
0.000000
0.000000
0.000000
0.000000
0.000000
0.000000
0.000000
0.000000
0.000000
0.000000
0.000000
0.000000
0.000000
0.000000
0.000000
0.000000
0.000000
0.000000
0.000000
0.000000
0.000000
0.000000
0.000000
0.000000
0.000000
0.000000
0.000000
0.000000
0.000000
0.000000
0.000000
0.000000
0.000000
0.000000
0.006636
0.030782
0.086094
0.057398
0.134304
0.063391
0.118355
0.073705
0.102835
0.058610
0.084979
0.144913
0.083914
0.111557
0.073871
0.042287
0.109820
0.161310
0.201159
0.074148
1.032142
3.979749
8.915909
8.477822
1.000000
1.000000
1.000000
0.000000
0.000000
0.000000
0.000000
0.056316
0.072164
0.114086
0.100728
0.135670
0.100869
0.087276
0.151191
0.117931
0.150594
0.106283
0.064594
0.053228
0.131488
0.077211
0.133974
0.170154
0.227537
0.147953
0.095427
0.668260
0.313581
0.261411
3.844495
1.000000
1.000000
1.000000
0.000000
0.000000
0.000000
0.000000
0.100494
0.143131
0.046459
0.094001
0.112125
0.165084
0.058748
0.115062
0.093083
0.019974
0.156899
0.128390
0.199741
0.089679
0.090669
0.069557
0.168610
0.216274
0.190020
0.211758
0.240198
0.456311
0.457741
0.994083
1.000000
1.000000
1.000000
0.000000
0.000000
0.000000
0.000000
0.100896
0.015095
0.021715
0.224381
0.148435
0.098646
0.077701
0.120652
0.029808
0.058157
0.079858
0.026045
0.111475
0.146545
0.066159
0.135600
0.111964
0.104295
0.213247
0.073376
0.258332
0.217368
0.424626
3.011232
1.000000
1.000000
1.000000
0.000000
0.000000
0.000000
0.000000
0.110740
0.068063
0.256579
0.099382
0.047977
0.137326
0.136946
0.053585
0.006698
0.098552
0.116972
0.077844
0.134088
0.043267
0.131648
0.129843
0.076798
0.190121
0.296547
0.388275
0.175224
0.258844
0.198073
2.581267
1.000000
1.000000
1.000000
0.000000
0.000000
0.000000
0.000000
0.181172
0.069510
0.073824
0.077662
0.058753
0.048681
0.134846
0.112683
0.111910
0.209127
0.171187
0.116551
0.074704
0.140861
0.289477
0.077267
0.113923
0.048812
0.210916
0.128554
0.170618
0.181413
3.856356
6.237383
1.000000
1.000000
1.000000
0.000000
0.000000
0.000000
0.000000
0.072301
0.212076
0.067400
0.162138
0.029953
0.047869
0.172883
0.178310
0.066671
0.140697
0.120993
0.122335
0.088865
0.165942
0.124888
0.188945
0.227459
0.283745
0.376037
0.170936
0.125684
0.129424
0.365508
2.066887
1.000000
1.000000
1.000000
0.000000
0.000000
0.000000
0.000000
0.077347
0.063669
0.204121
0.133667
0.050840
0.046444
0.067975
0.136101
0.135381
0.063805
0.135372
0.142081
0.231115
0.029148
0.182354
0.145380
0.022582
0.092759
0.247356
0.077318
0.308530
0.156106
0.255417
3.459431
1.000000
1.000000
1.000000
0.000000
0.000000
0.000000
0.000000
0.132913
0.075659
0.089697
0.006587
0.055999
0.057376
0.085853
0.053713
0.116040
0.121440
0.103610
0.081934
0.044084
0.097032
0.117040
0.102307
0.075770
0.179724
0.108306
0.129682
0.069146
0.045378
0.302035
3.379324
1.000000
1.000000
1.000000
0.000000
0.000000
0.000000
0.000000
0.016932
0.125041
0.128079
0.108076
0.091545
0.071171
0.149190
0.096047
0.203270
0.079720
0.103247
0.089863
0.043463
0.073010
0.068435
0.093038
0.102121
0.107446
0.096139
0.108550
0.123998
0.211554
0.214138
3.769366
1.000000
1.000000
1.000000
0.000000
0.000000
0.000000
0.000000
0.101719
0.108778
0.102413
0.055369
0.045183
0.027606
0.075546
0.012099
0.041621
0.061116
0.149868
0.047413
0.108275
0.140010
0.069964
0.098879
0.058085
0.153975
0.124423
0.078781
0.135761
0.317954
0.303212
1.141923
1.000000
1.000000
1.000000
0.000000
0.000000
0.000000
0.000000
0.036976
0.035798
0.082446
0.025000
0.033293
0.130469
0.043721
0.111786
0.079325
0.063381
0.075055
0.083925
0.029666
0.100488
0.093657
0.046702
0.097133
0.083207
0.131905
0.070049
0.078144
0.244896
0.645404
1.708945
1.000000
1.000000
1.000000
0.000000
0.000000
0.000000
0.000000
0.040505
0.149132
0.040643
0.099772
0.051111
0.052041
0.076871
0.046682
0.058987
0.104225
0.037171
0.021437
0.064305
0.089622
0.095146
0.045580
0.032649
0.049293
0.272866
0.060994
0.088905
0.081057
0.122711
0.709185
1.000000
1.000000
1.000000
0.000000
0.000000
0.000000
0.000000
0.042797
0.078601
0.059040
0.086092
0.054241
0.149209
0.064405
0.053700
0.061498
0.012274
0.047375
0.041545
0.046421
0.094865
0.082962
0.012449
0.161357
0.085006
0.058299
0.078477
0.108791
0.125818
0.117453
1.021122
1.000000
1.000000
1.000000
0.000000
0.000000
0.000000
0.000000
0.030385
0.141347
0.037896
0.093599
0.041747
0.106077
0.115829
0.054444
0.020669
0.071192
0.108805
0.069597
0.042436
0.056642
0.063163
0.213642
0.061108
0.033061
0.235227
0.080162
0.117371
0.081043
0.937066
2.040138
1.000000
1.000000
1.000000
0.000000
0.000000
0.000000
0.000000
0.030100
0.129574
0.077877
0.107117
0.054887
0.068419
0.055496
0.037785
0.047385
0.020978
0.022551
0.102862
0.141663
0.108100
0.027939
0.003670
0.094399
0.198755
0.040871
0.159001
0.157406
0.224863
0.209472
1.714484
1.000000
1.000000
1.000000
0.000000
0.000000
0.000000
0.000000
0.025765
0.116936
0.056476
0.068915
0.080130
0.069411
0.060011
0.051104
0.076218
0.036148
0.087649
0.177562
0.050590
0.040190
0.304985
0.115691
0.112955
0.231109
0.082549
0.225552
0.109050
0.473573
0.263263
2.169383
0.000000
0.000000
0.000000
0.000000
0.088394
0.114491
0.080006
0.115785
0.079865
0.107217
0.105660
0.094019
0.043706
0.042559
0.079083
0.122977
0.064453
0.094051
0.032978
0.051037
0.048814
0.076077
0.129784
0.149158
0.286275
0.603816
0.430023
5.232349
0.000000
0.000000
0.000000
0.000000
0.011814
0.110595
0.041405
0.040084
0.139982
0.215005
0.044789
0.029653
0.046108
0.030409
0.057874
0.094217
0.029632
0.130840
0.294150
0.062590
0.084173
0.180687
0.133536
0.070807
0.348274
0.127957
0.365816
2.851951
0.000000
0.000000
0.000000
0.000000
0.083471
0.144820
0.019951
0.047451
0.069631
0.130563
0.110047
0.039881
0.045785
0.104716
0.112772
0.069188
0.062649
0.156930
0.057497
0.111520
0.085201
0.143732
0.259879
0.141838
0.200671
0.677983
0.927385
12.782826
0.000000
0.000000
0.000000
0.000000
0.112277
0.098673
0.011354
0.069866
0.066754
0.145911
0.094708
0.073086
0.093798
0.133228
0.117530
0.076708
0.136872
0.163812
0.143992
0.048879
0.067888
0.169196
0.138106
0.074826
0.285317
0.080993
0.470058
4.726133
0.000000
0.000000
0.000000
0.000000
0.060693
0.122452
0.018297
0.081989
0.055473
0.076331
0.013858
0.097885
0.128490
0.050811
0.024413
0.057991
0.008959
0.086707
0.157952
0.067727
0.082279
0.090895
0.154355
0.086990
0.167218
0.017909
0.187018
5.194628
0.000000
0.000000
0.000000
0.000000
0.055447
0.139335
0.039689
0.061733
0.097815
0.038745
0.060168
0.078668
0.102025
0.058909
0.073834
0.073297
0.135358
0.062675
0.023222
0.230597
0.150081
0.285130
0.138699
0.156286
0.097976
0.086571
2.228884
2.219135
0.000000
0.000000
0.000000
0.000000
0.046571
0.076741
0.046091
0.029329
0.057269
0.059234
0.097431
0.030667
0.033821
0.022528
0.075783
0.067365
0.070316
0.088769
0.196747
0.157078
0.167425
0.169983
0.142356
0.095951
0.064523
0.028899
0.195904
0.738455
0.000000
0.000000
0.000000
0.000000
0.066731
0.074301
0.027268
0.040978
0.052000
0.050163
0.093168
0.117222
0.040660
0.067227
0.053862
0.073148
0.069153
0.037107
0.050648
0.042823
0.030389
0.088574
0.055274
0.037203
0.068052
0.039468
0.186965
0.865737
0.000000
0.000000
0.000000
0.000000
0.074111
0.071277
0.069036
0.040663
0.026147
0.063649
0.013810
0.050572
0.040726
0.018451
0.039875
0.088653
0.022402
0.095525
0.052396
0.050323
0.054230
0.109690
0.049004
0.043437
0.187828
0.063980
0.103708
0.799798
0.000000
0.000000
0.000000
0.000000
0.067450
0.061607
0.041261
0.048298
0.061886
0.067390
0.065025
0.073095
0.008103
0.042450
0.012043
0.047860
0.021170
0.085616
0.042273
0.084554
0.034878
0.101754
0.041895
0.114630
0.097957
0.062787
0.097799
0.582507
0.000000
0.000000
0.000000
0.000000
0.090346
0.075705
0.039193
0.032435
0.015035
0.064968
0.036557
0.053759
0.036523
0.043810
0.026382
0.090984
0.020335
0.062699
0.041109
0.067676
0.019496
0.104157
0.064644
0.087946
0.024541
0.135658
0.069658
1.322954
0.000000
0.000000
0.000000
0.000000
0.058924
0.085724
0.036430
0.029433
0.085003
0.017644
0.007294
0.063976
0.032126
0.049754
0.033174
0.030777
0.052372
0.062931
0.031344
0.070392
0.013553
0.050963
0.041754
0.174660
0.005795
0.161722
0.150983
2.208315
0.000000
0.000000
0.000000
0.000000
0.080194
0.056264
0.001473
0.021069
0.019933
0.052272
0.067819
0.027478
0.042438
0.035197
0.012463
0.054567
0.027380
0.110628
0.062905
0.065464
0.087468
0.059485
0.023059
0.096386
0.026333
0.123076
0.083474
1.638684
0.000000
0.000000
0.000000
0.000000
0.040116
0.079582
0.042280
0.031556
0.036086
0.058179
0.033425
0.047071
0.072688
0.009634
0.053401
0.018582
0.061800
0.068137
0.079437
0.139617
0.076768
0.081623
0.136322
0.099376
0.114094
0.091326
0.275681
1.792810
0.000000
0.000000
0.000000
0.000000
0.060038
0.070187
0.040150
0.026328
0.021101
0.043871
0.010289
0.031627
0.058844
0.057123
0.047488
0.044867
0.047847
0.053460
0.037087
0.062694
0.081840
0.029938
0.049598
0.141869
0.059077
0.145123
0.146971
1.926479
0.000000
0.000000
0.000000
0.000000
0.044512
0.072071
0.075682
0.041255
0.019223
0.059737
0.060190
0.028494
0.052198
0.017867
0.031145
0.051857
0.022249
0.057744
0.093927
0.088431
0.069373
0.108447
0.068829
0.085797
0.081880
0.077028
0.076456
1.150856
0.000000
0.000000
0.000000
0.000000
0.039624
0.051763
0.048560
0.018512
0.038714
0.047463
0.005616
0.034043
0.031210
0.049990
0.064376
0.009531
0.023621
0.033185
0.042466
0.023409
0.080517
0.020060
0.070047
0.082988
0.103332
0.083064
0.088316
0.487016
0.000000
0.000000
0.000000
0.000000
0.061648
0.039005
0.084118
0.015758
0.072905
0.032997
0.080370
0.046775
0.067006
0.008591
0.050184
0.023968
0.040054
0.051367
0.027604
0.068017
0.045539
0.096907
0.064767
0.087074
0.062627
0.087832
0.072235
0.242079
0.000000
0.000000
0.000000
0.000000
0.073022
0.030614
0.063427
0.004543
0.055593
0.033025
0.019725
0.020323
0.061806
0.036333
0.051813
0.023428
0.036369
0.036190
0.019042
0.104841
0.085520
0.144835
0.099253
0.115606
0.060484
0.131582
0.085059
0.184516
0.000000
0.000000
0.000000
0.000000
0.060363
0.026070
0.077858
0.009725
0.082486
0.004921
0.065719
0.044773
0.063755
0.020500
0.058797
0.015087
0.045969
0.029004
0.059158
0.040863
0.100734
0.092427
0.148295
0.155250
0.111836
0.164693
0.108438
0.618911
0.000000
0.000000
0.000000
0.000000
0.087105
0.022722
0.072328
0.018332
0.061271
0.045098
0.033071
0.016758
0.061323
0.019296
0.048497
0.013659
0.060031
0.010368
0.041498
0.026130
0.057270
0.069642
0.073814
0.095934
0.097035
0.205410
0.080901
2.032030
0.000000
0.000000
0.000000
0.000000
0.045711
0.005912
0.065180
0.025666
0.080095
0.022044
0.038027
0.043236
0.039745
0.026842
0.042571
0.008050
0.040835
0.028324
0.049704
0.072852
0.024947
0.095215
0.058534
0.117558
0.074725
0.185249
0.074772
3.031162
0.000000
0.000000
0.000000
0.000000
0.090355
0.012785
0.069461
0.004736
0.078241
0.045262
0.063867
0.023949
0.057773
0.011055
0.030374
0.037810
0.021152
0.044225
0.007108
0.069034
0.014745
0.114194
0.047709
0.180507
0.264125
0.327335
0.135731
2.702570
0.000000
0.000000
0.000000
0.000000
0.057945
0.015777
0.073444
0.018329
0.064940
0.044694
0.034082
0.043848
0.044020
0.052676
0.030597
0.010305
0.033314
0.050449
0.049013
0.092624
0.047463
0.100490
0.126913
0.176808
0.142519
0.152477
0.324810
3.701904
0.000000
0.000000
0.000000
0.000000
0.093930
0.025149
0.076984
0.021670
0.058897
0.046996
0.091322
0.032199
0.064148
0.012919
0.043686
0.031754
0.008603
0.051172
0.028130
0.051585
0.024729
0.078858
0.119763
0.075416
0.080278
0.288693
0.227141
3.725345
0.000000
0.000000
0.000000
0.000000
0.060025
0.015181
0.061719
0.040821
0.001836
0.070306
0.042229
0.071602
0.076253
0.093272
0.061733
0.051361
0.048177
0.059792
0.047787
0.085380
0.063552
0.110636
0.063488
0.046129
0.031316
0.223104
0.216171
6.464102
0.000000
0.000000
0.000000
0.000000
0.088455
0.032668
0.075635
0.008674
0.036747
0.058725
0.101123
0.054889
0.069202
0.045709
0.048584
0.043006
0.051776
0.054994
0.061913
0.070174
0.046562
0.020692
0.054094
0.105028
0.077671
0.099563
0.279974
4.900954
0.000000
0.000000
0.000000
0.000000
0.049111
0.021701
0.046407
0.062083
0.057597
0.080561
0.065048
0.088984
0.097826
0.100671
0.088409
0.113238
0.068865
0.071510
0.075021
0.042487
0.057227
0.039666
0.004506
0.101296
0.060361
0.159387
0.180995
4.838665
0.000000
0.000000
0.000000
0.000000
0.061544
0.025226
0.062559
0.007783
0.075863
0.051994
0.077199
0.053573
0.050300
0.043456
0.073724
0.047957
0.068745
0.052981
0.101172
0.017561
0.090828
0.052756
0.114038
0.080664
0.029831
0.169599
0.067323
4.968494
0.000000
0.000000
0.000000
0.000000
0.052899
0.015282
0.037863
0.055829
0.089524
0.075499
0.065415
0.075042
0.093297
0.077940
0.075220
0.061255
0.106054
0.053164
0.127054
0.056421
0.114032
0.114564
0.057361
0.142653
0.040147
0.154169
0.171406
4.836935
0.000000
0.000000
0.000000
0.000000
0.037280
0.020757
0.020142
0.036634
0.103722
0.056462
0.079376
0.050553
0.068884
0.060145
0.106867
0.121779
0.094916
0.154637
0.145878
0.193688
0.201970
0.145383
0.094210
0.129234
0.053760
0.223793
0.121554
5.102739
0.000000
0.000000
0.000000
0.000000
0.052984
0.014706
0.026980
0.023157
0.109050
0.073808
0.084480
0.070913
0.124152
0.042930
0.120240
0.031882
0.148960
0.077724
0.171990
0.089715
0.068965
0.094316
0.151552
0.141223
0.174679
0.215616
0.157477
4.697420
0.000000
0.000000
0.000000
0.000000
0.037835
0.019933
0.009192
0.054989
0.098350
0.050802
0.074211
0.058562
0.099416
0.105453
0.157421
0.134986
0.188108
0.283322
0.117151
0.261412
0.098559
0.290125
0.157618
0.178622
0.192908
0.093849
0.377326
5.692960
0.000000
0.000000
0.000000
0.000000
0.044385
0.028987
0.007643
0.008968
0.110967
0.047921
0.069780
0.062724
0.153852
0.023274
0.169940
0.028874
0.149096
0.055215
0.079296
0.021886
0.046389
0.142243
0.040631
0.170964
0.168903
0.103030
0.189390
5.419271
0.000000
0.000000
0.000000
0.000000
0.042206
0.020676
0.010841
0.040136
0.094342
0.077756
0.056041
0.077810
0.132010
0.139610
0.174587
0.214069
0.164547
0.239621
0.054501
0.178573
0.182778
0.304394
0.178621
0.412129
0.203399
0.377035
0.362832
7.724012
0.000000
0.000000
0.000000
0.000000
0.039063
0.034740
0.016274
0.023005
0.096925
0.016433
0.032152
0.042593
0.143608
0.014149
0.160828
0.043773
0.060089
0.018581
0.132171
0.042185
0.114930
0.102883
0.121705
0.293982
0.243513
0.374996