<?xml version='1.0' encoding='UTF-8'?>
<VTKFile xmlns='VTK' byte_order='LittleEndian' version='0.1' type='UnstructuredGrid'>
<UnstructuredGrid>
<Piece NumberOfCells='2512' NumberOfPoints='2512'>
<Points>
<DataArray NumberOfComponents='3' type='Float32' Name='Position' format='ascii'>
-0.075000 -0.075000 0.000000
-0.075000 -0.050000 0.000000
-0.075000 -0.025000 0.000000
-0.075000 0.000000 0.000000
-0.075000 0.025000 0.000000
-0.075000 0.050000 0.000000
-0.075000 0.075000 0.000000
-0.075000 0.100000 0.000000
-0.075000 0.125000 0.000000
-0.075000 0.150000 0.000000
-0.075000 0.175000 0.000000
-0.075000 0.200000 0.000000
-0.075000 0.225000 0.000000
-0.075000 0.250000 0.000000
-0.075000 0.275000 0.000000
-0.075000 0.300000 0.000000
-0.075000 0.325000 0.000000
-0.075000 0.350000 0.000000
-0.075000 0.375000 0.000000
-0.075000 0.400000 0.000000
-0.075000 0.425000 0.000000
-0.075000 0.450000 0.000000
-0.075000 0.475000 0.000000
-0.075000 0.500000 0.000000
-0.075000 0.525000 0.000000
-0.075000 0.550000 0.000000
-0.075000 0.575000 0.000000
-0.075000 0.600000 0.000000
-0.050000 -0.075000 0.000000
-0.050000 -0.050000 0.000000
-0.050000 -0.025000 0.000000
-0.050000 0.000000 0.000000
-0.050000 0.025000 0.000000
-0.050000 0.050000 0.000000
-0.050000 0.075000 0.000000
-0.050000 0.100000 0.000000
-0.050000 0.125000 0.000000
-0.050000 0.150000 0.000000
-0.050000 0.175000 0.000000
-0.050000 0.200000 0.000000
-0.050000 0.225000 0.000000
-0.050000 0.250000 0.000000
-0.050000 0.275000 0.000000
-0.050000 0.300000 0.000000
-0.050000 0.325000 0.000000
-0.050000 0.350000 0.000000
-0.050000 0.375000 0.000000
-0.050000 0.400000 0.000000
-0.050000 0.425000 0.000000
-0.050000 0.450000 0.000000
-0.050000 0.475000 0.000000
-0.050000 0.500000 0.000000
-0.050000 0.525000 0.000000
-0.050000 0.550000 0.000000
-0.050000 0.575000 0.000000
-0.050000 0.600000 0.000000
-0.025000 -0.075000 0.000000
-0.025000 -0.050000 0.000000
-0.025000 -0.025000 0.000000
-0.025000 0.000000 0.000000
-0.025000 0.025000 0.000000
-0.025000 0.050000 0.000000
-0.025000 0.075000 0.000000
-0.025000 0.100000 0.000000
-0.025000 0.125000 0.000000
-0.025000 0.150000 0.000000
-0.025000 0.175000 0.000000
-0.025000 0.200000 0.000000
-0.025000 0.225000 0.000000
-0.025000 0.250000 0.000000
-0.025000 0.275000 0.000000
-0.025000 0.300000 0.000000
-0.025000 0.325000 0.000000
-0.025000 0.350000 0.000000
-0.025000 0.375000 0.000000
-0.025000 0.400000 0.000000
-0.025000 0.425000 0.000000
-0.025000 0.450000 0.000000
-0.025000 0.475000 0.000000
-0.025000 0.500000 0.000000
-0.025000 0.525000 0.000000
-0.025000 0.550000 0.000000
-0.025000 0.575000 0.000000
-0.025000 0.600000 0.000000
0.000000 -0.075000 0.000000
0.000000 -0.050000 0.000000
0.000000 -0.025000 0.000000
0.000000 0.000000 0.000000
0.000000 0.025000 0.000000
0.000000 0.050000 0.000000
0.000000 0.075000 0.000000
0.000000 0.100000 0.000000
0.000000 0.125000 0.000000
0.000000 0.150000 0.000000
0.000000 0.175000 0.000000
0.000000 0.200000 0.000000
0.000000 0.225000 0.000000
0.000000 0.250000 0.000000
0.000000 0.275000 0.000000
0.000000 0.300000 0.000000
0.000000 0.325000 0.000000
0.000000 0.350000 0.000000
0.000000 0.375000 0.000000
0.000000 0.400000 0.000000
0.000000 0.425000 0.000000
0.000000 0.450000 0.000000
0.000000 0.475000 0.000000
0.000000 0.500000 0.000000
0.000000 0.525000 0.000000
0.000000 0.550000 0.000000
0.000000 0.575000 0.000000
0.000000 0.600000 0.000000
0.025000 -0.075000 0.000000
0.025000 -0.050000 0.000000
0.025000 -0.025000 0.000000
0.025000 0.000000 0.000000
-4087.246838 0.600000 0.000000
103.075049 -179.220015 0.000000
-34.835080 -61.355456 0.000000
24.874424 -60.011076 0.000000
0.161044 0.012607 0.000000
-91542589.553375 0.600000 0.000000
15.186336 -111.241975 0.000000
44.472570 -82.769816 0.000000
-65.938962 -14.303829 0.000000
16.022857 -489.658373 0.000000
805.963423 -2786.964156 0.000000
53.166506 -355.427655 0.000000
73947.662243 0.600000 0.000000
-27117.771558 0.600000 0.000000
-132.753340 0.600000 0.000000
-405.660530 -781.249793 0.000000
-116.809581 -117.214977 0.000000
1015.331850 -1418.309919 0.000000
104.730870 -123.489914 0.000000
-1627.638716 0.600000 0.000000
416.388918 -891.448772 0.000000
-1079.727371 0.600000 0.000000
-2472.430259 0.600000 0.000000
81056383.401659 0.600000 0.000000
1.975000 0.625000 0.000000
1.975000 0.650000 0.000000
1.975000 0.675000 0.000000
0.050000 -0.075000 0.000000
0.050000 -0.050000 0.000000
0.050000 -0.025000 0.000000
0.050000 0.000000 0.000000
-132.930685 0.553286 0.000000
-119.881301 -39.456552 0.000000
1760.812947 0.600000 0.000000
93.313273 0.599980 0.000000
5083.691367 0.600000 0.000000
-32.840789 -26.212806 0.000000
-30.397156 -62.617529 0.000000
3.428004 -0.699319 0.000000
-21826.546779 -40652.075387 0.000000
21200.624729 0.600000 0.000000
9.420634 -124.673070 0.000000
105.985741 -103.810615 0.000000
-273.528898 -108.805023 0.000000
3038.492252 -0.218567 0.000000
22512.140375 0.600000 0.000000
-1070.095310 0.600000 0.000000
-129.152330 -66.701674 0.000000
-400.892959 0.600000 0.000000
2048.214290 0.600000 0.000000
-285.992855 -379.816734 0.000000
1411.725304 0.600000 0.000000
26926.578439 -5618.055113 0.000000
266.120541 -1095.944507 0.000000
2900.609566 0.600000 0.000000
2.000000 0.625000 0.000000
2.000000 0.650000 0.000000
2.000000 0.675000 0.000000
0.075000 -0.075000 0.000000
0.075000 -0.050000 0.000000
0.075000 -0.025000 0.000000
0.075000 0.000000 0.000000
-89.464545 -92.062178 0.000000
33876.241642 0.600000 0.000000
30.262157 0.600000 0.000000
-4395.383197 0.600000 0.000000
-70.727131 -52.122299 0.000000
262.813080 0.600000 0.000000
46.978383 -227.199851 0.000000
5115.407903 0.600000 0.000000
988.400880 0.600000 0.000000
51.733472 -617.326116 0.000000
166.366597 -166.486806 0.000000
-1826.675316 0.600000 0.000000
-860.158701 0.600000 0.000000
1268.076312 -841.528445 0.000000
917.829787 0.600000 0.000000
32.706363 -4.654876 0.000000
5107.393308 -2033.280638 0.000000
0.806696 0.028632 0.000000
348.448311 -277.048596 0.000000
83.002708 -121.011998 0.000000
6697.989510 0.600000 0.000000
-121.721396 -337.262666 0.000000
-9363.904335 0.600000 0.000000
-2096.267987 0.600000 0.000000
2.025000 0.625000 0.000000
2.025000 0.650000 0.000000
2.025000 0.675000 0.000000
0.100000 -0.075000 0.000000
0.100000 -0.050000 0.000000
0.100000 -0.025000 0.000000
0.100000 0.000000 0.000000
-3548.722027 -0.184179 0.000000
155680509.932452 0.600000 0.000000
-1114.304506 -1061.247452 0.000000
129013.832035 0.600000 0.000000
-10160.217061 0.600000 0.000000
-7.870124 0.600000 0.000000
-218281.864326 0.600000 0.000000
170.705815 -5.231888 0.000000
26.340163 -41.123001 0.000000
109.091973 -51.929692 0.000000
-40.704357 -73.640326 0.000000
-3166.625429 0.600000 0.000000
-227.446415 0.600000 0.000000
347.467870 -87.069680 0.000000
-266.591746 0.599800 0.000000
-203.624559 -174.213863 0.000000
0.099566 0.018857 0.000000
-40.016114 0.600000 0.000000
102.457893 -70.170384 0.000000
-322.956752 0.600000 0.000000
1.133847 0.020922 0.000000
143.358214 -215.003741 0.000000
3226.848842 0.600000 0.000000
-40515.358611 0.600000 0.000000
2.050000 0.625000 0.000000
2.050000 0.650000 0.000000
2.050000 0.675000 0.000000
0.125000 -0.075000 0.000000
0.125000 -0.050000 0.000000
0.125000 -0.025000 0.000000
0.125000 0.000000 0.000000
-917.246333 0.600000 0.000000
2868.384873 0.600000 0.000000
-2682.070165 0.600000 0.000000
-825.618881 0.600000 0.000000
10.733818 -68.673603 0.000000
199.383927 -142.768991 0.000000
-1172.031454 0.600000 0.000000
-20.529149 -136.663445 0.000000
78697.848928 0.600000 0.000000
-500.377001 -1650.908366 0.000000
-669.384563 0.600000 0.000000
-10678.552318 0.600000 0.000000
-32.011072 -5.984406 0.000000
-451.155739 0.175311 0.000000
-633.122061 0.600000 0.000000
-958.534058 0.600000 0.000000
9212.065852 0.600000 0.000000
1980.478477 0.600000 0.000000
-42.668657 -162.456921 0.000000
-342.989817 -215.328666 0.000000
-191.925538 -4.494640 0.000000
3967.620174 0.600000 0.000000
976500.584775 0.600000 0.000000
-312312.911529 0.600000 0.000000
2.075000 0.625000 0.000000
2.075000 0.650000 0.000000
2.075000 0.675000 0.000000
0.150000 -0.075000 0.000000
0.150000 -0.050000 0.000000
0.150000 -0.025000 0.000000
0.150000 0.000000 0.000000
-53.654778 -1.548169 0.000000
-2139.764885 0.600000 0.000000
-1.980978 -69.911614 0.000000
-245.047166 -153.146320 0.000000
-7329.875159 0.600000 0.000000
1.358258 0.023425 0.000000
445.346922 0.600000 0.000000
12.448830 -39.090053 0.000000
-248.419875 0.600000 0.000000
-6284.243407 0.600000 0.000000
-771.870971 -349.786416 0.000000
37.370178 -90.103614 0.000000
-130.364160 -120.426067 0.000000
-41758.643418 0.600000 0.000000
-12563.070991 0.600000 0.000000
-243.157432 -100.953593 0.000000
-326.450306 0.600000 0.000000
15.842794 -6813.004053 0.000000
13025.017810 0.600000 0.000000
9017.156726 0.600000 0.000000
-12587.923353 0.600000 0.000000
208.602138 -505.711541 0.000000
5134.935449 0.600000 0.000000
2072.660969 0.600000 0.000000
2.100000 0.625000 0.000000
2.100000 0.650000 0.000000
2.100000 0.675000 0.000000
0.175000 -0.075000 0.000000
0.175000 -0.050000 0.000000
0.175000 -0.025000 0.000000
0.175000 0.000000 0.000000
-571.382316 0.600000 0.000000
-6433.160850 0.600000 0.000000
13.966033 -59.709700 0.000000
103407.420565 0.600000 0.000000
1163.788518 0.600000 0.000000
-260.838658 -201.637313 0.000000
29.875917 -254.178665 0.000000
391.391244 0.600000 0.000000
-2528.913748 0.600000 0.000000
-1470.734346 -752.925033 0.000000
30244.518747 0.600000 0.000000
-4700.713678 0.600000 0.000000
5092.795352 0.600000 0.000000
8169.569042 0.600000 0.000000
3026.924131 -1459.021643 0.000000
-775.825230 0.600000 0.000000
-7156.463330 -15978.649395 0.000000
6679.201140 0.600000 0.000000
36437033.840200 0.600000 0.000000
1203.490781 0.600000 0.000000
12672.350790 0.600000 0.000000
-1001.565756 -464.443161 0.000000
-145.794183 -898.331031 0.000000
3648.244819 0.600000 0.000000
2.125000 0.625000 0.000000
2.125000 0.650000 0.000000
2.125000 0.675000 0.000000
[...]
<PointData>
<DataArray NumberOfComponents='1' type='Int32' Name='ParticleType' format='ascii'>
3
3
3
3
3
3
3
3
3
3
3
3
3
3
3
3
3
3
3
3
3
3
3
3
3
3
3
3
3
3
3
3
3
3
3
3
3
3
3
3
3
3
3
3
3
3
3
3
3
3
3
3
3
3
3
3
3
3
2
2
2
2
2
2
2
2
2
2
2
2
2
2
2
2
2
2
2
2
2
2
2
2
2
2
3
3
2
2
2
2
2
2
2
2
2
2
2
2
2
2
2
2
2
2
2
2
2
2
2
2
2
2
3
3
2
2
0
0
0
0
0
0
0
0
0
0
0
0
0
0
0
0
0
0
0
0
0
0
0
0
1
1
1
3
3
2
2
0
0
0
0
0
0
0
0
0
0
0
0
0
0
0
0
0
0
0
0
0
0
0
0
1
1
1
3
3
2
2
0
0
0
0
0
0
0
0
0
0
0
0
0
0
0
0
0
0
0
0
0
0
0
0
1
1
1
3
3
2
2
0
0
0
0
0
0
0
0
0
0
0
0
0
0
0
0
0
0
0
0
0
0
0
0
1
1
1
3
3
2
2
0
0
0
0
0
0
0
0
0
0
0
0
0
0
0
0
0
0
0
0
0
0
0
0
1
1
1
3
3
2
2
0
0
0
0
0
0
0
0
0
0
0
0
0
0
0
0
0
0
0
0
0
0
0
0
1
1
1
3
3
2
2
0
0
0
0
0
0
0
0
0
0
0
0
0
0
0
0
0
0
0
0
0
0
0
0
1
1
1
3
3
2
2
0
0
0
0
0
0
0
0
0
0
0
0
0
0
0
0
0
0
0
0
0
0
0
0
1
1
1
3
3
2
2
0
0
0
0
0
0
0
0
0
0
0
0
0
0
0
0
0
0
0
0
0
0
0
0
1
1
1
3
3
2
2
0
0
0
0
0
0
0
0
0
0
0
0
0
0
0
0
0
0
0
0
0
0
0
0
1
1
1
3
3
2
2
0
0
0
0
0
0
0
0
0
0
0
0
0
0
0
0
0
0
0
0
0
0
0
0
1
1
1
3
3
2
2
0
0
0
0
0
0
0
0
0
0
0
0
0
0
0
0
0
0
0
0
0
0
0
0
1
1
1
3
3
2
2
0
0
0
0
0
0
0
0
0
0
0
0
0
0
0
0
0
0
0
0
0
0
0
0
1
1
1
3
3
2
2
0
0
0
0
0
0
0
0
0
0
0
0
0
0
0
0
0
0
0
0
0
0
0
0
1
1
1
3
3
2
2
0
0
0
0
0
0
0
0
0
0
0
0
0
0
0
0
0
0
0
0
0
0
0
0
1
1
1
3
3
2
2
0
0
0
0
0
0
0
0
0
0
0
0
0
0
0
0
0
0
0
0
0
0
0
0
1
1
1
3
3
2
2
0
0
0
0
0
0
0
0
0
0
0
0
0
0
0
0
0
0
0
0
0
0
0
0
3
3
2
2
0
0
0
0
0
0
0
0
0
0
0
0
0
0
0
0
0
0
0
0
0
0
0
0
3
3
2
2
0
0
0
0
0
0
0
0
0
0
0
0
0
0
0
0
0
0
0
0
0
0
0
0
3
3
2
2
0
0
0
0
0
0
0
0
0
0
0
0
0
0
0
0
0
0
0
0
0
0
0
0
3
3
2
2
0
0
0
0
0
0
0
0
0
0
0
0
0
0
0
0
0
0
0
0
0
0
0
0
3
3
2
2
0
0
0
0
0
0
0
0
0
0
0
0
0
0
0
0
0
0
0
0
0
0
0
0
3
3
2
2
0
0
0
0
0
0
0
0
0
0
0
0
0
0
0
0
0
0
0
0
0
0
0
0
3
3
2
2
0
0
0
0
0
0
0
0
0
0
0
0
0
0
0
0
0
0
0
0
0
0
0
0
3
3
2
2
0
0
0
0
0
0
0
0
0
0
0
0
0
0
0
0
0
0
0
0
0
0
0
0
3
3
2
2
0
0
0
0
0
0
0
0
0
0
0
0
0
0
0
0
0
0
0
0
0
0
0
0
3
3
2
2
0
0
0
0
0
0
0
0
0
0
0
0
0
0
0
0
0
0
0
0
0
0
0
0
3
3
2
2
0
0
0
0
0
0
0
0
0
0
0
0
0
0
0
0
0
0
0
0
0
0
0
0
3
3
2
2
0
0
0
0
0
0
0
0
0
0
0
0
0
0
0
0
0
0
0
0
0
0
0
0
3
3
2
2
0
0
0
0
0
0
0
0
0
0
0
0
0
0
0
0
0
0
0
0
0
0
0
0
3
3
2
2
0
0
0
0
0
0
0
0
0
0
0
0
0
0
0
0
0
0
0
0
0
0
0
0
3
3
2
2
0
0
0
0
0
0
0
0
0
0
0
0
0
0
0
0
0
0
0
0
0
0
0
0
3
3
2
2
0
0
0
0
0
0
0
0
0
0
0
0
0
0
0
0
0
0
0
0
0
0
0
0
3
3
2
2
0
0
0
0
0
0
0
0
0
0
0
0
0
0
0
0
0
0
0
0
0
0
0
0
3
3
2
2
0
0
0
0
0
0
0
0
0
0
0
0
0
0
0
0
0
0
0
0
0
0
0
0
3
3
2
2
0
0
0
0
0
0
0
0
0
0
0
0
0
0
0
0
0
0
0
0
0
0
0
0
3
3
2
2
0
0
0
0
0
0
0
0
0
0
0
0
0
0
0
0
0
0
0
0
0
0
0
0
3
3
2
2
0
0
0
0
0
0
0
0
0
0
0
0
0
0
0
0
0
0
0
0
0
0
0
0
3
3
2
2
0
0
0
0
0
0
0
0
0
0
0
0
0
0
0
0
0
0
0
0
0
0
0
0
3
3
2
2
0
0
0
0
0
0
0
0
0
0
0
0
0
0
0
0
0
0
0
0
0
0
0
0
3
3
2
2
0
0
0
0
0
0
0
0
0
0
0
0
0
0
0
0
0
0
0
0
0
0
0
0
3
3
2
2
0
0
0
0
0
0
0
0
0
0
0
0
0
0
0
0
0
0
0
0
0
0
0
0
3
3
2
2
0
0
0
0
0
0
0
0
0
0
0
0
0
0
0
0
0
0
0
0
0
0
0
0
3
3
2
2
0
0
0
0
0
0
0
0
0
0
0
0
0
0
0
0
0
0
0
0
0
0
0
0
3
3
2
2
0
0
0
0
0
0
0
0
0
0
0
0
0
0
0
0
0
0
0
0
0
0
0
0
3
3
2
2
0
0
0
0
0
0
0
0
0
0
0
0
0
0
0
0
0
0
0
0
0
0
0
0
3
3
2
2
0
0
0
0
0
0
0
0
0
0
0
0
0
0
0
0
0
0
0
0
0
0
0
0
3
3
2
2
0
0
0
0
0
0
0
0
0
0
0
0
0
0
0
0
0
0
0
0
0
0
0
0
3
3
2
2
0
0
0
0
0
0
0
0
0
0
0
0
0
0
0
0
0
0
0
0
0
0
0
0
3
3
2
2
0
0
0
0
0
0
0
0
0
0
0
0
0
0
0
0
0
0
0
0
0
0
0
0
3
3
2
2
0
0
0
0
0
0
0
0
0
0
0
0
0
0
0
0
0
0
0
0
0
0
0
0
3
3
2
2
0
0
0
0
0
0
0
0
0
0
0
0
0
0
0
0
0
0
0
0
0
0
0
0
3
3
2
2
0
0
0
0
0
0
0
0
0
0
0
0
0
0
0
0
0
0
0
0
0
0
0
0
3
3
2
2
0
0
0
0
0
0
0
0
0
0
0
0
0
0
0
0
0
0
0
0
0
0
0
0
3
3
2
2
0
0
0
0
0
0
0
0
0
0
0
0
0
0
0
0
0
0
0
0
0
0
0
0
3
3
2
2
0
0
0
0
0
0
0
0
0
0
0
0
0
0
0
0
0
0
0
0
0
0
0
0
3
3
2
2
0
0
0
0
0
0
0
0
0
0
0
0
0
0
0
0
0
0
0
0
0
0
0
0
3
3
2
2
0
0
0
0
0
0
0
0
0
0
0
0
0
0
0
0
0
0
0
0
0
0
0
0
3
3
2
2
0
0
0
0
0
0
0
0
0
0
0
0
0
0
0
0
0
0
0
0
0
0
0
0
3
3
2
2
0
0
0
0
0
0
0
0
0
0
0
0
0
0
0
0
0
0
0
0
0
0
0
0
3
3
2
2
0
0
0
0
0
0
0
0
0
0
0
0
0
0
0
0
0
0
0
0
0
0
0
0
3
3
2
2
0
0
0
0
0
0
0
0
0
0
0
0
0
0
0
0
0
0
0
0
0
0
0
0
3
3
2
2
0
0
0
0
0
0
0
0
0
0
0
0
0
0
0
0
0
0
0
0
0
0
0
0
3
3
2
2
0
0
0
0
0
0
0
0
0
0
0
0
0
0
0
0
0
0
0
0
0
0
0
0
3
3
2
2
0
0
0
0
0
0
0
0
0
0
0
0
0
0
0
0
0
0
0
0
0
0
0
0
3
3
2
2
0
0
0
0
0
0
0
0
0
0
0
0
0
0
0
0
0
0
0
0
0
0
0
0
3
3
2
2
0
0
0
0
0
0
0
0
0
0
0
0
0
0
0
0
0
0
0
0
0
0
0
0
3
3
2
2
0
0
0
0
0
0
0
0
0
0
0
0
0
0
0
0
0
0
0
0
0
0
0
0
3
3
2
2
0
0
0
0
0
0
0
0
0
0
0
0
0
0
0
0
0
0
0
0
0
0
0
0
3
3
2
2
0
0
0
0
0
0
0
0
0
0
0
0
0
0
0
0
0
0
0
0
0
0
0
0
3
3
2
2
0
0
0
0
0
0
0
0
0
0
0
0
0
0
0
0
0
0
0
0
0
0
0
0
3
3
2
2
0
0
0
0
0
0
0
0
0
0
0
0
0
0
0
0
0
0
0
0
0
0
0
0
3
3
2
2
0
0
0
0
0
0
0
0
0
0
0
0
0
0
0
0
0
0
0
0
0
0
0
0
3
3
2
2
0
0
0
0
0
0
0
0
0
0
0
0
0
0
0
0
0
0
0
0
0
0
0
0
3
3
2
2
0
0
0
0
0
0
0
0
0
0
0
0
0
0
0
0
0
0
0
0
0
0
0
0
3
3
2
2
0
0
0
0
0
0
0
0
0
0
0
0
0
0
0
0
0
0
0
0
0
0
0
0
3
3
2
2
0
0
0
0
0
0
0
0
0
0
0
0
0
0
0
0
0
0
0
0
0
0
0
0
3
3
2
2
0
0
0
0
0
0
0
0
0
0
0
0
0
0
0
0
0
0
0
0
0
0
0
0
3
3
2
2
0
0
0
0
0
0
0
0
0
0
0
0
0
0
0
0
0
0
0
0
0
0
0
0
3
3
2
2
0
0
0
0
0
0
0
0
0
0
0
0
0
0
0
0
0
0
0
0
0
0
0
0
3
3
2
2
2
2
2
2
2
2
2
2
2
2
2
2
2
2
2
2
2
2
2
2
2
2
2
2
3
3
2
2
2
2
2
2
2
2
2
2
2
2
2
2
2
2
2
2
2
2
2
2
2
2
2
2
3
3
3
3
3
3
3
3
3
3
3
3
3
3
3
3
3
3
3
3
3
3
3
3
3
3
3
3
3
3
3
3
3
3
3
3
3
3
3
3
3
3
3
3
3
3
3
3
3
3
3
3
3
3
3
3
</DataArray>
<DataArray NumberOfComponents='1' type='Float32' Name='Velocity' format='ascii'>
0.000000
0.000000
0.000000
0.000000
0.000000
0.000000
0.000000
0.000000
0.000000
0.000000
0.000000
0.000000
0.000000
0.000000
0.000000
0.000000
0.000000
0.000000
0.000000
0.000000
0.000000
0.000000
0.000000
0.000000
0.000000
0.000000
0.000000
0.000000
0.000000
0.000000
0.000000
0.000000
0.000000
0.000000
0.000000
0.000000
0.000000
0.000000
0.000000
0.000000
0.000000
0.000000
0.000000
0.000000
0.000000
0.000000
0.000000
0.000000
0.000000
0.000000
0.000000
0.000000
0.000000
0.000000
0.000000
0.000000
0.000000
0.000000
0.000000
0.000000
0.000000
0.000000
0.000000
0.000000
0.000000
0.000000
0.000000
0.000000
0.000000
0.000000
0.000000
0.000000
0.000000
0.000000
0.000000
0.000000
0.000000
0.000000
0.000000
0.000000
0.000000
0.000000
0.000000
0.000000
0.000000
0.000000
0.000000
0.000000
0.000000
0.000000
0.000000
0.000000
0.000000
0.000000
0.000000
0.000000
0.000000
0.000000
0.000000
0.000000
0.000000
0.000000
0.000000
0.000000
0.000000
0.000000
0.000000
0.000000
0.000000
0.000000
0.000000
0.000000
0.000000
0.000000
0.000000
0.000000
4401.113281
216.324951
76.698402
71.149216
0.538786
95356864.000000
120.099205
100.966553
70.398880
530.965515
2980.414795
373.287903
76158.226562
28428.392578
148.364624
906.576721
173.310608
1793.272095
172.064346
1675.664307
1010.888123
1148.647461
2536.030518
83049576.000000
1.000000
1.000000
1.000000
0.000000
0.000000
0.000000
0.000000
136.512482
132.255493
1844.879517
101.612396
5235.470703
46.756439
75.951248
52.059090
47328.546875
49278.425781
133.268723
157.637009
303.934723
3767.476807
23500.080078
1116.877075
151.314529
429.790009
2117.434570
493.439941
1532.511719
28241.716797
1158.192139
2971.888672
1.000000
1.000000
1.000000
0.000000
0.000000
0.000000
0.000000
135.370956
35737.613281
36.043159
4699.937500
93.132759
289.655579
246.851364
5296.412598
1016.590881
651.317139
245.273621
1880.984375
953.052002
1565.324097
945.192139
34.504307
5674.763672
1.060386
461.479645
155.109619
6926.464844
372.647888
9610.094727
2164.200195
1.000000
1.000000
1.000000
0.000000
0.000000
0.000000
0.000000
4556.877930
164219952.000000
1584.861572
135656.187500
10448.486328
128.005569
227129.031250
175.898376
54.395687
126.576958
91.001671
3279.072266
252.904480
369.173828
330.634308
279.635162
0.323518
428.441376
132.436859
346.897308
0.909087
269.821411
3320.046143
41519.132812
1.000000
1.000000
1.000000
0.000000
0.000000
0.000000
0.000000
1027.752075
3407.313721
2795.606445
886.358032
76.627556
254.055252
1505.428833
147.068756
81647.382812
1777.722534
884.309021
12657.889648
36.875324
470.805573
662.530212
1093.313965
10190.831055
2077.525391
178.359238
419.186981
196.452850
4130.783203
998466.625000
324624.781250
1.000000
1.000000
1.000000
0.000000
0.000000
0.000000
0.000000
44.629536
2226.482422
76.629242
300.417053
7623.870117
1.126043
466.334564
47.040802
232.220520
6514.447266
872.184570
104.622871
187.619431
42874.449219
12942.593750
272.254700
356.502899
7007.417969
13420.243164
9315.239258
12991.081055
564.163025
5252.170410
2125.925781
1.000000
1.000000
1.000000
0.000000
0.000000
0.000000
0.000000
621.363220
6833.945312
67.722748
107050.976562
1220.322998
341.293854
267.582672
437.106293
2641.740723
1698.786011
31802.390625
5007.534668
5384.905273
8406.654297
3480.777588
804.947998
17943.371094
6927.284180
37641568.000000
1239.910767
12991.487305
1132.338135
934.943848
3816.079102
1.000000
1.000000
1.000000
0.000000
0.000000
0.000000
0.000000
995.637878
2527.953125
1055.815674
944.445129
2521.236816
120.455673
27921.126953
287566.156250
1589.844116
1610.154785
102.632416
133.119354
326.524200
24645172.000000
1351.010010
15050.438477
1111.038086
1793.339478
1779.689453
4261.465820
17893.644531
2291.357178
1940.453491
2322.420410
1.000000
1.000000
1.000000
0.000000
0.000000
0.000000
0.000000
46.020275
10989698.000000
2050.728271
85.924278
767.689026
198.745850
20260.869141
486.453766
2113.809570
372.666107
6044.612305
395.423553
8532.363281
1142.186279
157.519028
0.148078
174147.453125
207.087448
267.547913
68543.257812
1495.724487
26142.400391
99.499763
191028.375000
1.000000
1.000000
1.000000
0.000000
0.000000
0.000000
0.000000
43348.941406
299.923218
132.483444
8021.433594
16063.659180
668.382080
1100.755737
12929.979492
190196.281250
591.916077
167.804688
947.593506
1673.063599
206.937195
93.958717
118.363831
266763.218750
162.812454
354.782410
289706.187500
501.701508
1108.713013
95400.976562
95085.882812
1.000000
1.000000
1.000000
0.000000
0.000000
0.000000
0.000000
608.661804
138.587952
1752.790894
38.551422
1782.988159
159.453781
97.838295
165.959488
250.425705
165.006989
860.908203
2967.306641
2008.987915
674.785583
304234.031250
60897.398438
109189544.000000
857.274109
43348.019531
5687.479492
130.632675
9136.403320
3866.488281
3979.073242
1.000000
1.000000
1.000000
0.000000
0.000000
0.000000
0.000000
297.273621
1010911488.000000
272.967560
313831.718750
43311.781250
41954936.000000
8092.817383
9932.305664
333.691162
408.866119
1308.153564
11015329.000000
865.106445
7859819520.000000
35.054531
57765.027344
117242.039062
1863.447266
622.680420
55.005287
7545.434082
6939.749512
161842336.000000
7707.879883
1.000000
1.000000
1.000000
0.000000
0.000000
0.000000
0.000000
815.540527
301.653351
105.021545
91.954758
111.136765
10577.876953
167.643677
164.633606
142.295883
2436.145508
6692.474121
1627.041626
352.218628
59.922691
2801.511230
385.745209
340.080139
64.099518
433.682648
1684.755249
695.430664
77.381546
39987.750000
4015.225586
1.000000
1.000000
1.000000
0.000000
0.000000
0.000000
0.000000
88.104546
1914.549072
190.089691
33.294216
242.942108
338.781403
2331.633301
7080.980469
854.659729
1096.226807
20023.691406
79.322960
406.597504
253.654785
251.347565
9485.371094
49153.597656
270.740265
90296.820312
277.853729
6454.053711
1119.532837
5124.849121
998081.687500
1.000000
1.000000
1.000000
0.000000
0.000000
0.000000
0.000000
118.407562
81898.578125
128.135544
0.713637
147.002640
596.326355
107.051086
2074.007324
41956152.000000
88.265900
883.116882
1004.480469
339448.062500
24146.132812
485.722351
716.503296
1161.606079
223.442245
1295.386108
56.827042
1555.514038
82941672.000000
953.729980
15229.186523
1.000000
1.000000
1.000000
0.000000
0.000000
0.000000
0.000000
1401.875122
44920.675781
325.311157
290.802185
467.154633
910.026550
144.503601
1768.198242
215.878952
2585.188721
17705.501953
454.729065
2946.358398
693.453979
216.409210
48621.304688
99.181015
12590.254883
3801.007812
1777.145874
129.016251
1781.130249
1136.196899
15809.667969
1.000000
1.000000
1.000000
0.000000
0.000000
0.000000
0.000000
244.985641
1059.289062
203.084503
519.058472
23249.566406
35.587975
1803.067139
2051.311279
4755.222168
131.747757
613.142944
4968.342285
3716.831055
182.946838
277.632080
136.960678
362.053375
384.016083
159659.750000
196.331635
5987.955078
75.742065
107.156708
4414.633789
0.000000
0.000000
0.000000
0.000000
64.403946
39281.574219
2572.144531
158.595551
2683.760498
4977.179688
2319.958008
9501.777344
2522.767822
21146.044922
6729.001465
7730.188477
195.750885
98441824.000000
1942.630005
495978.718750
6310.300781
25976.503906
423.931366
553.734131
96046.179688
27242.648438
151.061600
1061.665405
0.000000
0.000000
0.000000
0.000000
1952.307495
668.466492
137.745575
382.262482
300.501740
5031.879395
126.688889
67.337013
170.571442
8015.189453
1054.974365
3710.386475
98599.742188
238.895477
132.606689
164.444778
290.316437
531.124939
4829300.500000
19885750.000000
1419.828247
2160.303955
610.348877
15961.935547
0.000000
0.000000
0.000000
0.000000
58.828247
1297.734009
471.826141
3293.831055
3093.364746
181.063965
13265.532227
472.462891
125.466782
288258.031250
53.082867
1299.436646
530.585815
43177.402344
906.186707
1068.211182
1930363.250000
14035.873047
199.228500
56.894379
2958.057861
700.525635
1276.622192
4774220.000000
0.000000
0.000000
0.000000
0.000000
1512.676880
1344.877686
165.332932
4139.306152
43065.175781
605.615845
411.739929
352.848083
690.282776
303.435425
1742.438232
271.919006
579.408752
172.060471
119.007423
101.033279
5530499.500000
212.254730
1230.601562
354.948944
4797.564941
2173.999756
1855.795166
2571.172363
0.000000
0.000000
0.000000
0.000000
131.845047
733.828430
60.729309
1666460.000000
23587.998047
281.813171
67.085327
75.707527
1927.797974
6805.711914
203547328.000000
141.727493
2087.937012
819.811951
280.496460
120.608444
737.384277
194.918350
189.078583
333.369110
1228.326660
307293.531250
350.751526
1175.758423
0.000000
0.000000
0.000000
0.000000
416.446686
1507.707886
268.075714
1460.920532
127.912422
2292.870361
466.749329
39930.292969
99.443024
30677.166016
1211.634399
227.550079
3374.003662
67.317207
3205.514893
102359.640625
1637.470459
154.764603
3963.124268
257.245483
38518.191406
124.129631
708.480164
2748.164307
0.000000
0.000000
0.000000
0.000000
72.611412
0.275957
9624.388672
367294.187500
355.984497
211.728592
57535692.000000
21691.435547
800.892578
894.747131
6317.842285
1935943.625000
145.822113
103.983498
1901.127441
984.648743
1162.916260
1434.535400
4917.587891
1235.538574
203547792.000000
40052.699219
4401.709961
9517.264648
0.000000
0.000000
0.000000
0.000000
65.172020
420902.468750
292.444397
1.112439
139924.531250
89.705040
15248.449219
1199.890869
370.309174
335.944397
795.449707
2211.563477
17535.939453
28250.232422
1564.571411
194.069321
262.082947
314.590393
1242.283325
0.295874
15372175.000000
92.865181
418.811371
1085.900757
0.000000
0.000000
0.000000
0.000000
624.668884
52.312485
3202.526855
904.410034
2151.195557
299.693665
709960.875000
353.681091
449.287811
9596.876953
679.997681
127.481644
45.090290
50.537125
446.234985
1.375593
1022.450989
855.029968
3773.785156
300.764496
3793.971191
12455.854492
5500.547363
4544.966797
0.000000
0.000000
0.000000
0.000000
1070.043945
162.846115
10159.994141
24003.589844
0.478425
79958.914062
81155.093750
140154.500000
2075.908203
93.542091
108.374397
333.012390
1348.830933
0.144472
887.642517
614.879639
74.020302
58.992958
936.889954
1077.164185
2219.603027
997.691162
160.267075
1799.835449
0.000000
0.000000
0.000000
0.000000
16079.782227
69402.562500
864.288940
102.155830
205149.765625
798.843994
167.964218
4412.465820
1247.820068
93.058678
24622.707031
22168.666016
262.882660
10533.840820
374.859528
291.070984
1439.464600
2014.323853
539.933716
27196.509766
236.340546
6550.456543
88.309601
8849.728516
0.000000
0.000000
0.000000
0.000000
16153.754883
112181.304688
709.850220
1528.013672
128.211548
94768.734375
306.386200
3322.557129
3165.306152
479.077911
456.626312
218.867096
1100.533936
5126.422363
12372.551758
82307.070312
81594.234375
25816.574219
581.309326
969.215881
163329.265625
107688.367188
1088.707642
2166.189209
0.000000
0.000000
0.000000
0.000000
474.771912
81.144348
68.874962
86.673019
107776.585938
3961.477051
1713.864502
336.651123
697.733337
663460.062500
2238.314209
1532.090698
1048.481079
23744.443359
55.666386
157.924606
108.374313
114.273735
912.944946
228.564056
230.215576
2350.459473
370.698700
2051.309082
0.000000
0.000000
0.000000
0.000000
12854.379883
67.031784
786193.125000
723.844360
262.511871
312.972595
358.534698
1898.088379
11.304583
22491.294922
29818181648384.000000
502.621796
623.402588
804.105286
178.845627
813.770264
303.191071
143.165436
298.428772
66.845345
717.612915
32273.292969
7114.562500
6857.988770
0.000000
0.000000
0.000000
0.000000
2044.569336
11009.600586
1785.786255
156.745911
1585.053467
4641.810547
338.393860
12983.330078
19754.939453
347.081421
3009.511230
49007.937500
865.590759
253.509903
6126.139648
618.100220
1228.805908
546.878784
82.916939
3512.001953
90958.132812
381.482452
1718.752197
20949.810547
0.000000
0.000000
0.000000
0.000000
87.088539
73.959969
3368.831787
212.130783
19584.125000
1956.993164
801.578918
484.664032
549.991882
127.562294
45.458675
72.978134
114.845909
1251777920.000000
3621.684326
160.098663
240.922974
206.095856
134.823715
39099.296875
281.222870
5787.390625
22684.089844
5683.316895
0.000000
0.000000
0.000000
0.000000
109266000.000000
4917.506348
1121.190308
95.601570
297.085022
1107.274658
3.895544
95356440.000000
1633.203247
16800.546875
1752.823608
150.183060
25.335394
83.794067
24338.169922
253.426132
3993.984863
837.218689
1151.038940
164.840683
307.101013
2321.069336
11944.686523
5083.581543
0.000000
0.000000
0.000000
0.000000
128181.062500
4.033731
215609.859375
535.325256
122.595963
3.177063
153.495163
386.481628
553.033325
13220.388672
46276.183594
185422.343750
1102.283325
29612.605469
1146.770874
2676.296387
6082527.000000
248.538773
580.037048
49.838097
14900.020508
375.053497
2856.913086
23664962.000000
0.000000
0.000000
0.000000
0.000000
190374.984375
106.264572
549.709412
230.903564
22321.275391
3954.743896
9132.064453
117335.429688
1642.646729
550.209595
78.693382
688.088257
36312.175781
163.880127
49.078770
170.129486
202056.750000
4902.313965
1324.311401
118.608925
1746.215576
455.977600
716.674072
3153.836914
0.000000
0.000000
0.000000
0.000000
68.945023
0.840520
19159504.000000
959.942810
134.644043
500.586823
356.715485
3014.714600
371.474823
15211.217773
350.243225
344.401764
2974.619141
289.442078
412.711365
113043.054688
1575.699341
3447.123291
2708.764160
3055.802490
906.870300
763.437500
39000.871094
11095.330078
0.000000
0.000000
0.000000
0.000000
60.494610
607.976318
490.867371
7979.269531
698.167419
831.746338
2777.418457
174.548126
15608.508789
13.633045
1801.071045
287.466003
114.602905
77766.046875
1173.212769
2783.495361
653.967407
310.582031
3431.886719
1632.797607
538.056580
174263.937500
452.058716
79955.390625
0.000000
0.000000
0.000000
0.000000
34.359272
127.030579
120.173698
810.428711
107.184868
206.304459
80.228500
45.501038
15372272.000000
125.545036
80961.023438
448975.000000
1671.879028
160.641190
291.405701
98099.484375
2749.066650
944355.062500
363.983582
130.726059
21633.199219
72.198433
139.931870
4928.789062
0.000000
0.000000
0.000000
0.000000
83570.031250
173.812576
2605.855713
2182.878418
1034.378174
173771.062500
80.512512
644.064514
579.984802
55.746250
213.508514
485.959595
0.763184
4054.704102
3389.089844
587638.875000
264.060944
316.317047
222.923340
796.725769
697.205200
112.221100
209.286957
953.869995
0.000000
0.000000
0.000000
0.000000
113.410927
107.734383
178.089447
319320.906250
2218.419434
0.752330
223.943451
3293.468506
570.353943
6089.567383
27423.611328
21588.560547
45.230286
434.675446
8697.498047
175.877136
31.395597
128166.562500
17510.001953
4539.138672
7346.089844
196825.890625
150.527374
8062.196777
0.000000
0.000000
0.000000
0.000000
341.149353
2884.230225
252.478271
96.369102
10510.957031
2768.757812
3397.762695
8100.886719
68835.492188
173.823334
215246224.000000
4244.137695
879.082581
230.490494
103.717583
488973.312500
39.327320
112331.812500
2133.314697
121.461090
2613.656494
2150.433838
93.510925