<?xml version='1.0' encoding='UTF-8'?>
<VTKFile xmlns='VTK' byte_order='LittleEndian' version='0.1' type='UnstructuredGrid'>
<UnstructuredGrid>
<Piece NumberOfCells='2512' NumberOfPoints='2512'>
<Points>
<DataArray NumberOfComponents='3' type='Float32' Name='Position' format='ascii'>
-0.075000 -0.075000 0.000000
-0.075000 -0.050000 0.000000
-0.075000 -0.025000 0.000000
-0.075000 0.000000 0.000000
-0.075000 0.025000 0.000000
-0.075000 0.050000 0.000000
-0.075000 0.075000 0.000000
-0.075000 0.100000 0.000000
-0.075000 0.125000 0.000000
-0.075000 0.150000 0.000000
-0.075000 0.175000 0.000000
-0.075000 0.200000 0.000000
-0.075000 0.225000 0.000000
-0.075000 0.250000 0.000000
-0.075000 0.275000 0.000000
-0.075000 0.300000 0.000000
-0.075000 0.325000 0.000000
-0.075000 0.350000 0.000000
-0.075000 0.375000 0.000000
-0.075000 0.400000 0.000000
-0.075000 0.425000 0.000000
-0.075000 0.450000 0.000000
-0.075000 0.475000 0.000000
-0.075000 0.500000 0.000000
-0.075000 0.525000 0.000000
-0.075000 0.550000 0.000000
-0.075000 0.575000 0.000000
-0.075000 0.600000 0.000000
-0.050000 -0.075000 0.000000
-0.050000 -0.050000 0.000000
-0.050000 -0.025000 0.000000
-0.050000 0.000000 0.000000
-0.050000 0.025000 0.000000
-0.050000 0.050000 0.000000
-0.050000 0.075000 0.000000
-0.050000 0.100000 0.000000
-0.050000 0.125000 0.000000
-0.050000 0.150000 0.000000
-0.050000 0.175000 0.000000
-0.050000 0.200000 0.000000
-0.050000 0.225000 0.000000
-0.050000 0.250000 0.000000
-0.050000 0.275000 0.000000
-0.050000 0.300000 0.000000
-0.050000 0.325000 0.000000
-0.050000 0.350000 0.000000
-0.050000 0.375000 0.000000
-0.050000 0.400000 0.000000
-0.050000 0.425000 0.000000
-0.050000 0.450000 0.000000
-0.050000 0.475000 0.000000
-0.050000 0.500000 0.000000
-0.050000 0.525000 0.000000
-0.050000 0.550000 0.000000
-0.050000 0.575000 0.000000
-0.050000 0.600000 0.000000
-0.025000 -0.075000 0.000000
-0.025000 -0.050000 0.000000
-0.025000 -0.025000 0.000000
-0.025000 0.000000 0.000000
-0.025000 0.025000 0.000000
-0.025000 0.050000 0.000000
-0.025000 0.075000 0.000000
-0.025000 0.100000 0.000000
-0.025000 0.125000 0.000000
-0.025000 0.150000 0.000000
-0.025000 0.175000 0.000000
-0.025000 0.200000 0.000000
-0.025000 0.225000 0.000000
-0.025000 0.250000 0.000000
-0.025000 0.275000 0.000000
-0.025000 0.300000 0.000000
-0.025000 0.325000 0.000000
-0.025000 0.350000 0.000000
-0.025000 0.375000 0.000000
-0.025000 0.400000 0.000000
-0.025000 0.425000 0.000000
-0.025000 0.450000 0.000000
-0.025000 0.475000 0.000000
-0.025000 0.500000 0.000000
-0.025000 0.525000 0.000000
-0.025000 0.550000 0.000000
-0.025000 0.575000 0.000000
-0.025000 0.600000 0.000000
0.000000 -0.075000 0.000000
0.000000 -0.050000 0.000000
0.000000 -0.025000 0.000000
0.000000 0.000000 0.000000
0.000000 0.025000 0.000000
0.000000 0.050000 0.000000
0.000000 0.075000 0.000000
0.000000 0.100000 0.000000
0.000000 0.125000 0.000000
0.000000 0.150000 0.000000
0.000000 0.175000 0.000000
0.000000 0.200000 0.000000
0.000000 0.225000 0.000000
0.000000 0.250000 0.000000
0.000000 0.275000 0.000000
0.000000 0.300000 0.000000
0.000000 0.325000 0.000000
0.000000 0.350000 0.000000
0.000000 0.375000 0.000000
0.000000 0.400000 0.000000
0.000000 0.425000 0.000000
0.000000 0.450000 0.000000
0.000000 0.475000 0.000000
0.000000 0.500000 0.000000
0.000000 0.525000 0.000000
0.000000 0.550000 0.000000
0.000000 0.575000 0.000000
0.000000 0.600000 0.000000
0.025000 -0.075000 0.000000
0.025000 -0.050000 0.000000
0.025000 -0.025000 0.000000
0.025000 0.000000 0.000000
0.025779 0.024799 0.000000
0.026767 0.046920 0.000000
0.023089 0.075255 0.000000
0.025187 0.107582 0.000000
0.024964 0.160346 0.000000
0.029240 0.181990 0.000000
0.026039 0.202790 0.000000
0.023825 0.228146 0.000000
0.023229 0.264642 0.000000
0.024292 0.289997 0.000000
0.025225 0.317879 0.000000
0.025666 0.342375 0.000000
0.025333 0.365127 0.000000
0.023019 0.393411 0.000000
0.027810 0.417400 0.000000
0.023618 0.441998 0.000000
0.024028 0.465533 0.000000
0.026685 0.495439 0.000000
0.022671 0.520374 0.000000
0.044148 0.548707 0.000000
0.025388 0.574627 0.000000
0.033390 0.600000 0.000000
0.051389 0.600000 0.000000
0.015729 0.600000 0.000000
0.945000 0.625000 0.000000
0.945000 0.650000 0.000000
0.945000 0.675000 0.000000
0.050000 -0.075000 0.000000
0.050000 -0.050000 0.000000
0.050000 -0.025000 0.000000
0.050000 0.000000 0.000000
0.049374 0.025916 0.000000
0.045096 0.063940 0.000000
0.040999 0.090845 0.000000
0.023104 0.136434 0.000000
0.057041 0.165819 0.000000
0.055730 0.193109 0.000000
0.053364 0.215251 0.000000
0.036232 0.244631 0.000000
0.048037 0.281684 0.000000
0.047053 0.305318 0.000000
0.049349 0.333164 0.000000
0.057211 0.356998 0.000000
0.046656 0.378148 0.000000
0.049541 0.404344 0.000000
0.050850 0.431503 0.000000
0.052110 0.458499 0.000000
0.044531 0.480655 0.000000
0.050023 0.506982 0.000000
0.053345 0.528352 0.000000
0.070768 0.554533 0.000000
0.022063 0.548343 0.000000
0.082775 0.577840 0.000000
0.114877 0.574890 0.000000
0.069312 0.600000 0.000000
0.970000 0.625000 0.000000
0.970000 0.650000 0.000000
0.970000 0.675000 0.000000
0.075000 -0.075000 0.000000
0.075000 -0.050000 0.000000
0.075000 -0.025000 0.000000
0.075000 0.000000 0.000000
0.093330 0.046810 0.000000
0.073801 0.025529 0.000000
0.046127 0.121104 0.000000
0.052580 0.143968 0.000000
0.077804 0.155285 0.000000
0.082713 0.180863 0.000000
0.075725 0.208168 0.000000
0.065969 0.237380 0.000000
0.058511 0.259999 0.000000
0.076065 0.274848 0.000000
0.071461 0.311626 0.000000
0.075275 0.333462 0.000000
0.078977 0.365932 0.000000
0.071156 0.390130 0.000000
0.074071 0.415299 0.000000
0.094232 0.438710 0.000000
0.072320 0.444270 0.000000
0.079154 0.469619 0.000000
0.071914 0.492417 0.000000
0.083057 0.534354 0.000000
0.098699 0.555305 0.000000
0.052677 0.574122 0.000000
0.087780 0.600000 0.000000
0.107719 0.600000 0.000000
0.995000 0.625000 0.000000
0.995000 0.650000 0.000000
0.995000 0.675000 0.000000
0.100000 -0.075000 0.000000
0.100000 -0.050000 0.000000
0.100000 -0.025000 0.000000
0.100000 0.000000 0.000000
0.099921 0.024176 0.000000
0.069002 0.048111 0.000000
0.063482 0.106200 0.000000
0.077955 0.128331 0.000000
0.099396 0.168554 0.000000
0.120338 0.178370 0.000000
0.107292 0.197549 0.000000
0.089744 0.253340 0.000000
0.106711 0.273335 0.000000
0.089775 0.291676 0.000000
0.094653 0.319394 0.000000
0.100748 0.348402 0.000000
0.096963 0.377398 0.000000
0.114095 0.394997 0.000000
0.096441 0.411670 0.000000
0.117018 0.435652 0.000000
0.102673 0.467445 0.000000
0.101666 0.490963 0.000000
0.131476 0.487579 0.000000
0.083470 0.511397 0.000000
0.109377 0.531387 0.000000
0.126946 0.552019 0.000000
0.143905 0.574916 0.000000
0.125096 0.600000 0.000000
1.020000 0.625000 0.000000
1.020000 0.650000 0.000000
1.020000 0.675000 0.000000
0.125000 -0.075000 0.000000
0.125000 -0.050000 0.000000
0.125000 -0.025000 0.000000
0.125000 0.000000 0.000000
0.126728 0.025159 0.000000
0.112284 0.061592 0.000000
0.066451 0.071270 0.000000
0.091854 0.105810 0.000000
0.099002 0.131318 0.000000
0.118003 0.135711 0.000000
0.122331 0.211449 0.000000
0.090498 0.226045 0.000000
0.110119 0.235787 0.000000
0.125972 0.258357 0.000000
0.117510 0.309217 0.000000
0.141765 0.309377 0.000000
0.121500 0.337225 0.000000
0.122208 0.358811 0.000000
0.135500 0.376683 0.000000
0.126598 0.412973 0.000000
0.152263 0.417731 0.000000
0.127794 0.463822 0.000000
0.153296 0.468949 0.000000
0.136433 0.528196 0.000000
0.153299 0.549871 0.000000
0.161810 0.600000 0.000000
0.197554 0.573985 0.000000
0.143271 0.600000 0.000000
1.045000 0.625000 0.000000
1.045000 0.650000 0.000000
1.045000 0.675000 0.000000
0.150000 -0.075000 0.000000
0.150000 -0.050000 0.000000
0.150000 -0.025000 0.000000
0.150000 0.000000 0.000000
0.155261 0.024462 0.000000
0.130877 0.045646 0.000000
0.085304 0.084946 0.000000
0.142976 0.087564 0.000000
0.124542 0.099232 0.000000
0.135938 0.145826 0.000000
0.140791 0.181251 0.000000
0.147584 0.216922 0.000000
0.138220 0.236723 0.000000
0.149810 0.260638 0.000000
0.125570 0.288075 0.000000
0.168691 0.314834 0.000000
0.148564 0.333528 0.000000
0.157521 0.359081 0.000000
0.150456 0.393910 0.000000
0.164355 0.446490 0.000000
0.140354 0.442047 0.000000
0.166921 0.488474 0.000000
0.117167 0.507580 0.000000
0.147157 0.506456 0.000000
0.165343 0.530425 0.000000
0.170415 0.572302 0.000000
0.197700 0.600000 0.000000
0.179601 0.600000 0.000000
1.070000 0.625000 0.000000
1.070000 0.650000 0.000000
1.070000 0.675000 0.000000
0.175000 -0.075000 0.000000
0.175000 -0.050000 0.000000
0.175000 -0.025000 0.000000
0.175000 0.000000 0.000000
0.182174 0.023913 0.000000
0.161777 0.045424 0.000000
0.108280 0.083460 0.000000
0.160087 0.110998 0.000000
0.138744 0.123545 0.000000
0.167814 0.137611 0.000000
0.157421 0.157700 0.000000
0.158290 0.191214 0.000000
0.176998 0.212839 0.000000
0.167478 0.236554 0.000000
0.152805 0.287308 0.000000
0.200963 0.339708 0.000000
0.170047 0.340216 0.000000
0.191669 0.359945 0.000000
0.169068 0.379067 0.000000
0.176837 0.420584 0.000000
0.182639 0.473481 0.000000
0.200718 0.497139 0.000000
0.178572 0.510550 0.000000
0.196500 0.528802 0.000000
0.184036 0.548951 0.000000
0.209829 0.553020 0.000000
0.226788 0.572814 0.000000
0.215743 0.600000 0.000000
1.095000 0.625000 0.000000
1.095000 0.650000 0.000000
1.095000 0.675000 0.000000
0.200000 -0.075000 0.000000
0.200000 -0.050000 0.000000
0.200000 -0.025000 0.000000
0.200000 0.000000 0.000000
0.207757 0.026139 0.000000
0.176336 0.068482 0.000000
0.143912 0.065917 0.000000
0.169962 0.088922 0.000000
0.190987 0.142147 0.000000
0.179263 0.168226 0.000000
0.185241 0.194658 0.000000
0.188138 0.240571 0.000000
0.207728 0.212064 0.000000
0.171273 0.269625 0.000000
0.180896 0.296577 0.000000
0.198979 0.315962 0.000000
0.222026 0.348978 0.000000
0.202378 0.378533 0.000000
0.183928 0.399030 0.000000
0.204773 0.413024 0.000000
0.188257 0.442494 0.000000
0.203752 0.462224 0.000000
0.218896 0.513324 0.000000
0.245128 0.508608 0.000000
0.227771 0.534873 0.000000
0.243688 0.551196 0.000000
[...]
<PointData>
<DataArray NumberOfComponents='1' type='Int32' Name='ParticleType' format='ascii'>
3
3
3
3
3
3
3
3
3
3
3
3
3
3
3
3
3
3
3
3
3
3
3
3
3
3
3
3
3
3
3
3
3
3
3
3
3
3
3
3
3
3
3
3
3
3
3
3
3
3
3
3
3
3
3
3
3
3
2
2
2
2
2
2
2
2
2
2
2
2
2
2
2
2
2
2
2
2
2
2
2
2
2
2
3
3
2
2
2
2
2
2
2
2
2
2
2
2
2
2
2
2
2
2
2
2
2
2
2
2
2
2
3
3
2
2
0
0
0
0
0
0
0
0
0
0
0
0
0
0
0
0
0
0
0
0
0
0
0
0
1
1
1
3
3
2
2
0
0
0
0
0
0
0
0
0
0
0
0
0
0
0
0
0
0
0
0
0
0
0
0
1
1
1
3
3
2
2
0
0
0
0
0
0
0
0
0
0
0
0
0
0
0
0
0
0
0
0
0
0
0
0
1
1
1
3
3
2
2
0
0
0
0
0
0
0
0
0
0
0
0
0
0
0
0
0
0
0
0
0
0
0
0
1
1
1
3
3
2
2
0
0
0
0
0
0
0
0
0
0
0
0
0
0
0
0
0
0
0
0
0
0
0
0
1
1
1
3
3
2
2
0
0
0
0
0
0
0
0
0
0
0
0
0
0
0
0
0
0
0
0
0
0
0
0
1
1
1
3
3
2
2
0
0
0
0
0
0
0
0
0
0
0
0
0
0
0
0
0
0
0
0
0
0
0
0
1
1
1
3
3
2
2
0
0
0
0
0
0
0
0
0
0
0
0
0
0
0
0
0
0
0
0
0
0
0
0
1
1
1
3
3
2
2
0
0
0
0
0
0
0
0
0
0
0
0
0
0
0
0
0
0
0
0
0
0
0
0
1
1
1
3
3
2
2
0
0
0
0
0
0
0
0
0
0
0
0
0
0
0
0
0
0
0
0
0
0
0
0
1
1
1
3
3
2
2
0
0
0
0
0
0
0
0
0
0
0
0
0
0
0
0
0
0
0
0
0
0
0
0
1
1
1
3
3
2
2
0
0
0
0
0
0
0
0
0
0
0
0
0
0
0
0
0
0
0
0
0
0
0
0
1
1
1
3
3
2
2
0
0
0
0
0
0
0
0
0
0
0
0
0
0
0
0
0
0
0
0
0
0
0
0
1
1
1
3
3
2
2
0
0
0
0
0
0
0
0
0
0
0
0
0
0
0
0
0
0
0
0
0
0
0
0
1
1
1
3
3
2
2
0
0
0
0
0
0
0
0
0
0
0
0
0
0
0
0
0
0
0
0
0
0
0
0
1
1
1
3
3
2
2
0
0
0
0
0
0
0
0
0
0
0
0
0
0
0
0
0
0
0
0
0
0
0
0
1
1
1
3
3
2
2
0
0
0
0
0
0
0
0
0
0
0
0
0
0
0
0
0
0
0
0
0
0
0
0
3
3
2
2
0
0
0
0
0
0
0
0
0
0
0
0
0
0
0
0
0
0
0
0
0
0
0
0
3
3
2
2
0
0
0
0
0
0
0
0
0
0
0
0
0
0
0
0
0
0
0
0
0
0
0
0
3
3
2
2
0
0
0
0
0
0
0
0
0
0
0
0
0
0
0
0
0
0
0
0
0
0
0
0
3
3
2
2
0
0
0
0
0
0
0
0
0
0
0
0
0
0
0
0
0
0
0
0
0
0
0
0
3
3
2
2
0
0
0
0
0
0
0
0
0
0
0
0
0
0
0
0
0
0
0
0
0
0
0
0
3
3
2
2
0
0
0
0
0
0
0
0
0
0
0
0
0
0
0
0
0
0
0
0
0
0
0
0
3
3
2
2
0
0
0
0
0
0
0
0
0
0
0
0
0
0
0
0
0
0
0
0
0
0
0
0
3
3
2
2
0
0
0
0
0
0
0
0
0
0
0
0
0
0
0
0
0
0
0
0
0
0
0
0
3
3
2
2
0
0
0
0
0
0
0
0
0
0
0
0
0
0
0
0
0
0
0
0
0
0
0
0
3
3
2
2
0
0
0
0
0
0
0
0
0
0
0
0
0
0
0
0
0
0
0
0
0
0
0
0
3
3
2
2
0
0
0
0
0
0
0
0
0
0
0
0
0
0
0
0
0
0
0
0
0
0
0
0
3
3
2
2
0
0
0
0
0
0
0
0
0
0
0
0
0
0
0
0
0
0
0
0
0
0
0
0
3
3
2
2
0
0
0
0
0
0
0
0
0
0
0
0
0
0
0
0
0
0
0
0
0
0
0
0
3
3
2
2
0
0
0
0
0
0
0
0
0
0
0
0
0
0
0
0
0
0
0
0
0
0
0
0
3
3
2
2
0
0
0
0
0
0
0
0
0
0
0
0
0
0
0
0
0
0
0
0
0
0
0
0
3
3
2
2
0
0
0
0
0
0
0
0
0
0
0
0
0
0
0
0
0
0
0
0
0
0
0
0
3
3
2
2
0
0
0
0
0
0
0
0
0
0
0
0
0
0
0
0
0
0
0
0
0
0
0
0
3
3
2
2
0
0
0
0
0
0
0
0
0
0
0
0
0
0
0
0
0
0
0
0
0
0
0
0
3
3
2
2
0
0
0
0
0
0
0
0
0
0
0
0
0
0
0
0
0
0
0
0
0
0
0
0
3
3
2
2
0
0
0
0
0
0
0
0
0
0
0
0
0
0
0
0
0
0
0
0
0
0
0
0
3
3
2
2
0
0
0
0
0
0
0
0
0
0
0
0
0
0
0
0
0
0
0
0
0
0
0
0
3
3
2
2
0
0
0
0
0
0
0
0
0
0
0
0
0
0
0
0
0
0
0
0
0
0
0
0
3
3
2
2
0
0
0
0
0
0
0
0
0
0
0
0
0
0
0
0
0
0
0
0
0
0
0
0
3
3
2
2
0
0
0
0
0
0
0
0
0
0
0
0
0
0
0
0
0
0
0
0
0
0
0
0
3
3
2
2
0
0
0
0
0
0
0
0
0
0
0
0
0
0
0
0
0
0
0
0
0
0
0
0
3
3
2
2
0
0
0
0
0
0
0
0
0
0
0
0
0
0
0
0
0
0
0
0
0
0
0
0
3
3
2
2
0
0
0
0
0
0
0
0
0
0
0
0
0
0
0
0
0
0
0
0
0
0
0
0
3
3
2
2
0
0
0
0
0
0
0
0
0
0
0
0
0
0
0
0
0
0
0
0
0
0
0
0
3
3
2
2
0
0
0
0
0
0
0
0
0
0
0
0
0
0
0
0
0
0
0
0
0
0
0
0
3
3
2
2
0
0
0
0
0
0
0
0
0
0
0
0
0
0
0
0
0
0
0
0
0
0
0
0
3
3
2
2
0
0
0
0
0
0
0
0
0
0
0
0
0
0
0
0
0
0
0
0
0
0
0
0
3
3
2
2
0
0
0
0
0
0
0
0
0
0
0
0
0
0
0
0
0
0
0
0
0
0
0
0
3
3
2
2
0
0
0
0
0
0
0
0
0
0
0
0
0
0
0
0
0
0
0
0
0
0
0
0
3
3
2
2
0
0
0
0
0
0
0
0
0
0
0
0
0
0
0
0
0
0
0
0
0
0
0
0
3
3
2
2
0
0
0
0
0
0
0
0
0
0
0
0
0
0
0
0
0
0
0
0
0
0
0
0
3
3
2
2
0
0
0
0
0
0
0
0
0
0
0
0
0
0
0
0
0
0
0
0
0
0
0
0
3
3
2
2
0
0
0
0
0
0
0
0
0
0
0
0
0
0
0
0
0
0
0
0
0
0
0
0
3
3
2
2
0
0
0
0
0
0
0
0
0
0
0
0
0
0
0
0
0
0
0
0
0
0
0
0
3
3
2
2
0
0
0
0
0
0
0
0
0
0
0
0
0
0
0
0
0
0
0
0
0
0
0
0
3
3
2
2
0
0
0
0
0
0
0
0
0
0
0
0
0
0
0
0
0
0
0
0
0
0
0
0
3
3
2
2
0
0
0
0
0
0
0
0
0
0
0
0
0
0
0
0
0
0
0
0
0
0
0
0
3
3
2
2
0
0
0
0
0
0
0
0
0
0
0
0
0
0
0
0
0
0
0
0
0
0
0
0
3
3
2
2
0
0
0
0
0
0
0
0
0
0
0
0
0
0
0
0
0
0
0
0
0
0
0
0
3
3
2
2
0
0
0
0
0
0
0
0
0
0
0
0
0
0
0
0
0
0
0
0
0
0
0
0
3
3
2
2
0
0
0
0
0
0
0
0
0
0
0
0
0
0
0
0
0
0
0
0
0
0
0
0
3
3
2
2
0
0
0
0
0
0
0
0
0
0
0
0
0
0
0
0
0
0
0
0
0
0
0
0
3
3
2
2
0
0
0
0
0
0
0
0
0
0
0
0
0
0
0
0
0
0
0
0
0
0
0
0
3
3
2
2
0
0
0
0
0
0
0
0
0
0
0
0
0
0
0
0
0
0
0
0
0
0
0
0
3
3
2
2
0
0
0
0
0
0
0
0
0
0
0
0
0
0
0
0
0
0
0
0
0
0
0
0
3
3
2
2
0
0
0
0
0
0
0
0
0
0
0
0
0
0
0
0
0
0
0
0
0
0
0
0
3
3
2
2
0
0
0
0
0
0
0
0
0
0
0
0
0
0
0
0
0
0
0
0
0
0
0
0
3
3
2
2
0
0
0
0
0
0
0
0
0
0
0
0
0
0
0
0
0
0
0
0
0
0
0
0
3
3
2
2
0
0
0
0
0
0
0
0
0
0
0
0
0
0
0
0
0
0
0
0
0
0
0
0
3
3
2
2
0
0
0
0
0
0
0
0
0
0
0
0
0
0
0
0
0
0
0
0
0
0
0
0
3
3
2
2
0
0
0
0
0
0
0
0
0
0
0
0
0
0
0
0
0
0
0
0
0
0
0
0
3
3
2
2
0
0
0
0
0
0
0
0
0
0
0
0
0
0
0
0
0
0
0
0
0
0
0
0
3
3
2
2
0
0
0
0
0
0
0
0
0
0
0
0
0
0
0
0
0
0
0
0
0
0
0
0
3
3
2
2
0
0
0
0
0
0
0
0
0
0
0
0
0
0
0
0
0
0
0
0
0
0
0
0
3
3
2
2
0
0
0
0
0
0
0
0
0
0
0
0
0
0
0
0
0
0
0
0
0
0
0
0
3
3
2
2
0
0
0
0
0
0
0
0
0
0
0
0
0
0
0
0
0
0
0
0
0
0
0
0
3
3
2
2
0
0
0
0
0
0
0
0
0
0
0
0
0
0
0
0
0
0
0
0
0
0
0
0
3
3
2
2
0
0
0
0
0
0
0
0
0
0
0
0
0
0
0
0
0
0
0
0
0
0
0
0
3
3
2
2
0
0
0
0
0
0
0
0
0
0
0
0
0
0
0
0
0
0
0
0
0
0
0
0
3
3
2
2
2
2
2
2
2
2
2
2
2
2
2
2
2
2
2
2
2
2
2
2
2
2
2
2
3
3
2
2
2
2
2
2
2
2
2
2
2
2
2
2
2
2
2
2
2
2
2
2
2
2
2
2
3
3
3
3
3
3
3
3
3
3
3
3
3
3
3
3
3
3
3
3
3
3
3
3
3
3
3
3
3
3
3
3
3
3
3
3
3
3
3
3
3
3
3
3
3
3
3
3
3
3
3
3
3
3
3
3
</DataArray>
<DataArray NumberOfComponents='1' type='Float32' Name='Velocity' format='ascii'>
0.000000
0.000000
0.000000
0.000000
0.000000
0.000000
0.000000
0.000000
0.000000
0.000000
0.000000
0.000000
0.000000
0.000000
0.000000
0.000000
0.000000
0.000000
0.000000
0.000000
0.000000
0.000000
0.000000
0.000000
0.000000
0.000000
0.000000
0.000000
0.000000
0.000000
0.000000
0.000000
0.000000
0.000000
0.000000
0.000000
0.000000
0.000000
0.000000
0.000000
0.000000
0.000000
0.000000
0.000000
0.000000
0.000000
0.000000
0.000000
0.000000
0.000000
0.000000
0.000000
0.000000
0.000000
0.000000
0.000000
0.000000
0.000000
0.000000
0.000000
0.000000
0.000000
0.000000
0.000000
0.000000
0.000000
0.000000
0.000000
0.000000
0.000000
0.000000
0.000000
0.000000
0.000000
0.000000
0.000000
0.000000
0.000000
0.000000
0.000000
0.000000
0.000000
0.000000
0.000000
0.000000
0.000000
0.000000
0.000000
0.000000
0.000000
0.000000
0.000000
0.000000
0.000000
0.000000
0.000000
0.000000
0.000000
0.000000
0.000000
0.000000
0.000000
0.000000
0.000000
0.000000
0.000000
0.000000
0.000000
0.000000
0.000000
0.000000
0.000000
0.000000
0.000000
0.000000
0.000000
0.105570
0.180602
0.119575
0.240875
0.363328
0.109739
0.061662
0.109694
0.085259
0.109316
0.184203
0.040326
0.143554
0.017742
0.181541
0.180846
0.016765
0.082809
0.208759
0.285256
0.125238
124.606285
96.563103
130.412140
1.000000
1.000000
1.000000
0.000000
0.000000
0.000000
0.000000
0.171789
0.203678
0.014405
0.440677
0.069746
0.102601
0.235400
0.084156
0.246427
0.051458
0.150046
0.176414
0.151565
0.212383
0.186944
0.111264
0.143909
0.187430
0.193206
0.577305
0.387013
0.332234
0.183561
95.950974
1.000000
1.000000
1.000000
0.000000
0.000000
0.000000
0.000000
0.231242
0.035797
0.233557
0.403735
0.261637
0.316143
0.184472
0.172349
0.221721
0.098154
0.138073
0.182070
0.086186
0.244045
0.269924
0.147041
0.333929
0.376922
0.222015
0.254366
0.198035
0.277951
81.435326
86.229744
1.000000
1.000000
1.000000
0.000000
0.000000
0.000000
0.000000
0.331060
0.071357
0.200475
0.070287
0.254784
0.151141
0.216760
0.154422
0.168307
0.087441
0.225367
0.101708
0.211746
0.064477
0.078280
0.190926
0.354979
0.105785
0.094095
0.153336
0.212638
0.228325
0.147364
93.868385
1.000000
1.000000
1.000000
0.000000
0.000000
0.000000
0.000000
0.141419
0.053825
0.184981
0.054115
0.161727
0.024656
0.139559
0.165456
0.088890
0.159346
0.132627
0.161319
0.203885
0.286967
0.232125
0.091290
0.221333
0.480999
0.115379
0.336300
0.189564
77.215843
0.107126
95.727409
1.000000
1.000000
1.000000
0.000000
0.000000
0.000000
0.000000
0.046397
0.182880
0.207439
0.182031
0.046985
0.055301
0.152398
0.092237
0.224168
0.191989
0.308388
0.393560
0.143568
0.246007
0.135460
0.260805
0.270774
0.314085
0.037033
0.171516
0.220778
0.201223
99.516319
92.960953
1.000000
1.000000
1.000000
0.000000
0.000000
0.000000
0.000000
0.144703
0.126240
0.094570
0.125946
0.188094
0.208293
0.140223
0.150903
0.266221
0.276546
0.425024
0.407357
0.100688
0.179036
0.230745
0.110328
0.109527
0.161487
0.262182
0.291277
0.336334
0.152212
0.266349
88.231583
1.000000
1.000000
1.000000
0.000000
0.000000
0.000000
0.000000
0.185437
0.062999
0.149124
0.022428
0.172449
0.305577
0.085884
0.073819
0.254201
0.099099
0.070882
0.210443
0.234472
0.319748
0.220577
0.074770
0.125934
0.065246
0.328809
0.181667
0.273795
0.129480
0.331487
88.646439
1.000000
1.000000
1.000000
0.000000
0.000000
0.000000
0.000000
0.032775
0.095709
0.186271
0.102966
0.318682
0.193502
0.146359
0.190746
0.141847
0.214102
0.181812
0.209018
0.123087
0.213627
0.159034
0.120910
0.106041
0.339002
0.105743
0.443129
0.237037
0.407267
0.022963
87.455605
1.000000
1.000000
1.000000
0.000000
0.000000
0.000000
0.000000
0.112320
0.091226
0.058131
0.166646
0.341584
0.157083
0.115488
0.131340
0.153163
0.054595
0.287038
0.102046
0.032658
0.150270
0.176389
0.114564
0.121877
0.216289
0.108788
0.253363
0.221249
0.429553
71.710487
77.353355
1.000000
1.000000
1.000000
0.000000
0.000000
0.000000
0.000000
0.129422
0.089731
0.297452
0.343414
0.127665
0.189430
0.045984
0.073125
0.113829
0.172620
0.154034
0.185657
0.084370
0.143767
0.184179
0.249460
0.100047
0.036966
0.238829
0.262215
0.191489
0.345497
0.135161
71.559525
1.000000
1.000000
1.000000
0.000000
0.000000
0.000000
0.000000
0.078838
0.118582
0.062185
0.256264
0.208946
0.099895
0.183593
0.104388
0.102884
0.200197
0.099235
0.016047
0.052226
0.127833
0.080903
0.095721
0.179786
0.152439
0.161030
0.131664
0.086684
0.223894
78.111603
83.178612
1.000000
1.000000
1.000000
0.000000
0.000000
0.000000
0.000000
0.074645
0.028119
0.167238
0.221644
0.121568
0.153631
0.359554
0.123610
0.132740
0.159061
0.028603
0.124831
0.185552
0.037108
0.061991
0.074742
0.129006
0.067076
0.334816
0.153858
0.251331
0.140240
0.478616
80.098244
1.000000
1.000000
1.000000
0.000000
0.000000
0.000000
0.000000
0.134088
0.053598
0.116648
0.159734
0.351141
0.079434
0.052175
0.082821
0.108687
0.103964
0.063388
0.092392
0.108680
0.030699
0.136828
0.185428
0.097799
0.167177
0.120915
0.336176
0.511483
0.446459
0.516355
72.718475
1.000000
1.000000
1.000000
0.000000
0.000000
0.000000
0.000000
0.095832
0.066692
0.106459
0.072382
0.086243
0.194632
0.085542
0.224372
0.193609
0.162646
0.113944
0.198392
0.068936
0.128814
0.180708
0.314323
0.090906
0.271109
0.130506
0.620054
0.257481
0.042526
64.328896
76.875015
1.000000
1.000000
1.000000
0.000000
0.000000
0.000000
0.000000
0.228054
0.083796
0.037641
0.101403
0.151115
0.226091
0.019535
0.235951
0.182384
0.116289
0.103384
0.034158
0.129125
0.144228
0.052876
0.295871
0.290682
0.139209
0.359083
0.082980
0.722570
0.348051
0.300480
76.784187
1.000000
1.000000
1.000000
0.000000
0.000000
0.000000
0.000000
0.048038
0.158923
0.049179
0.123322
0.043534
0.081502
0.099004
0.075878
0.071910
0.124573
0.091830
0.182082
0.199698
0.190001
0.107873
0.125414
0.064169
0.228071
0.188864
0.121390
0.246337
0.352369
0.252649
77.533707
0.000000
0.000000
0.000000
0.000000
0.150002
0.123194
0.112095
0.082684
0.091321
0.061221
0.174219
0.146745
0.084757
0.147124
0.216795
0.313647
0.299557
0.055812
0.236388
0.246387
0.113243
0.167678
0.065287
0.173623
0.450130
0.132189
0.564729
80.652252
0.000000
0.000000
0.000000
0.000000
0.095909
0.156707
0.151101
0.070409
0.128948
0.099671
0.235012
0.069465
0.171396
0.101716
0.157123
0.182240
0.062284
0.119418
0.110249
0.199415
0.096105
0.167780
0.179256
0.426205
0.426448
0.584410
0.458429
76.757446
0.000000
0.000000
0.000000
0.000000
0.010428
0.113987
0.145965
0.062542
0.098418
0.057164
0.042175
0.115857
0.086145
0.152865
0.111356
0.095694
0.114902
0.123311
0.138317
0.141044
0.198557
0.190945
0.252934
0.299783
0.510837
0.357527
78.212257
89.752228
0.000000
0.000000
0.000000
0.000000
0.070448
0.085533
0.188687
0.111492
0.124614
0.095283
0.170006
0.193956
0.360308
0.122772
0.100420
0.102165
0.189200
0.213903
0.141678
0.057547
0.123924
0.278769
0.082044
0.255123
0.443828
0.536747
74.873856
87.355690
0.000000
0.000000
0.000000
0.000000
0.012205
0.052684
0.025980
0.123526
0.222177
0.208321
0.086917
0.097889
0.144344
0.230788
0.014361
0.205185
0.091527
0.112319
0.188240
0.159534
0.197013
0.190276
0.113048
0.095228
0.204368
0.197227
0.326223
88.703926
0.000000
0.000000
0.000000
0.000000
0.099252
0.025098
0.044797
0.049409
0.193320
0.081215
0.070318
0.146990
0.150144
0.030493
0.094954
0.202952
0.246080
0.152149
0.238929
0.056617
0.273015
0.172207
0.093038
0.145496
0.144530
0.536977
94.717476
77.062988
0.000000
0.000000
0.000000
0.000000
0.101512
0.001373
0.060791
0.084851
0.077983
0.232702
0.076904
0.217523
0.077749
0.197762
0.177910
0.067362
0.035701
0.082845
0.206333
0.150889
0.141615
0.096059
0.121788
0.129663
0.193427
0.092655
0.209897
73.022141
0.000000
0.000000
0.000000
0.000000
0.114278
0.114707
0.082493
0.118341
0.119031
0.028204
0.294761
0.116930
0.155655
0.089554
0.036780
0.193680
0.178671
0.169596
0.127613
0.048846
0.144192
0.186665
0.117103
0.047441
0.166756
0.313843
0.197585
84.289749
0.000000
0.000000
0.000000
0.000000
0.060577
0.052807
0.058861
0.098763
0.126863
0.129880
0.282129
0.063300
0.118504
0.113947
0.038324
0.043629
0.114801
0.037905
0.250970
0.054973
0.108279
0.165158
0.355974
0.247132
0.068350
0.186097
0.151726
94.164261
0.000000
0.000000
0.000000
0.000000
0.074916
0.125683
0.109456
0.053749
0.064950
0.179405
0.260368
0.038641
0.171325
0.089521
0.114525
0.060105
0.135549
0.020789
0.100409
0.151257
0.321174
0.221228
0.366645
0.188779
0.267925
0.416089
0.220701
95.261421
0.000000
0.000000
0.000000
0.000000
0.039909
0.128489
0.124195
0.068708
0.134138
0.242251
0.064205
0.023374
0.112733
0.033885
0.123360
0.088352
0.075504
0.165665
0.123675
0.181410
0.027178
0.170198
0.243991
0.097495
0.305274
0.253720
0.282490
87.653786
0.000000
0.000000
0.000000
0.000000
0.145068
0.149920
0.047162
0.162261
0.118035
0.202651
0.192420
0.055405
0.196929
0.095562
0.107993
0.086113
0.109612
0.066222
0.140051
0.170270
0.049004
0.145073
0.132048
0.135473
0.140855
0.075439
0.199910
93.262009
0.000000
0.000000
0.000000
0.000000
0.108699
0.051719
0.005331
0.108395
0.073400
0.244842
0.050283
0.170437
0.105812
0.073570
0.058018
0.100720
0.054084
0.085515
0.046418
0.132236
0.089270
0.177962
0.172343
0.252831
0.188104
0.308051
0.386015
84.240921
0.000000
0.000000
0.000000
0.000000
0.098025
0.075511
0.141053
0.148392
0.208638
0.035516
0.037153
0.046838
0.170339
0.083590
0.077162
0.023334
0.034950
0.067534
0.064317
0.097158
0.313386
0.259641
0.115076
0.120506
0.068898
0.123977
0.358351
81.363991
0.000000
0.000000
0.000000
0.000000
0.021148
0.108704
0.062046
0.046479
0.186033
0.059949
0.074110
0.142371
0.192532
0.034602
0.075647
0.116761
0.086547
0.144776
0.165276
0.067961
0.030041
0.136239
0.220659
0.093705
0.188880
0.258024
0.530907
81.789597
0.000000
0.000000
0.000000
0.000000
0.035490
0.023246
0.083456
0.052985
0.147306
0.094399
0.028733
0.042360
0.088585
0.084163
0.247658
0.039686
0.087181
0.055510
0.069296
0.084392
0.103167
0.250998
0.239900
0.242851
0.125333
0.488105
0.546447
66.563072
0.000000
0.000000
0.000000
0.000000
0.048531
0.111558
0.152252
0.173249
0.061543
0.066514
0.043130
0.047057
0.123235
0.047122
0.125229
0.115217
0.127287
0.155199
0.084802
0.089131
0.114283
0.199619
0.196349
0.168574
0.039155
0.307843
0.429361
56.504753
0.000000
0.000000
0.000000
0.000000
0.107287
0.054887
0.153799
0.049779
0.046567
0.058936
0.041245
0.106750
0.037804
0.068244
0.101181
0.025954
0.135176
0.013295
0.144264
0.114149
0.083990
0.211498
0.169732
0.046146
0.261096
0.353036
0.328141
55.698029
0.000000
0.000000
0.000000
0.000000
0.053671
0.038009
0.052934
0.041675
0.173339
0.072219
0.079391
0.070291
0.053266
0.063127
0.116415
0.058192
0.109591
0.031232
0.153931
0.054534
0.203979
0.079773
0.052340
0.161681
0.266029
0.156474
0.418797
55.149544
0.000000
0.000000
0.000000
0.000000
0.026744
0.034317
0.092421
0.061593
0.098852
0.104348
0.047184
0.082615
0.034217
0.031659
0.019974
0.058605
0.083736
0.101203
0.065935
0.088645
0.104694
0.145493
0.278183
0.255469
0.230974
0.214918
0.278680
44.047321
0.000000
0.000000
0.000000
0.000000
0.038956
0.127842
0.037150
0.048580
0.126534
0.047415
0.073281
0.010833
0.050729
0.067147
0.151514
0.163007
0.127956
0.075739
0.128500
0.038954
0.095413
0.154517
0.082649
0.318428
0.514518
0.156354
0.207234
40.467590
0.000000
0.000000
0.000000
0.000000
0.055661
0.161946
0.075940
0.048411
0.151104
0.124934
0.035463
0.056651
0.038166
0.127721
0.036199
0.113496
0.099176
0.140988
0.222791
0.065071
0.126138
0.044730
0.041168
0.176099
0.315170
0.187417
0.090828
28.456480
0.000000
0.000000
0.000000
0.000000
0.039045
0.103861
0.066884
0.138419
0.119175
0.119103
0.081198
0.097145
0.077879
0.107543
0.097219
0.041040
0.125148
0.097402
0.120795
0.081167
0.088306
0.179218
0.229923
0.076498
0.177060
0.174448
0.281718
25.200426
0.000000
0.000000
0.000000
0.000000
0.077206
0.101531
0.115915
0.063281
0.175882
0.106815
0.088357
0.051274
0.089693
0.044252
0.016820
0.028989
0.096838
0.075395
0.261757
0.111847
0.137066
0.093436
0.064206
0.121615
0.194862
0.224393
0.193785
17.544361
0.000000
0.000000
0.000000
0.000000
0.025345
0.102163
0.111478
0.119181
0.177210
0.130949
0.076518
0.066326
0.021200
0.045845
0.155772
0.161312
0.149242
0.025992
0.016735
0.039070
0.193359
0.050962
0.123049
0.105322
0.143989
0.115193
0.160594
17.456339
0.000000
0.000000
0.000000
0.000000
0.114565
0.067321
0.136645
0.033410
0.170737
0.099985
0.106753
0.139897
0.248452
0.062747
0.142251
0.112165
0.235448
0.116552
0.196921
0.116528
0.106049
0.105101
0.086997
0.027400
0.229627
0.215699
0.115043
24.842960
0.000000
0.000000
0.000000
0.000000
0.067259
0.139639
0.097433
0.137050
0.119323
0.163942
0.057511
0.168030
0.137432
0.093640
0.158409
0.136263
0.176466
0.311902
0.046340
0.123976
0.168182
0.064567
0.097716
0.060798
0.093532
0.180332
0.321944
25.020523
0.000000
0.000000
0.000000
0.000000
0.022385
0.172813
0.094791
0.082647
0.173932
0.222211
0.219737
0.113362
0.118844
0.080901
0.064096
0.045387
0.067167
0.155097
0.245359
0.110132
0.329391
0.012558
0.209283
0.164866
0.104281
0.135494
12.678204
28.288839
0.000000
0.000000
0.000000
0.000000
0.063428
0.103343
0.050031
0.090628
0.048145
0.136075
0.277757
0.069988
0.248624
0.159292
0.032872
0.115854
0.285336
0.197645
0.182874
0.274757
0.149500
0.220428
0.051813
0.267251
0.157787
0.311832
0.318882
38.325005
0.000000
0.000000
0.000000
0.000000
0.062044
0.086426
0.031390
0.230130
0.140823
0.050511
0.101077
0.138590
0.113712
0.160991
0.078897
0.053207
0.125979
0.179262
0.072636
0.094250
0.224372
0.093545
0.416576
0.243161
0.396937
0.062472
0.279494
49.653481
0.000000
0.000000
0.000000
0.000000
0.046739
0.106511
0.157138
0.065234
0.030446
0.056466
0.102684
0.177295
0.138575
0.121032
0.117396
0.036306
0.060442
0.130340
0.092410
0.175759
0.036573
0.122001
0.274406
0.250638
0.149331
0.271839
0.549531
49.447777
0.000000
0.000000
0.000000
0.000000
0.014040
0.160393
0.090154
0.093805
0.136784
0.108260
0.149757
0.096892
0.088829
0.045333
0.187259
0.045212
0.081959
0.214340
0.104160
0.043704
0.071627
0.247147
0.307797
0.165030
0.226007
0.268722
50.450661
58.917389
0.000000
0.000000
0.000000
0.000000
0.105622
0.069433
0.135402
0.127221
0.110418
0.159408
0.210363
0.073664
0.070722
0.070698
0.121069
0.012981
0.089083
0.498274
0.110202
0.293025
0.102927
0.387870
0.240864
0.192631
0.187990
0.039339
0.161031
60.306824
0.000000
0.000000
0.000000
0.000000
0.065533
0.094354
0.080634
0.047945
0.208540
0.104507
0.128889
0.179562
0.246660
0.106600
0.037303
0.173516
0.187131
0.193994
0.110224
0.125584
0.159990
0.192596
0.216659
0.201382
0.080900
0.193701
60.242229
61.885597
0.000000
0.000000
0.000000
0.000000
0.073262
0.132757
0.195658
0.019147
0.272429
0.024187
0.154785
0.146647
0.203064
0.054051
0.044952
0.115648
0.271900
0.085868
0.196902
0.253490
0.270655
0.203735
0.119810
0.187153
0.224894
0.197336
0.640595
80.265221
0.000000
0.000000
0.000000
0.000000
0.048745
0.064868
0.161033
0.112352
0.094415
0.081381
0.041331
0.196239
0.043203
0.092616
0.230896
0.171658
0.198274
0.050515
0.248875