<?xml version='1.0' encoding='UTF-8'?>
<VTKFile xmlns='VTK' byte_order='LittleEndian' version='0.1' type='UnstructuredGrid'>
<UnstructuredGrid>
<Piece NumberOfCells='2512' NumberOfPoints='2512'>
<Points>
<DataArray NumberOfComponents='3' type='Float32' Name='Position' format='ascii'>
-0.075000 -0.075000 0.000000
-0.075000 -0.050000 0.000000
-0.075000 -0.025000 0.000000
-0.075000 0.000000 0.000000
-0.075000 0.025000 0.000000
-0.075000 0.050000 0.000000
-0.075000 0.075000 0.000000
-0.075000 0.100000 0.000000
-0.075000 0.125000 0.000000
-0.075000 0.150000 0.000000
-0.075000 0.175000 0.000000
-0.075000 0.200000 0.000000
-0.075000 0.225000 0.000000
-0.075000 0.250000 0.000000
-0.075000 0.275000 0.000000
-0.075000 0.300000 0.000000
-0.075000 0.325000 0.000000
-0.075000 0.350000 0.000000
-0.075000 0.375000 0.000000
-0.075000 0.400000 0.000000
-0.075000 0.425000 0.000000
-0.075000 0.450000 0.000000
-0.075000 0.475000 0.000000
-0.075000 0.500000 0.000000
-0.075000 0.525000 0.000000
-0.075000 0.550000 0.000000
-0.075000 0.575000 0.000000
-0.075000 0.600000 0.000000
-0.050000 -0.075000 0.000000
-0.050000 -0.050000 0.000000
-0.050000 -0.025000 0.000000
-0.050000 0.000000 0.000000
-0.050000 0.025000 0.000000
-0.050000 0.050000 0.000000
-0.050000 0.075000 0.000000
-0.050000 0.100000 0.000000
-0.050000 0.125000 0.000000
-0.050000 0.150000 0.000000
-0.050000 0.175000 0.000000
-0.050000 0.200000 0.000000
-0.050000 0.225000 0.000000
-0.050000 0.250000 0.000000
-0.050000 0.275000 0.000000
-0.050000 0.300000 0.000000
-0.050000 0.325000 0.000000
-0.050000 0.350000 0.000000
-0.050000 0.375000 0.000000
-0.050000 0.400000 0.000000
-0.050000 0.425000 0.000000
-0.050000 0.450000 0.000000
-0.050000 0.475000 0.000000
-0.050000 0.500000 0.000000
-0.050000 0.525000 0.000000
-0.050000 0.550000 0.000000
-0.050000 0.575000 0.000000
-0.050000 0.600000 0.000000
-0.025000 -0.075000 0.000000
-0.025000 -0.050000 0.000000
-0.025000 -0.025000 0.000000
-0.025000 0.000000 0.000000
-0.025000 0.025000 0.000000
-0.025000 0.050000 0.000000
-0.025000 0.075000 0.000000
-0.025000 0.100000 0.000000
-0.025000 0.125000 0.000000
-0.025000 0.150000 0.000000
-0.025000 0.175000 0.000000
-0.025000 0.200000 0.000000
-0.025000 0.225000 0.000000
-0.025000 0.250000 0.000000
-0.025000 0.275000 0.000000
-0.025000 0.300000 0.000000
-0.025000 0.325000 0.000000
-0.025000 0.350000 0.000000
-0.025000 0.375000 0.000000
-0.025000 0.400000 0.000000
-0.025000 0.425000 0.000000
-0.025000 0.450000 0.000000
-0.025000 0.475000 0.000000
-0.025000 0.500000 0.000000
-0.025000 0.525000 0.000000
-0.025000 0.550000 0.000000
-0.025000 0.575000 0.000000
-0.025000 0.600000 0.000000
0.000000 -0.075000 0.000000
0.000000 -0.050000 0.000000
0.000000 -0.025000 0.000000
0.000000 0.000000 0.000000
0.000000 0.025000 0.000000
0.000000 0.050000 0.000000
0.000000 0.075000 0.000000
0.000000 0.100000 0.000000
0.000000 0.125000 0.000000
0.000000 0.150000 0.000000
0.000000 0.175000 0.000000
0.000000 0.200000 0.000000
0.000000 0.225000 0.000000
0.000000 0.250000 0.000000
0.000000 0.275000 0.000000
0.000000 0.300000 0.000000
0.000000 0.325000 0.000000
0.000000 0.350000 0.000000
0.000000 0.375000 0.000000
0.000000 0.400000 0.000000
0.000000 0.425000 0.000000
0.000000 0.450000 0.000000
0.000000 0.475000 0.000000
0.000000 0.500000 0.000000
0.000000 0.525000 0.000000
0.000000 0.550000 0.000000
0.000000 0.575000 0.000000
0.000000 0.600000 0.000000
0.025000 -0.075000 0.000000
0.025000 -0.050000 0.000000
0.025000 -0.025000 0.000000
0.025000 0.000000 0.000000
-2942.972200 0.600000 0.000000
75.626311 -130.458135 0.000000
-25.527848 -44.049032 0.000000
18.250013 -43.069024 0.000000
0.124079 0.021555 0.000000
-66749804.863805 0.600000 0.000000
11.144071 -80.608895 0.000000
32.582627 -59.695504 0.000000
-48.366865 -9.510597 0.000000
11.870088 -351.999775 0.000000
591.046157 -2042.785728 0.000000
39.010036 -259.740756 0.000000
54146.617803 0.600000 0.000000
-19878.962234 0.600000 0.000000
-94.217018 0.600000 0.000000
-297.592017 -572.103332 0.000000
-85.689589 -84.956324 0.000000
744.577088 -1039.059057 0.000000
76.499272 -89.116105 0.000000
-1192.011386 0.600000 0.000000
305.695815 -653.394323 0.000000
-783.250444 0.600000 0.000000
-1813.735545 0.600000 0.000000
59463494.474846 0.600000 0.000000
1.715000 0.625000 0.000000
1.715000 0.650000 0.000000
1.715000 0.675000 0.000000
0.050000 -0.075000 0.000000
0.050000 -0.050000 0.000000
0.050000 -0.025000 0.000000
0.050000 0.000000 0.000000
-97.438303 0.600000 0.000000
-87.640578 -27.829830 0.000000
1282.354486 0.600000 0.000000
66.894051 0.600000 0.000000
3723.230895 0.600000 0.000000
-23.976815 -18.223236 0.000000
-22.284004 -44.943785 0.000000
-10.043739 0.281514 0.000000
-16006.124280 -29810.537599 0.000000
15547.133998 0.600000 0.000000
6.917255 -90.443717 0.000000
77.411495 -74.758041 0.000000
-200.571966 -78.771775 0.000000
2058.948804 0.491620 0.000000
16402.121624 0.600000 0.000000
-781.413861 0.600000 0.000000
-94.770015 -47.910138 0.000000
-291.783856 0.600000 0.000000
1497.888099 0.600000 0.000000
-209.449536 -277.187630 0.000000
1027.995505 0.600000 0.000000
19738.795104 -4117.331252 0.000000
195.402727 -803.566003 0.000000
2128.157513 0.600000 0.000000
1.740000 0.625000 0.000000
1.740000 0.650000 0.000000
1.740000 0.675000 0.000000
0.075000 -0.075000 0.000000
0.075000 -0.050000 0.000000
0.075000 -0.025000 0.000000
0.075000 0.000000 0.000000
-65.559477 -66.559265 0.000000
24584.471011 0.600000 0.000000
21.941507 0.600000 0.000000
-3180.613937 0.600000 0.000000
-51.857057 -37.277840 0.000000
188.376172 0.600000 0.000000
34.338543 -164.605412 0.000000
3746.029333 0.600000 0.000000
725.780154 0.600000 0.000000
37.818723 -448.886277 0.000000
121.968312 -121.039584 0.000000
-1337.772670 0.600000 0.000000
-625.027343 0.600000 0.000000
929.594726 -615.879647 0.000000
672.553679 0.600000 0.000000
24.085542 -2.502414 0.000000
3737.019822 -1486.805899 0.000000
0.487736 0.027024 0.000000
255.192592 -201.882198 0.000000
60.850430 -87.642342 0.000000
4902.280821 0.600000 0.000000
-89.268356 -246.300942 0.000000
-6865.401285 0.600000 0.000000
-1534.215270 0.600000 0.000000
1.765000 0.625000 0.000000
1.765000 0.650000 0.000000
1.765000 0.675000 0.000000
0.100000 -0.075000 0.000000
0.100000 -0.050000 0.000000
0.100000 -0.025000 0.000000
0.100000 0.000000 0.000000
-2363.934262 0.503897 0.000000
112983323.295448 0.600000 0.000000
-816.539235 -776.739579 0.000000
93743.259904 0.600000 0.000000
-7443.650722 0.600000 0.000000
-4.647227 0.600000 0.000000
-159228.320723 0.600000 0.000000
125.052630 -2.851311 0.000000
19.348191 -29.159337 0.000000
79.997386 -36.878705 0.000000
-29.784497 -52.980465 0.000000
-2318.660522 0.600000 0.000000
-161.282396 0.600000 0.000000
254.698003 -62.764117 0.000000
-180.626818 0.600000 0.000000
-148.980201 -126.585180 0.000000
0.057798 0.025422 0.000000
-28.899966 0.600000 0.000000
74.821378 -49.960273 0.000000
-232.912078 0.600000 0.000000
1.034131 0.020236 0.000000
105.101129 -156.529636 0.000000
2365.562951 0.600000 0.000000
-29722.036831 0.600000 0.000000
1.790000 0.625000 0.000000
1.790000 0.650000 0.000000
1.790000 0.675000 0.000000
0.125000 -0.075000 0.000000
0.125000 -0.050000 0.000000
0.125000 -0.025000 0.000000
0.125000 0.000000 0.000000
-670.506312 0.600000 0.000000
2101.303418 0.600000 0.000000
-1957.099288 0.600000 0.000000
-603.782033 0.600000 0.000000
7.934287 -49.278076 0.000000
146.301675 -103.786697 0.000000
-860.225398 0.600000 0.000000
-14.999432 -99.157484 0.000000
57471.076806 0.600000 0.000000
-366.638450 -1208.801763 0.000000
-488.004998 0.600000 0.000000
-7387.707358 0.600000 0.000000
-22.913067 -3.289793 0.000000
-328.748580 0.594202 0.000000
-461.045237 0.600000 0.000000
-674.336903 0.600000 0.000000
6750.513621 0.600000 0.000000
1450.661019 0.600000 0.000000
-31.233973 -117.845365 0.000000
-251.296234 -156.745086 0.000000
-140.913404 -2.236581 0.000000
2893.721965 0.600000 0.000000
716899.259964 0.600000 0.000000
-227910.471671 0.600000 0.000000
1.815000 0.625000 0.000000
1.815000 0.650000 0.000000
1.815000 0.675000 0.000000
0.150000 -0.075000 0.000000
0.150000 -0.050000 0.000000
0.150000 -0.025000 0.000000
0.150000 0.000000 0.000000
-42.243910 0.228395 0.000000
-1566.595133 0.600000 0.000000
-1.440431 -50.325310 0.000000
-179.381525 -111.180287 0.000000
-5347.674518 0.600000 0.000000
1.138851 0.028790 0.000000
324.653926 0.600000 0.000000
9.117458 -27.651853 0.000000
-188.058539 0.600000 0.000000
-4590.538797 0.600000 0.000000
-565.817122 -255.429904 0.000000
27.456129 -65.102619 0.000000
-95.139027 -87.010203 0.000000
-30611.476261 0.600000 0.000000
-9198.118474 0.600000 0.000000
-178.266195 -73.002532 0.000000
-234.857410 0.600000 0.000000
11.650896 -4991.410111 0.000000
9537.462275 0.600000 0.000000
6595.258419 0.600000 0.000000
-9210.255359 0.600000 0.000000
153.258632 -370.200358 0.000000
3769.892939 0.600000 0.000000
1520.703176 0.600000 0.000000
1.840000 0.625000 0.000000
1.840000 0.650000 0.000000
1.840000 0.675000 0.000000
0.175000 -0.075000 0.000000
0.175000 -0.050000 0.000000
0.175000 -0.025000 0.000000
0.175000 0.000000 0.000000
-416.838657 0.600000 0.000000
-4674.337370 0.600000 0.000000
10.281455 -42.821578 0.000000
75574.218260 0.600000 0.000000
851.573388 0.600000 0.000000
-191.239702 -146.920622 0.000000
21.945310 -185.390631 0.000000
285.537706 0.600000 0.000000
-1842.185620 0.600000 0.000000
-1078.071577 -551.014987 0.000000
21975.897113 0.600000 0.000000
-3399.131529 0.600000 0.000000
3730.743360 0.600000 0.000000
5983.881975 0.600000 0.000000
2212.220914 -1065.286137 0.000000
-566.771443 0.600000 0.000000
-5249.986676 -11721.028082 0.000000
4878.501474 0.600000 0.000000
26650225.926498 0.600000 0.000000
881.120683 0.600000 0.000000
9296.712325 0.600000 0.000000
-735.002505 -339.792937 0.000000
-107.012789 -658.689095 0.000000
2656.377150 0.600000 0.000000
1.865000 0.625000 0.000000
1.865000 0.650000 0.000000
1.865000 0.675000 0.000000
0.200000 -0.075000 0.000000
0.200000 -0.050000 0.000000
[...]
<PointData>
<DataArray NumberOfComponents='1' type='Int32' Name='ParticleType' format='ascii'>
3
3
3
3
3
3
3
3
3
3
3
3
3
3
3
3
3
3
3
3
3
3
3
3
3
3
3
3
3
3
3
3
3
3
3
3
3
3
3
3
3
3
3
3
3
3
3
3
3
3
3
3
3
3
3
3
3
3
2
2
2
2
2
2
2
2
2
2
2
2
2
2
2
2
2
2
2
2
2
2
2
2
2
2
3
3
2
2
2
2
2
2
2
2
2
2
2
2
2
2
2
2
2
2
2
2
2
2
2
2
2
2
3
3
2
2
0
0
0
0
0
0
0
0
0
0
0
0
0
0
0
0
0
0
0
0
0
0
0
0
1
1
1
3
3
2
2
0
0
0
0
0
0
0
0
0
0
0
0
0
0
0
0
0
0
0
0
0
0
0
0
1
1
1
3
3
2
2
0
0
0
0
0
0
0
0
0
0
0
0
0
0
0
0
0
0
0
0
0
0
0
0
1
1
1
3
3
2
2
0
0
0
0
0
0
0
0
0
0
0
0
0
0
0
0
0
0
0
0
0
0
0
0
1
1
1
3
3
2
2
0
0
0
0
0
0
0
0
0
0
0
0
0
0
0
0
0
0
0
0
0
0
0
0
1
1
1
3
3
2
2
0
0
0
0
0
0
0
0
0
0
0
0
0
0
0
0
0
0
0
0
0
0
0
0
1
1
1
3
3
2
2
0
0
0
0
0
0
0
0
0
0
0
0
0
0
0
0
0
0
0
0
0
0
0
0
1
1
1
3
3
2
2
0
0
0
0
0
0
0
0
0
0
0
0
0
0
0
0
0
0
0
0
0
0
0
0
1
1
1
3
3
2
2
0
0
0
0
0
0
0
0
0
0
0
0
0
0
0
0
0
0
0
0
0
0
0
0
1
1
1
3
3
2
2
0
0
0
0
0
0
0
0
0
0
0
0
0
0
0
0
0
0
0
0
0
0
0
0
1
1
1
3
3
2
2
0
0
0
0
0
0
0
0
0
0
0
0
0
0
0
0
0
0
0
0
0
0
0
0
1
1
1
3
3
2
2
0
0
0
0
0
0
0
0
0
0
0
0
0
0
0
0
0
0
0
0
0
0
0
0
1
1
1
3
3
2
2
0
0
0
0
0
0
0
0
0
0
0
0
0
0
0
0
0
0
0
0
0
0
0
0
1
1
1
3
3
2
2
0
0
0
0
0
0
0
0
0
0
0
0
0
0
0
0
0
0
0
0
0
0
0
0
1
1
1
3
3
2
2
0
0
0
0
0
0
0
0
0
0
0
0
0
0
0
0
0
0
0
0
0
0
0
0
1
1
1
3
3
2
2
0
0
0
0
0
0
0
0
0
0
0
0
0
0
0
0
0
0
0
0
0
0
0
0
1
1
1
3
3
2
2
0
0
0
0
0
0
0
0
0
0
0
0
0
0
0
0
0
0
0
0
0
0
0
0
3
3
2
2
0
0
0
0
0
0
0
0
0
0
0
0
0
0
0
0
0
0
0
0
0
0
0
0
3
3
2
2
0
0
0
0
0
0
0
0
0
0
0
0
0
0
0
0
0
0
0
0
0
0
0
0
3
3
2
2
0
0
0
0
0
0
0
0
0
0
0
0
0
0
0
0
0
0
0
0
0
0
0
0
3
3
2
2
0
0
0
0
0
0
0
0
0
0
0
0
0
0
0
0
0
0
0
0
0
0
0
0
3
3
2
2
0
0
0
0
0
0
0
0
0
0
0
0
0
0
0
0
0
0
0
0
0
0
0
0
3
3
2
2
0
0
0
0
0
0
0
0
0
0
0
0
0
0
0
0
0
0
0
0
0
0
0
0
3
3
2
2
0
0
0
0
0
0
0
0
0
0
0
0
0
0
0
0
0
0
0
0
0
0
0
0
3
3
2
2
0
0
0
0
0
0
0
0
0
0
0
0
0
0
0
0
0
0
0
0
0
0
0
0
3
3
2
2
0
0
0
0
0
0
0
0
0
0
0
0
0
0
0
0
0
0
0
0
0
0
0
0
3
3
2
2
0
0
0
0
0
0
0
0
0
0
0
0
0
0
0
0
0
0
0
0
0
0
0
0
3
3
2
2
0
0
0
0
0
0
0
0
0
0
0
0
0
0
0
0
0
0
0
0
0
0
0
0
3
3
2
2
0
0
0
0
0
0
0
0
0
0
0
0
0
0
0
0
0
0
0
0
0
0
0
0
3
3
2
2
0
0
0
0
0
0
0
0
0
0
0
0
0
0
0
0
0
0
0
0
0
0
0
0
3
3
2
2
0
0
0
0
0
0
0
0
0
0
0
0
0
0
0
0
0
0
0
0
0
0
0
0
3
3
2
2
0
0
0
0
0
0
0
0
0
0
0
0
0
0
0
0
0
0
0
0
0
0
0
0
3
3
2
2
0
0
0
0
0
0
0
0
0
0
0
0
0
0
0
0
0
0
0
0
0
0
0
0
3
3
2
2
0
0
0
0
0
0
0
0
0
0
0
0
0
0
0
0
0
0
0
0
0
0
0
0
3
3
2
2
0
0
0
0
0
0
0
0
0
0
0
0
0
0
0
0
0
0
0
0
0
0
0
0
3
3
2
2
0
0
0
0
0
0
0
0
0
0
0
0
0
0
0
0
0
0
0
0
0
0
0
0
3
3
2
2
0
0
0
0
0
0
0
0
0
0
0
0
0
0
0
0
0
0
0
0
0
0
0
0
3
3
2
2
0
0
0
0
0
0
0
0
0
0
0
0
0
0
0
0
0
0
0
0
0
0
0
0
3
3
2
2
0
0
0
0
0
0
0
0
0
0
0
0
0
0
0
0
0
0
0
0
0
0
0
0
3
3
2
2
0
0
0
0
0
0
0
0
0
0
0
0
0
0
0
0
0
0
0
0
0
0
0
0
3
3
2
2
0
0
0
0
0
0
0
0
0
0
0
0
0
0
0
0
0
0
0
0
0
0
0
0
3
3
2
2
0
0
0
0
0
0
0
0
0
0
0
0
0
0
0
0
0
0
0
0
0
0
0
0
3
3
2
2
0
0
0
0
0
0
0
0
0
0
0
0
0
0
0
0
0
0
0
0
0
0
0
0
3
3
2
2
0
0
0
0
0
0
0
0
0
0
0
0
0
0
0
0
0
0
0
0
0
0
0
0
3
3
2
2
0
0
0
0
0
0
0
0
0
0
0
0
0
0
0
0
0
0
0
0
0
0
0
0
3
3
2
2
0
0
0
0
0
0
0
0
0
0
0
0
0
0
0
0
0
0
0
0
0
0
0
0
3
3
2
2
0
0
0
0
0
0
0
0
0
0
0
0
0
0
0
0
0
0
0
0
0
0
0
0
3
3
2
2
0
0
0
0
0
0
0
0
0
0
0
0
0
0
0
0
0
0
0
0
0
0
0
0
3
3
2
2
0
0
0
0
0
0
0
0
0
0
0
0
0
0
0
0
0
0
0
0
0
0
0
0
3
3
2
2
0
0
0
0
0
0
0
0
0
0
0
0
0
0
0
0
0
0
0
0
0
0
0
0
3
3
2
2
0
0
0
0
0
0
0
0
0
0
0
0
0
0
0
0
0
0
0
0
0
0
0
0
3
3
2
2
0
0
0
0
0
0
0
0
0
0
0
0
0
0
0
0
0
0
0
0
0
0
0
0
3
3
2
2
0
0
0
0
0
0
0
0
0
0
0
0
0
0
0
0
0
0
0
0
0
0
0
0
3
3
2
2
0
0
0
0
0
0
0
0
0
0
0
0
0
0
0
0
0
0
0
0
0
0
0
0
3
3
2
2
0
0
0
0
0
0
0
0
0
0
0
0
0
0
0
0
0
0
0
0
0
0
0
0
3
3
2
2
0
0
0
0
0
0
0
0
0
0
0
0
0
0
0
0
0
0
0
0
0
0
0
0
3
3
2
2
0
0
0
0
0
0
0
0
0
0
0
0
0
0
0
0
0
0
0
0
0
0
0
0
3
3
2
2
0
0
0
0
0
0
0
0
0
0
0
0
0
0
0
0
0
0
0
0
0
0
0
0
3
3
2
2
0
0
0
0
0
0
0
0
0
0
0
0
0
0
0
0
0
0
0
0
0
0
0
0
3
3
2
2
0
0
0
0
0
0
0
0
0
0
0
0
0
0
0
0
0
0
0
0
0
0
0
0
3
3
2
2
0
0
0
0
0
0
0
0
0
0
0
0
0
0
0
0
0
0
0
0
0
0
0
0
3
3
2
2
0
0
0
0
0
0
0
0
0
0
0
0
0
0
0
0
0
0
0
0
0
0
0
0
3
3
2
2
0
0
0
0
0
0
0
0
0
0
0
0
0
0
0
0
0
0
0
0
0
0
0
0
3
3
2
2
0
0
0
0
0
0
0
0
0
0
0
0
0
0
0
0
0
0
0
0
0
0
0
0
3
3
2
2
0
0
0
0
0
0
0
0
0
0
0
0
0
0
0
0
0
0
0
0
0
0
0
0
3
3
2
2
0
0
0
0
0
0
0
0
0
0
0
0
0
0
0
0
0
0
0
0
0
0
0
0
3
3
2
2
0
0
0
0
0
0
0
0
0
0
0
0
0
0
0
0
0
0
0
0
0
0
0
0
3
3
2
2
0
0
0
0
0
0
0
0
0
0
0
0
0
0
0
0
0
0
0
0
0
0
0
0
3
3
2
2
0
0
0
0
0
0
0
0
0
0
0
0
0
0
0
0
0
0
0
0
0
0
0
0
3
3
2
2
0
0
0
0
0
0
0
0
0
0
0
0
0
0
0
0
0
0
0
0
0
0
0
0
3
3
2
2
0
0
0
0
0
0
0
0
0
0
0
0
0
0
0
0
0
0
0
0
0
0
0
0
3
3
2
2
0
0
0
0
0
0
0
0
0
0
0
0
0
0
0
0
0
0
0
0
0
0
0
0
3
3
2
2
0
0
0
0
0
0
0
0
0
0
0
0
0
0
0
0
0
0
0
0
0
0
0
0
3
3
2
2
0
0
0
0
0
0
0
0
0
0
0
0
0
0
0
0
0
0
0
0
0
0
0
0
3
3
2
2
0
0
0
0
0
0
0
0
0
0
0
0
0
0
0
0
0
0
0
0
0
0
0
0
3
3
2
2
0
0
0
0
0
0
0
0
0
0
0
0
0
0
0
0
0
0
0
0
0
0
0
0
3
3
2
2
0
0
0
0
0
0
0
0
0
0
0
0
0
0
0
0
0
0
0
0
0
0
0
0
3
3
2
2
0
0
0
0
0
0
0
0
0
0
0
0
0
0
0
0
0
0
0
0
0
0
0
0
3
3
2
2
0
0
0
0
0
0
0
0
0
0
0
0
0
0
0
0
0
0
0
0
0
0
0
0
3
3
2
2
0
0
0
0
0
0
0
0
0
0
0
0
0
0
0
0
0
0
0
0
0
0
0
0
3
3
2
2
2
2
2
2
2
2
2
2
2
2
2
2
2
2
2
2
2
2
2
2
2
2
2
2
3
3
2
2
2
2
2
2
2
2
2
2
2
2
2
2
2
2
2
2
2
2
2
2
2
2
2
2
3
3
3
3
3
3
3
3
3
3
3
3
3
3
3
3
3
3
3
3
3
3
3
3
3
3
3
3
3
3
3
3
3
3
3
3
3
3
3
3
3
3
3
3
3
3
3
3
3
3
3
3
3
3
3
3
</DataArray>
<DataArray NumberOfComponents='1' type='Float32' Name='Velocity' format='ascii'>
0.000000
0.000000
0.000000
0.000000
0.000000
0.000000
0.000000
0.000000
0.000000
0.000000
0.000000
0.000000
0.000000
0.000000
0.000000
0.000000
0.000000
0.000000
0.000000
0.000000
0.000000
0.000000
0.000000
0.000000
0.000000
0.000000
0.000000
0.000000
0.000000
0.000000
0.000000
0.000000
0.000000
0.000000
0.000000
0.000000
0.000000
0.000000
0.000000
0.000000
0.000000
0.000000
0.000000
0.000000
0.000000
0.000000
0.000000
0.000000
0.000000
0.000000
0.000000
0.000000
0.000000
0.000000
0.000000
0.000000
0.000000
0.000000
0.000000
0.000000
0.000000
0.000000
0.000000
0.000000
0.000000
0.000000
0.000000
0.000000
0.000000
0.000000
0.000000
0.000000
0.000000
0.000000
0.000000
0.000000
0.000000
0.000000
0.000000
0.000000
0.000000
0.000000
0.000000
0.000000
0.000000
0.000000
0.000000
0.000000
0.000000
0.000000
0.000000
0.000000
0.000000
0.000000
0.000000
0.000000
0.000000
0.000000
0.000000
0.000000
0.000000
0.000000
0.000000
0.000000
0.000000
0.000000
0.000000
0.000000
0.000000
0.000000
0.000000
0.000000
0.000000
0.000000
0.000000
0.000000
4401.126953
214.104599
74.454445
68.776237
0.929565
95356864.000000
117.573105
98.701637
69.728615
528.418701
2977.966797
370.767334
76158.234375
28428.906250
148.500229
904.313049
171.476883
1791.198242
170.095383
1675.700195
1008.577698
1148.956909
2536.146973
83049576.000000
1.000000
1.000000
1.000000
0.000000
0.000000
0.000000
0.000000
136.518494
131.391235
1853.202515
101.643959
5235.555664
45.051014
73.635666
51.874363
47326.300781
49280.710938
130.727524
155.820480
302.964813
3767.475098
23500.082031
1095.150757
150.092621
427.224762
2117.505859
491.397461
1533.199951
28241.195312
1155.715576
2971.953125
1.000000
1.000000
1.000000
0.000000
0.000000
0.000000
0.000000
133.512039
35737.613281
37.284065
4700.214844
91.557549
290.053467
244.353775
5296.682129
1016.881958
648.777771
243.451050
1881.049683
907.144714
1563.910767
945.352722
33.887814
5673.819824
1.766277
459.880676
152.986832
6866.503906
370.248077
9610.120117
2164.322998
1.000000
1.000000
1.000000
0.000000
0.000000
0.000000
0.000000
4556.876465
164219952.000000
1583.101318
135656.203125
10448.500000
130.541824
227129.031250
175.765778
52.196053
125.406349
88.749062
3279.337402
269.604614
368.528076
330.643738
277.961029
0.618954
430.976746
130.932922
347.052826
1.338300
267.689240
3320.217041
41519.179688
1.000000
1.000000
1.000000
0.000000
0.000000
0.000000
0.000000
1028.733765
3408.589111
2795.791016
887.051636
74.105698
252.547119
1506.970459
144.548004
81647.414062
1775.283691
885.882446
12657.917969
36.152458
470.796875
662.651917
1093.371216
10191.774414
2078.022949
175.891037
417.815186
196.340240
4151.599121
998466.625000
324624.781250
1.000000
1.000000
1.000000
0.000000
0.000000
0.000000
0.000000
44.237988
2226.841064
74.082214
299.044983
7623.876465
1.467796
466.583527
44.594543
232.293091
6514.467773
871.123718
102.254341
185.865875
42874.464844
12942.615234
271.246765
356.902771
7004.870117
13420.323242
9315.258789
12991.087891
561.804138
5252.241699
2126.062744
1.000000
1.000000
1.000000
0.000000
0.000000
0.000000
0.000000
622.110474
6834.307129
65.233337
107050.984375
1221.707642
339.719116
265.051422
438.040039
2641.790283
1697.620850
31802.392578
5007.596680
5385.495605
8406.670898
3479.668945
805.072144
17941.044922
6927.337891
37641568.000000
1239.929810
12991.578125
1131.258789
932.428589
3816.143799
1.000000
1.000000
1.000000
0.000000
0.000000
0.000000
0.000000
996.533936
2529.588379
1055.655273
941.899719
2521.508789
119.029709
27921.130859
287566.156250
1587.352051
1610.513428
100.836342
130.576630
323.997772
24645172.000000
1351.188843
15050.986328
1111.211792
1790.805542
1779.769409
4261.488281
17893.654297
2291.385498
1940.473755
2322.532227
1.000000
1.000000
1.000000
0.000000
0.000000
0.000000
0.000000
51.543102
10989698.000000
2051.010986
84.022621
769.818726
196.469604
20260.875000
485.822174
2113.555664
370.275879
6044.625488
393.412170
8532.465820
1151.686035
156.123108
0.460352
174149.875000
204.635223
266.022339
68543.257812
1493.354736
26142.492188
97.078423
191028.375000
1.000000
1.000000
1.000000
0.000000
0.000000
0.000000
0.000000
43348.945312
297.586914
130.963516
8021.445801
16063.663086
668.345032
1101.052246
12930.005859
190196.281250
589.875000
165.984390
945.045593
1673.381348
204.462357
93.191971
118.437462
266763.218750
160.284027
353.263702
289706.187500
499.452332
1109.114258
95400.984375
95085.882812
1.000000
1.000000
1.000000
0.000000
0.000000
0.000000
0.000000
609.565674
136.066986
1755.332031
38.177265
1783.048340
155.333817
95.291725
163.490707
248.394760
164.404388
859.853455
2965.614014
2010.244629
672.494629
304234.031250
60897.398438
109189544.000000
856.708740
43348.007812
5689.025879
128.642090
9136.442383
3866.502441
3980.150146
1.000000
1.000000
1.000000
0.000000
0.000000
0.000000
0.000000
294.969879
1010911488.000000
272.740631
313831.718750
43311.789062
41954936.000000
8092.957520
9932.341797
331.704865
408.916321
1308.263794
11015329.000000
864.105530
7859819520.000000
32.607826
57765.027344
117242.046875
1863.468262
622.931824
53.594887
7545.453125
6939.761719
161842336.000000
7707.915527
1.000000
1.000000
1.000000
0.000000
0.000000
0.000000
0.000000
816.868347
300.163086
103.274391
90.916901
108.654488
10577.910156
167.607086
164.107529
141.095718
2428.508057
6692.482422
1625.076660
349.861572
59.494465
2802.834229
383.211700
340.073273
65.003342
431.185760
1685.335205
695.547180
74.852242
39987.753906
4008.678955
1.000000
1.000000
1.000000
0.000000
0.000000
0.000000
0.000000
85.988762
1914.580566
187.569763
32.876759
240.788910
336.627319
2331.833496
7078.442383
854.740601
1095.036377
20025.849609
76.880463
404.689423
252.923706
249.274567
9486.338867
49153.605469
268.200470
90296.820312
276.867584
6454.168945
1132.357666
5125.191895
998081.687500
1.000000
1.000000
1.000000
0.000000
0.000000
0.000000
0.000000
118.392242
81898.585938
126.053444
0.439882
144.874939
595.719055
107.016525
2075.110107
41956152.000000
85.787292
884.136169
1016.887817
339448.062500
24146.164062
484.731750
713.959839
1162.001465
222.892639
1295.734375
54.452892
1557.081665
82941672.000000
954.002441
15229.210938
1.000000
1.000000
1.000000
0.000000
0.000000
0.000000
0.000000
1401.915039
44920.683594
323.205170
288.257477
467.447754
909.742554
143.245926
1768.274292
215.689713
2585.748291
17707.166016
452.318909
2946.391846
694.307312
216.493073
48621.312500
97.649994
12590.270508
3798.602783
1775.507080
127.954666
1779.720215
1133.726562
15809.685547
1.000000
1.000000
1.000000
0.000000
0.000000
0.000000
0.000000
243.167404
1060.075806
201.032318
516.883301
23249.570312
36.249580
1803.326416
2049.797119
4755.342285
129.224762
612.997314
4968.327637
3716.916016
182.323669
277.241974
134.529709
361.961334
384.493774
159659.750000
193.963348
5987.981445
73.561218
104.706596
4414.807617
0.000000
0.000000
0.000000
0.000000
62.169136
39281.582031
2572.677734
156.048279
2681.253906
4977.344727
2318.866699
9501.790039
2523.654541
21144.644531
6729.100098
7730.208008
195.035599
98441824.000000
1942.807007
495978.718750
6310.326660
25976.507812
421.904388
553.437988
96046.179688
27242.648438
148.980972
1061.947388
0.000000
0.000000
0.000000
0.000000
1952.475220
668.922241
135.729660
379.865662
299.049286
5029.970215
124.211739
65.212051
172.306473
8015.218262
1055.107300
3710.466553
98599.757812
236.357803
131.388199
162.212723
288.946503
530.188049
4829300.500000
19885750.000000
1419.868652
2164.438477
609.688843
15961.953125
0.000000
0.000000
0.000000
0.000000
56.281628
1297.815674
471.893951
3293.938721
3091.689697
181.973480
13265.567383
470.609741
124.760025
288258.031250
50.758968
1298.000000
528.361511
43177.480469
903.756165
1069.160400
1930363.250000
14035.940430
198.281616
54.730125
2958.183105
698.216064
1277.275635
4774220.000000
0.000000
0.000000
0.000000
0.000000
1512.745117
1345.512695
163.049469
4118.668457
43065.175781
605.988708
409.625824
352.360535
687.835144
302.747375
1742.340698
270.941589
580.414124
169.530579
118.602646
101.147102
5530499.500000
211.442886
1230.826660
352.628357
4797.628906
2164.358154
1856.409302
2571.288574
0.000000
0.000000
0.000000
0.000000
129.340759
732.376831
58.253292
1666460.000000
23588.001953
280.775848
65.026299
73.949554
1927.930298
6807.070312
203547328.000000
139.556702
2088.075195
817.411987
278.327271
118.099304
736.601074
197.388687
188.074646
330.847351
1228.385132
307293.531250
348.214417
1176.094116
0.000000
0.000000
0.000000
0.000000
416.568756
1507.779541
266.562744
1458.583130
125.367920
2293.132324
466.923401
39930.300781
97.658401
30677.167969
1211.073975
226.464508
3374.525146
65.017395
3205.609375
102359.640625
1634.929688
153.703537
3966.246338
254.778122
38518.191406
122.151382
709.015259
2748.317383
0.000000
0.000000
0.000000
0.000000
70.487267
1.703073
9624.394531
367294.187500
354.247650
210.435501
57535692.000000
21693.769531
798.489807
892.211731
6318.589355
1935943.625000
143.313202
101.978928
1904.948486
985.725281
1161.419312
1434.337646
4917.659180
1235.623169
203547792.000000
40052.699219
4401.754883
9517.328125
0.000000
0.000000
0.000000
0.000000
65.697525
420902.468750
289.913605
1.487579
139926.343750
87.314171
15248.640625
1197.792236
371.553650
335.829590
795.481689
2211.740479
17535.966797
28250.267578
1566.516357
191.621918
259.536713
312.077911
1241.873047
2.101092
15372175.000000
92.738113
417.924561
1086.344116
0.000000
0.000000
0.000000
0.000000
622.408630
49.850960
3202.763184
901.602905
2151.223389
297.263214
709960.875000
352.253601
448.157440
9596.981445
677.561401
127.263817
43.740444
49.362309
444.348267
3.817513
1020.047729
853.390991
3773.872559
300.641907
3791.626709
12455.855469
5500.580566
4545.064453
0.000000
0.000000
0.000000
0.000000
1068.875732
163.256897
10160.015625
24003.609375
0.397405
79958.921875
81155.093750
140152.687500
2076.811035
92.706978
107.678970
330.577209
1349.054810
1.012584
885.146667
615.662781
71.539040
58.643131
937.165894
1079.110474
2232.760254
995.763123
158.725601
1799.750977
0.000000
0.000000
0.000000
0.000000
16078.161133
69402.570312
862.567505
102.176018
205149.765625
798.757812
165.829575
4412.470703
1246.509277
90.741951
24622.746094
22168.789062
260.341370
10533.938477
372.336395
289.324371
1438.827515
2014.736572
539.915527
27196.541016
235.727692
6550.518066
87.652283
8849.796875
0.000000
0.000000
0.000000
0.000000
16155.355469
112181.320312
710.009827
1525.545532
126.634277
94768.734375
305.502136
3324.637695
3163.091797
479.717743
454.743439
218.946579
1100.679810
5126.432617
12372.877930
82307.070312
81594.234375
25816.574219
580.068604
966.862061
163329.265625
107688.367188
1087.398926
2166.479248
0.000000
0.000000
0.000000
0.000000
475.039276
78.632416
67.999847
85.241653
107776.617188
3961.688477
1711.493042
336.607086
697.900635
663460.062500
2239.579834
1529.770874
1049.730713
23744.457031
53.530636
155.390152
105.926605
111.734695
960.766602
228.420319
228.070404
2351.903564
370.517792
2051.803223
0.000000
0.000000
0.000000
0.000000
12854.551758
64.510017
786193.125000
725.783875
261.209290
310.428711
358.855316
1898.093506
9.392426
22492.000000
29818181648384.000000
500.074432
619.616699
804.135071
176.408646
813.148499
302.278137
141.656036
297.312195
65.706604
716.280884
32273.296875
7112.015137
6859.636719
0.000000
0.000000
0.000000
0.000000
2045.325806
11138.313477
1783.471924
155.415451
1586.811401
4642.090332
336.170593
12982.891602
19754.939453
345.761292
3009.620117
49007.937500
865.592468
251.993195
6126.143555
615.757751
1226.351196
544.997864
82.376717
3512.699219
90958.132812
379.789124
1720.955811
20952.001953
0.000000
0.000000
0.000000
0.000000
84.542213
71.578125
3367.792969
209.796219
19581.974609
1957.228271
801.582214
482.620270
550.095947
125.781868
45.747456
71.661652
112.312309
1251777920.000000
3622.098877
157.834442
239.800568
205.106461
132.307602
39098.574219
279.180359
5787.416992
22682.046875
5684.566895
0.000000
0.000000
0.000000
0.000000
109266000.000000
4917.507324
1119.041504
94.102249
297.150360
1107.505737
1.396515
95356440.000000
1633.805176
16802.968750
1750.534424
147.948502
24.661245
83.364639
24338.175781
251.017166
3994.009766
834.670715
1149.128418
166.775909
304.962708
2319.582275
11944.692383
5083.645996
0.000000
0.000000
0.000000
0.000000
128181.062500
2.182484
215609.859375
535.780518
122.447121
5.699703
152.817429
386.423431
550.755615
13220.561523
46276.191406
185422.359375
1103.050659
29612.632812
1146.778687
2676.360840
6082527.000000
246.011078
579.353027
48.719151
14900.020508
373.982971
2858.103027
23664962.000000
0.000000
0.000000
0.000000
0.000000
190374.984375
104.918396
550.362061
229.011154
22320.564453
3954.819580
9132.141602
117335.429688
1644.664429
545.432556
76.200287
687.080933
36312.179688
162.448380
46.628254
169.852524
202056.750000
4900.608398
1322.624878
118.636894
1745.549561
453.580353
714.127808
3153.950439
0.000000
0.000000
0.000000
0.000000
68.264450
1.085276
19159504.000000
961.569580
132.770340
500.890869
356.908630
3015.855713
369.019348
15209.786133
347.936218
344.490112
2974.664062
287.218323
413.065125
113043.062500
1574.816528
3447.216797
2708.868652
3056.274902
905.255310
761.163879
39001.589844
11095.354492
0.000000
0.000000
0.000000
0.000000
59.301922
402.051300
488.734833
7979.306641
698.291748
831.812012
2776.283936
172.512878
15609.963867
13.295652
1801.417725
284.966949
114.055397
77766.054688
1173.729248
2781.062500
652.956604
308.800751
3431.918457
1632.884766
535.554199
174261.531250
451.240784
79955.390625
0.000000
0.000000
0.000000
0.000000
33.838665
124.618301
118.097763
810.357239
104.954918
206.180740
78.589760
45.280136
15372272.000000
125.073517
80961.031250
448975.000000
1671.855225
158.287384
289.040222
98099.492188
2749.295166
944355.062500
363.509552
129.383163
21630.878906
70.450935
137.549088
4928.854004
0.000000
0.000000
0.000000
0.000000
83570.046875
172.744858
2605.954590
2180.895264
1034.986206
173770.312500
78.295387
644.336609
585.419922
57.105774
211.244720
483.862061
1.527929
4055.067871
3390.718994
587638.875000
261.561157
313.844269
220.548859
795.161072
696.480774
111.878487
207.641510
954.430298
0.000000
0.000000
0.000000
0.000000
111.498581
106.562843
175.784210
319320.937500
2216.655762
2.776808
221.987213
3293.488281
570.496094
6088.069824
27423.613281
21588.632812
42.751842
432.266907
8697.526367
173.402222
30.335548
128166.570312
17507.464844
4536.631348
7346.255371
196823.437500
147.990829
8062.224121
0.000000
0.000000
0.000000
0.000000
338.854065
2884.248047
397.403503
94.329002
10510.978516
2768.826172
3398.420410
8100.892090
68835.500000
171.318192
215246224.000000
4244.209473
876.537109
229.080338
101.968109
488973.312500
38.079498
112331.820312
2133.394531
119.097008
2612.204590
2150.507080
91.295456