<?xml version='1.0' encoding='UTF-8'?>
<VTKFile xmlns='VTK' byte_order='LittleEndian' version='0.1' type='UnstructuredGrid'>
<UnstructuredGrid>
<Piece NumberOfCells='2512' NumberOfPoints='2512'>
<Points>
<DataArray NumberOfComponents='3' type='Float32' Name='Position' format='ascii'>
-0.075000 -0.075000 0.000000
-0.075000 -0.050000 0.000000
-0.075000 -0.025000 0.000000
-0.075000 0.000000 0.000000
-0.075000 0.025000 0.000000
-0.075000 0.050000 0.000000
-0.075000 0.075000 0.000000
-0.075000 0.100000 0.000000
-0.075000 0.125000 0.000000
-0.075000 0.150000 0.000000
-0.075000 0.175000 0.000000
-0.075000 0.200000 0.000000
-0.075000 0.225000 0.000000
-0.075000 0.250000 0.000000
-0.075000 0.275000 0.000000
-0.075000 0.300000 0.000000
-0.075000 0.325000 0.000000
-0.075000 0.350000 0.000000
-0.075000 0.375000 0.000000
-0.075000 0.400000 0.000000
-0.075000 0.425000 0.000000
-0.075000 0.450000 0.000000
-0.075000 0.475000 0.000000
-0.075000 0.500000 0.000000
-0.075000 0.525000 0.000000
-0.075000 0.550000 0.000000
-0.075000 0.575000 0.000000
-0.075000 0.600000 0.000000
-0.050000 -0.075000 0.000000
-0.050000 -0.050000 0.000000
-0.050000 -0.025000 0.000000
-0.050000 0.000000 0.000000
-0.050000 0.025000 0.000000
-0.050000 0.050000 0.000000
-0.050000 0.075000 0.000000
-0.050000 0.100000 0.000000
-0.050000 0.125000 0.000000
-0.050000 0.150000 0.000000
-0.050000 0.175000 0.000000
-0.050000 0.200000 0.000000
-0.050000 0.225000 0.000000
-0.050000 0.250000 0.000000
-0.050000 0.275000 0.000000
-0.050000 0.300000 0.000000
-0.050000 0.325000 0.000000
-0.050000 0.350000 0.000000
-0.050000 0.375000 0.000000
-0.050000 0.400000 0.000000
-0.050000 0.425000 0.000000
-0.050000 0.450000 0.000000
-0.050000 0.475000 0.000000
-0.050000 0.500000 0.000000
-0.050000 0.525000 0.000000
-0.050000 0.550000 0.000000
-0.050000 0.575000 0.000000
-0.050000 0.600000 0.000000
-0.025000 -0.075000 0.000000
-0.025000 -0.050000 0.000000
-0.025000 -0.025000 0.000000
-0.025000 0.000000 0.000000
-0.025000 0.025000 0.000000
-0.025000 0.050000 0.000000
-0.025000 0.075000 0.000000
-0.025000 0.100000 0.000000
-0.025000 0.125000 0.000000
-0.025000 0.150000 0.000000
-0.025000 0.175000 0.000000
-0.025000 0.200000 0.000000
-0.025000 0.225000 0.000000
-0.025000 0.250000 0.000000
-0.025000 0.275000 0.000000
-0.025000 0.300000 0.000000
-0.025000 0.325000 0.000000
-0.025000 0.350000 0.000000
-0.025000 0.375000 0.000000
-0.025000 0.400000 0.000000
-0.025000 0.425000 0.000000
-0.025000 0.450000 0.000000
-0.025000 0.475000 0.000000
-0.025000 0.500000 0.000000
-0.025000 0.525000 0.000000
-0.025000 0.550000 0.000000
-0.025000 0.575000 0.000000
-0.025000 0.600000 0.000000
0.000000 -0.075000 0.000000
0.000000 -0.050000 0.000000
0.000000 -0.025000 0.000000
0.000000 0.000000 0.000000
0.000000 0.025000 0.000000
0.000000 0.050000 0.000000
0.000000 0.075000 0.000000
0.000000 0.100000 0.000000
0.000000 0.125000 0.000000
0.000000 0.150000 0.000000
0.000000 0.175000 0.000000
0.000000 0.200000 0.000000
0.000000 0.225000 0.000000
0.000000 0.250000 0.000000
0.000000 0.275000 0.000000
0.000000 0.300000 0.000000
0.000000 0.325000 0.000000
0.000000 0.350000 0.000000
0.000000 0.375000 0.000000
0.000000 0.400000 0.000000
0.000000 0.425000 0.000000
0.000000 0.450000 0.000000
0.000000 0.475000 0.000000
0.000000 0.500000 0.000000
0.000000 0.525000 0.000000
0.000000 0.550000 0.000000
0.000000 0.575000 0.000000
0.000000 0.600000 0.000000
0.025000 -0.075000 0.000000
0.025000 -0.050000 0.000000
0.025000 -0.025000 0.000000
0.025000 0.000000 0.000000
0.025372 0.024331 0.000000
0.025092 0.049127 0.000000
0.025074 0.074507 0.000000
0.025532 0.098793 0.000000
0.024515 0.124374 0.000000
0.025744 0.148813 0.000000
0.024582 0.174282 0.000000
0.025413 0.199130 0.000000
0.024834 0.224292 0.000000
0.025143 0.249744 0.000000
0.024763 0.274662 0.000000
0.025183 0.300783 0.000000
0.024395 0.325260 0.000000
0.025092 0.352484 0.000000
0.024755 0.376440 0.000000
0.024345 0.404491 0.000000
0.024382 0.428779 0.000000
0.024139 0.457938 0.000000
0.023752 0.483306 0.000000
0.024191 0.511931 0.000000
0.024238 0.538180 0.000000
0.025120 0.564969 0.000000
0.040509 0.588673 0.000000
0.013720 0.600000 0.000000
0.485000 0.625000 0.000000
0.485000 0.650000 0.000000
0.485000 0.675000 0.000000
0.050000 -0.075000 0.000000
0.050000 -0.050000 0.000000
0.050000 -0.025000 0.000000
0.050000 0.000000 0.000000
0.050612 0.025499 0.000000
0.049352 0.050162 0.000000
0.049770 0.076742 0.000000
0.049861 0.101536 0.000000
0.049456 0.127869 0.000000
0.049750 0.152633 0.000000
0.049171 0.179145 0.000000
0.049639 0.203716 0.000000
0.048983 0.230407 0.000000
0.049456 0.254668 0.000000
0.049036 0.281170 0.000000
0.049115 0.305338 0.000000
0.049016 0.331560 0.000000
0.048877 0.355293 0.000000
0.048387 0.381353 0.000000
0.048954 0.405801 0.000000
0.047751 0.430944 0.000000
0.047445 0.455824 0.000000
0.049016 0.480840 0.000000
0.045535 0.504815 0.000000
0.052964 0.529735 0.000000
0.043815 0.552662 0.000000
0.063042 0.573538 0.000000
0.049527 0.600000 0.000000
0.510000 0.625000 0.000000
0.510000 0.650000 0.000000
0.510000 0.675000 0.000000
0.075000 -0.075000 0.000000
0.075000 -0.050000 0.000000
0.075000 -0.025000 0.000000
0.075000 0.000000 0.000000
0.076150 0.024342 0.000000
0.073875 0.048737 0.000000
0.074762 0.074071 0.000000
0.074380 0.098392 0.000000
0.074220 0.123298 0.000000
0.074738 0.148030 0.000000
0.073898 0.172534 0.000000
0.075078 0.197639 0.000000
0.073746 0.221627 0.000000
0.075595 0.247039 0.000000
0.073290 0.270974 0.000000
0.076593 0.296093 0.000000
0.073188 0.320043 0.000000
0.075937 0.344761 0.000000
0.074854 0.369470 0.000000
0.073175 0.393751 0.000000
0.076153 0.418509 0.000000
0.072077 0.442739 0.000000
0.074474 0.468530 0.000000
0.074206 0.493058 0.000000
0.074095 0.515709 0.000000
0.072829 0.546008 0.000000
0.086158 0.566967 0.000000
0.079096 0.594296 0.000000
0.535000 0.625000 0.000000
0.535000 0.650000 0.000000
0.535000 0.675000 0.000000
0.100000 -0.075000 0.000000
0.100000 -0.050000 0.000000
0.100000 -0.025000 0.000000
0.100000 0.000000 0.000000
0.101254 0.025009 0.000000
0.099144 0.050289 0.000000
0.099484 0.075807 0.000000
0.100161 0.100731 0.000000
0.099059 0.126420 0.000000
0.100011 0.151037 0.000000
0.098771 0.177094 0.000000
0.099723 0.201961 0.000000
0.098777 0.228561 0.000000
0.099431 0.253694 0.000000
0.098612 0.281018 0.000000
0.099909 0.306491 0.000000
0.098576 0.334213 0.000000
0.100551 0.358664 0.000000
0.098226 0.385934 0.000000
0.100143 0.409441 0.000000
0.097917 0.437986 0.000000
0.097442 0.459677 0.000000
0.099502 0.488367 0.000000
0.100203 0.510788 0.000000
0.094921 0.537709 0.000000
0.108965 0.552917 0.000000
0.108257 0.594363 0.000000
0.092464 0.600000 0.000000
0.560000 0.625000 0.000000
0.560000 0.650000 0.000000
0.560000 0.675000 0.000000
0.125000 -0.075000 0.000000
0.125000 -0.050000 0.000000
0.125000 -0.025000 0.000000
0.125000 0.000000 0.000000
0.127035 0.024733 0.000000
0.123237 0.048767 0.000000
0.124268 0.074474 0.000000
0.125003 0.098747 0.000000
0.123455 0.123501 0.000000
0.124929 0.148621 0.000000
0.123142 0.172906 0.000000
0.124679 0.198412 0.000000
0.122793 0.222256 0.000000
0.124207 0.247896 0.000000
0.122672 0.271909 0.000000
0.124347 0.297232 0.000000
0.122252 0.321501 0.000000
0.125954 0.346692 0.000000
0.121506 0.372163 0.000000
0.127053 0.397522 0.000000
0.120947 0.422003 0.000000
0.127273 0.448264 0.000000
0.122117 0.469969 0.000000
0.127209 0.497216 0.000000
0.123106 0.519080 0.000000
0.136202 0.548383 0.000000
0.126492 0.566691 0.000000
0.128807 0.600000 0.000000
0.585000 0.625000 0.000000
0.585000 0.650000 0.000000
0.585000 0.675000 0.000000
0.150000 -0.075000 0.000000
0.150000 -0.050000 0.000000
0.150000 -0.025000 0.000000
0.150000 0.000000 0.000000
0.151987 0.024915 0.000000
0.148511 0.050134 0.000000
0.149810 0.075973 0.000000
0.149974 0.100637 0.000000
0.149083 0.126564 0.000000
0.150059 0.151275 0.000000
0.148261 0.177350 0.000000
0.149920 0.201771 0.000000
0.147998 0.228428 0.000000
0.149662 0.252727 0.000000
0.147689 0.278621 0.000000
0.150206 0.303411 0.000000
0.147222 0.329404 0.000000
0.150567 0.353754 0.000000
0.146203 0.380009 0.000000
0.151708 0.403922 0.000000
0.145357 0.430194 0.000000
0.153890 0.453163 0.000000
0.145102 0.480763 0.000000
0.156167 0.502144 0.000000
0.145922 0.528533 0.000000
0.163391 0.549462 0.000000
0.151795 0.582992 0.000000
0.141906 0.600000 0.000000
0.610000 0.625000 0.000000
0.610000 0.650000 0.000000
0.610000 0.675000 0.000000
0.175000 -0.075000 0.000000
0.175000 -0.050000 0.000000
0.175000 -0.025000 0.000000
0.175000 0.000000 0.000000
0.177545 0.024603 0.000000
0.172553 0.049061 0.000000
0.173719 0.074490 0.000000
0.175235 0.098907 0.000000
0.172870 0.124046 0.000000
0.174643 0.148586 0.000000
0.172545 0.173651 0.000000
0.174257 0.198723 0.000000
0.172324 0.223156 0.000000
0.173974 0.248346 0.000000
0.172297 0.273423 0.000000
0.174220 0.298555 0.000000
0.171762 0.323365 0.000000
0.175220 0.349081 0.000000
0.171649 0.373848 0.000000
0.176774 0.398857 0.000000
0.170931 0.423764 0.000000
0.179159 0.448739 0.000000
0.170772 0.472571 0.000000
0.182629 0.497745 0.000000
0.171796 0.520925 0.000000
0.189021 0.547144 0.000000
0.172039 0.569958 0.000000
0.175956 0.598847 0.000000
0.635000 0.625000 0.000000
0.635000 0.650000 0.000000
0.635000 0.675000 0.000000
0.200000 -0.075000 0.000000
0.200000 -0.050000 0.000000
0.200000 -0.025000 0.000000
0.200000 0.000000 0.000000
0.202814 0.025157 0.000000
0.198043 0.049693 0.000000
0.199569 0.075716 0.000000
0.200498 0.100260 0.000000
0.198529 0.125265 0.000000
0.200319 0.150759 0.000000
0.197988 0.175481 0.000000
0.199867 0.200268 0.000000
0.197594 0.226007 0.000000
0.199626 0.250368 0.000000
0.197141 0.275695 0.000000
0.199864 0.299946 0.000000
0.196812 0.325812 0.000000
0.200402 0.349248 0.000000
0.195757 0.374939 0.000000
0.202738 0.399261 0.000000
0.194941 0.423934 0.000000
0.205475 0.448763 0.000000
0.195252 0.472855 0.000000
0.207267 0.498295 0.000000
0.196459 0.524088 0.000000
0.212160 0.549662 0.000000
[...]
<PointData>
<DataArray NumberOfComponents='1' type='Int32' Name='ParticleType' format='ascii'>
3
3
3
3
3
3
3
3
3
3
3
3
3
3
3
3
3
3
3
3
3
3
3
3
3
3
3
3
3
3
3
3
3
3
3
3
3
3
3
3
3
3
3
3
3
3
3
3
3
3
3
3
3
3
3
3
3
3
2
2
2
2
2
2
2
2
2
2
2
2
2
2
2
2
2
2
2
2
2
2
2
2
2
2
3
3
2
2
2
2
2
2
2
2
2
2
2
2
2
2
2
2
2
2
2
2
2
2
2
2
2
2
3
3
2
2
0
0
0
0
0
0
0
0
0
0
0
0
0
0
0
0
0
0
0
0
0
0
0
0
1
1
1
3
3
2
2
0
0
0
0
0
0
0
0
0
0
0
0
0
0
0
0
0
0
0
0
0
0
0
0
1
1
1
3
3
2
2
0
0
0
0
0
0
0
0
0
0
0
0
0
0
0
0
0
0
0
0
0
0
0
0
1
1
1
3
3
2
2
0
0
0
0
0
0
0
0
0
0
0
0
0
0
0
0
0
0
0
0
0
0
0
0
1
1
1
3
3
2
2
0
0
0
0
0
0
0
0
0
0
0
0
0
0
0
0
0
0
0
0
0
0
0
0
1
1
1
3
3
2
2
0
0
0
0
0
0
0
0
0
0
0
0
0
0
0
0
0
0
0
0
0
0
0
0
1
1
1
3
3
2
2
0
0
0
0
0
0
0
0
0
0
0
0
0
0
0
0
0
0
0
0
0
0
0
0
1
1
1
3
3
2
2
0
0
0
0
0
0
0
0
0
0
0
0
0
0
0
0
0
0
0
0
0
0
0
0
1
1
1
3
3
2
2
0
0
0
0
0
0
0
0
0
0
0
0
0
0
0
0
0
0
0
0
0
0
0
0
1
1
1
3
3
2
2
0
0
0
0
0
0
0
0
0
0
0
0
0
0
0
0
0
0
0
0
0
0
0
0
1
1
1
3
3
2
2
0
0
0
0
0
0
0
0
0
0
0
0
0
0
0
0
0
0
0
0
0
0
0
0
1
1
1
3
3
2
2
0
0
0
0
0
0
0
0
0
0
0
0
0
0
0
0
0
0
0
0
0
0
0
0
1
1
1
3
3
2
2
0
0
0
0
0
0
0
0
0
0
0
0
0
0
0
0
0
0
0
0
0
0
0
0
1
1
1
3
3
2
2
0
0
0
0
0
0
0
0
0
0
0
0
0
0
0
0
0
0
0
0
0
0
0
0
1
1
1
3
3
2
2
0
0
0
0
0
0
0
0
0
0
0
0
0
0
0
0
0
0
0
0
0
0
0
0
1
1
1
3
3
2
2
0
0
0
0
0
0
0
0
0
0
0
0
0
0
0
0
0
0
0
0
0
0
0
0
1
1
1
3
3
2
2
0
0
0
0
0
0
0
0
0
0
0
0
0
0
0
0
0
0
0
0
0
0
0
0
3
3
2
2
0
0
0
0
0
0
0
0
0
0
0
0
0
0
0
0
0
0
0
0
0
0
0
0
3
3
2
2
0
0
0
0
0
0
0
0
0
0
0
0
0
0
0
0
0
0
0
0
0
0
0
0
3
3
2
2
0
0
0
0
0
0
0
0
0
0
0
0
0
0
0
0
0
0
0
0
0
0
0
0
3
3
2
2
0
0
0
0
0
0
0
0
0
0
0
0
0
0
0
0
0
0
0
0
0
0
0
0
3
3
2
2
0
0
0
0
0
0
0
0
0
0
0
0
0
0
0
0
0
0
0
0
0
0
0
0
3
3
2
2
0
0
0
0
0
0
0
0
0
0
0
0
0
0
0
0
0
0
0
0
0
0
0
0
3
3
2
2
0
0
0
0
0
0
0
0
0
0
0
0
0
0
0
0
0
0
0
0
0
0
0
0
3
3
2
2
0
0
0
0
0
0
0
0
0
0
0
0
0
0
0
0
0
0
0
0
0
0
0
0
3
3
2
2
0
0
0
0
0
0
0
0
0
0
0
0
0
0
0
0
0
0
0
0
0
0
0
0
3
3
2
2
0
0
0
0
0
0
0
0
0
0
0
0
0
0
0
0
0
0
0
0
0
0
0
0
3
3
2
2
0
0
0
0
0
0
0
0
0
0
0
0
0
0
0
0
0
0
0
0
0
0
0
0
3
3
2
2
0
0
0
0
0
0
0
0
0
0
0
0
0
0
0
0
0
0
0
0
0
0
0
0
3
3
2
2
0
0
0
0
0
0
0
0
0
0
0
0
0
0
0
0
0
0
0
0
0
0
0
0
3
3
2
2
0
0
0
0
0
0
0
0
0
0
0
0
0
0
0
0
0
0
0
0
0
0
0
0
3
3
2
2
0
0
0
0
0
0
0
0
0
0
0
0
0
0
0
0
0
0
0
0
0
0
0
0
3
3
2
2
0
0
0
0
0
0
0
0
0
0
0
0
0
0
0
0
0
0
0
0
0
0
0
0
3
3
2
2
0
0
0
0
0
0
0
0
0
0
0
0
0
0
0
0
0
0
0
0
0
0
0
0
3
3
2
2
0
0
0
0
0
0
0
0
0
0
0
0
0
0
0
0
0
0
0
0
0
0
0
0
3
3
2
2
0
0
0
0
0
0
0
0
0
0
0
0
0
0
0
0
0
0
0
0
0
0
0
0
3
3
2
2
0
0
0
0
0
0
0
0
0
0
0
0
0
0
0
0
0
0
0
0
0
0
0
0
3
3
2
2
0
0
0
0
0
0
0
0
0
0
0
0
0
0
0
0
0
0
0
0
0
0
0
0
3
3
2
2
0
0
0
0
0
0
0
0
0
0
0
0
0
0
0
0
0
0
0
0
0
0
0
0
3
3
2
2
0
0
0
0
0
0
0
0
0
0
0
0
0
0
0
0
0
0
0
0
0
0
0
0
3
3
2
2
0
0
0
0
0
0
0
0
0
0
0
0
0
0
0
0
0
0
0
0
0
0
0
0
3
3
2
2
0
0
0
0
0
0
0
0
0
0
0
0
0
0
0
0
0
0
0
0
0
0
0
0
3
3
2
2
0
0
0
0
0
0
0
0
0
0
0
0
0
0
0
0
0
0
0
0
0
0
0
0
3
3
2
2
0
0
0
0
0
0
0
0
0
0
0
0
0
0
0
0
0
0
0
0
0
0
0
0
3
3
2
2
0
0
0
0
0
0
0
0
0
0
0
0
0
0
0
0
0
0
0
0
0
0
0
0
3
3
2
2
0
0
0
0
0
0
0
0
0
0
0
0
0
0
0
0
0
0
0
0
0
0
0
0
3
3
2
2
0
0
0
0
0
0
0
0
0
0
0
0
0
0
0
0
0
0
0
0
0
0
0
0
3
3
2
2
0
0
0
0
0
0
0
0
0
0
0
0
0
0
0
0
0
0
0
0
0
0
0
0
3
3
2
2
0
0
0
0
0
0
0
0
0
0
0
0
0
0
0
0
0
0
0
0
0
0
0
0
3
3
2
2
0
0
0
0
0
0
0
0
0
0
0
0
0
0
0
0
0
0
0
0
0
0
0
0
3
3
2
2
0
0
0
0
0
0
0
0
0
0
0
0
0
0
0
0
0
0
0
0
0
0
0
0
3
3
2
2
0
0
0
0
0
0
0
0
0
0
0
0
0
0
0
0
0
0
0
0
0
0
0
0
3
3
2
2
0
0
0
0
0
0
0
0
0
0
0
0
0
0
0
0
0
0
0
0
0
0
0
0
3
3
2
2
0
0
0
0
0
0
0
0
0
0
0
0
0
0
0
0
0
0
0
0
0
0
0
0
3
3
2
2
0
0
0
0
0
0
0
0
0
0
0
0
0
0
0
0
0
0
0
0
0
0
0
0
3
3
2
2
0
0
0
0
0
0
0
0
0
0
0
0
0
0
0
0
0
0
0
0
0
0
0
0
3
3
2
2
0
0
0
0
0
0
0
0
0
0
0
0
0
0
0
0
0
0
0
0
0
0
0
0
3
3
2
2
0
0
0
0
0
0
0
0
0
0
0
0
0
0
0
0
0
0
0
0
0
0
0
0
3
3
2
2
0
0
0
0
0
0
0
0
0
0
0
0
0
0
0
0
0
0
0
0
0
0
0
0
3
3
2
2
0
0
0
0
0
0
0
0
0
0
0
0
0
0
0
0
0
0
0
0
0
0
0
0
3
3
2
2
0
0
0
0
0
0
0
0
0
0
0
0
0
0
0
0
0
0
0
0
0
0
0
0
3
3
2
2
0
0
0
0
0
0
0
0
0
0
0
0
0
0
0
0
0
0
0
0
0
0
0
0
3
3
2
2
0
0
0
0
0
0
0
0
0
0
0
0
0
0
0
0
0
0
0
0
0
0
0
0
3
3
2
2
0
0
0
0
0
0
0
0
0
0
0
0
0
0
0
0
0
0
0
0
0
0
0
0
3
3
2
2
0
0
0
0
0
0
0
0
0
0
0
0
0
0
0
0
0
0
0
0
0
0
0
0
3
3
2
2
0
0
0
0
0
0
0
0
0
0
0
0
0
0
0
0
0
0
0
0
0
0
0
0
3
3
2
2
0
0
0
0
0
0
0
0
0
0
0
0
0
0
0
0
0
0
0
0
0
0
0
0
3
3
2
2
0
0
0
0
0
0
0
0
0
0
0
0
0
0
0
0
0
0
0
0
0
0
0
0
3
3
2
2
0
0
0
0
0
0
0
0
0
0
0
0
0
0
0
0
0
0
0
0
0
0
0
0
3
3
2
2
0
0
0
0
0
0
0
0
0
0
0
0
0
0
0
0
0
0
0
0
0
0
0
0
3
3
2
2
0
0
0
0
0
0
0
0
0
0
0
0
0
0
0
0
0
0
0
0
0
0
0
0
3
3
2
2
0
0
0
0
0
0
0
0
0
0
0
0
0
0
0
0
0
0
0
0
0
0
0
0
3
3
2
2
0
0
0
0
0
0
0
0
0
0
0
0
0
0
0
0
0
0
0
0
0
0
0
0
3
3
2
2
0
0
0
0
0
0
0
0
0
0
0
0
0
0
0
0
0
0
0
0
0
0
0
0
3
3
2
2
0
0
0
0
0
0
0
0
0
0
0
0
0
0
0
0
0
0
0
0
0
0
0
0
3
3
2
2
0
0
0
0
0
0
0
0
0
0
0
0
0
0
0
0
0
0
0
0
0
0
0
0
3
3
2
2
0
0
0
0
0
0
0
0
0
0
0
0
0
0
0
0
0
0
0
0
0
0
0
0
3
3
2
2
0
0
0
0
0
0
0
0
0
0
0
0
0
0
0
0
0
0
0
0
0
0
0
0
3
3
2
2
0
0
0
0
0
0
0
0
0
0
0
0
0
0
0
0
0
0
0
0
0
0
0
0
3
3
2
2
0
0
0
0
0
0
0
0
0
0
0
0
0
0
0
0
0
0
0
0
0
0
0
0
3
3
2
2
2
2
2
2
2
2
2
2
2
2
2
2
2
2
2
2
2
2
2
2
2
2
2
2
3
3
2
2
2
2
2
2
2
2
2
2
2
2
2
2
2
2
2
2
2
2
2
2
2
2
2
2
3
3
3
3
3
3
3
3
3
3
3
3
3
3
3
3
3
3
3
3
3
3
3
3
3
3
3
3
3
3
3
3
3
3
3
3
3
3
3
3
3
3
3
3
3
3
3
3
3
3
3
3
3
3
3
3
</DataArray>
<DataArray NumberOfComponents='1' type='Float32' Name='Velocity' format='ascii'>
0.000000
0.000000
0.000000
0.000000
0.000000
0.000000
0.000000
0.000000
0.000000
0.000000
0.000000
0.000000
0.000000
0.000000
0.000000
0.000000
0.000000
0.000000
0.000000
0.000000
0.000000
0.000000
0.000000
0.000000
0.000000
0.000000
0.000000
0.000000
0.000000
0.000000
0.000000
0.000000
0.000000
0.000000
0.000000
0.000000
0.000000
0.000000
0.000000
0.000000
0.000000
0.000000
0.000000
0.000000
0.000000
0.000000
0.000000
0.000000
0.000000
0.000000
0.000000
0.000000
0.000000
0.000000
0.000000
0.000000
0.000000
0.000000
0.000000
0.000000
0.000000
0.000000
0.000000
0.000000
0.000000
0.000000
0.000000
0.000000
0.000000
0.000000
0.000000
0.000000
0.000000
0.000000
0.000000
0.000000
0.000000
0.000000
0.000000
0.000000
0.000000
0.000000
0.000000
0.000000
0.000000
0.000000
0.000000
0.000000
0.000000
0.000000
0.000000
0.000000
0.000000
0.000000
0.000000
0.000000
0.000000
0.000000
0.000000
0.000000
0.000000
0.000000
0.000000
0.000000
0.000000
0.000000
0.000000
0.000000
0.000000
0.000000
0.000000
0.000000
0.000000
0.000000
0.000000
0.000000
0.021492
0.022086
0.013054
0.019730
0.013570
0.017785
0.008308
0.020174
0.020437
0.001014
0.028536
0.016459
0.034538
0.029837
0.036535
0.042603
0.048858
0.075444
0.092209
0.177153
0.110534
0.378698
0.224303
1.230091
1.000000
1.000000
1.000000
0.000000
0.000000
0.000000
0.000000
0.022467
0.011407
0.038268
0.014714
0.051121
0.032849
0.073050
0.057278
0.082551
0.070707
0.078440
0.061351
0.063136
0.048369
0.030176
0.071013
0.040983
0.056658
0.068655
0.077069
0.083336
0.189578
0.195855
1.024247
1.000000
1.000000
1.000000
0.000000
0.000000
0.000000
0.000000
0.041530
0.038992
0.016213
0.022503
0.026758
0.032184
0.033435
0.035683
0.048295
0.045609
0.043528
0.052509
0.021757
0.046586
0.063954
0.112893
0.039748
0.070348
0.052242
0.135308
0.069061
0.255308
0.292869
0.142069
1.000000
1.000000
1.000000
0.000000
0.000000
0.000000
0.000000
0.034870
0.026111
0.038578
0.005095
0.039218
0.017614
0.040009
0.038981
0.064164
0.061838
0.086138
0.093658
0.095914
0.074976
0.027481
0.027226
0.045793
0.068161
0.045207
0.056320
0.067371
0.047870
0.112648
0.923939
1.000000
1.000000
1.000000
0.000000
0.000000
0.000000
0.000000
0.031681
0.042808
0.033004
0.011619
0.030229
0.018170
0.045554
0.028616
0.047784
0.032710
0.041425
0.026922
0.038768
0.052775
0.016549
0.112588
0.064052
0.108280
0.079775
0.103601
0.072799
0.033817
0.115739
0.321463
1.000000
1.000000
1.000000
0.000000
0.000000
0.000000
0.000000
0.047660
0.053133
0.036290
0.015457
0.047418
0.025208
0.064959
0.031164
0.057647
0.078458
0.063276
0.057041
0.116100
0.070975
0.131002
0.076777
0.177791
0.142499
0.209574
0.160306
0.148546
0.133517
0.310121
0.731312
1.000000
1.000000
1.000000
0.000000
0.000000
0.000000
0.000000
0.032789
0.056062
0.016761
0.022357
0.029248
0.011650
0.045173
0.005807
0.031946
0.035723
0.028622
0.016448
0.038939
0.028759
0.039243
0.043747
0.084872
0.051848
0.116475
0.145112
0.066259
0.151267
0.023821
0.096276
1.000000
1.000000
1.000000
0.000000
0.000000
0.000000
0.000000
0.048677
0.046385
0.020105
0.037588
0.040104
0.008346
0.041697
0.016581
0.036292
0.018944
0.020519
0.017558
0.019837
0.019078
0.048098
0.044021
0.016733
0.070841
0.029165
0.072261
0.028301
0.066001
0.072326
0.233428
1.000000
1.000000
1.000000
0.000000
0.000000
0.000000
0.000000
0.050229
0.085853
0.016247
0.016598
0.057543
0.025400
0.061525
0.014850
0.028614
0.017155
0.029791
0.044787
0.034415
0.018773
0.030881
0.052204
0.052216
0.085919
0.044031
0.111788
0.022228
0.137161
0.031547
0.029259
1.000000
1.000000
1.000000
0.000000
0.000000
0.000000
0.000000
0.042021
0.051737
0.010325
0.013320
0.016998
0.037203
0.028771
0.010002
0.073631
0.025750
0.042168
0.056609
0.048359
0.056870
0.090294
0.088477
0.067089
0.095411
0.061149
0.083210
0.012580
0.060102
0.041393
0.044901
1.000000
1.000000
1.000000
0.000000
0.000000
0.000000
0.000000
0.060975
0.080216
0.015138
0.030681
0.050618
0.023352
0.033604
0.026356
0.034407
0.016361
0.044666
0.041312
0.033529
0.020965
0.020357
0.046260
0.059458
0.124442
0.054127
0.088375
0.037609
0.089255
0.022894
0.026969
1.000000
1.000000
1.000000
0.000000
0.000000
0.000000
0.000000
0.059739
0.066902
0.020409
0.019704
0.046326
0.023394
0.060461
0.023306
0.070438
0.017680
0.027948
0.052727
0.045188
0.061172
0.051759
0.064391
0.044362
0.085789
0.014324
0.079841
0.006307
0.047402
0.068334
0.087916
1.000000
1.000000
1.000000
0.000000
0.000000
0.000000
0.000000
0.073873
0.093576
0.007011
0.031752
0.040849
0.012278
0.031119
0.019864
0.044457
0.029162
0.084849
0.031415
0.053078
0.054166
0.057266
0.084763
0.033959
0.096231
0.026040
0.073671
0.037337
0.094299
0.062251
0.044950
1.000000
1.000000
1.000000
0.000000
0.000000
0.000000
0.000000
0.084282
0.086074
0.026053
0.025887
0.039698
0.014328
0.031226
0.007995
0.025308
0.045949
0.020949
0.033618
0.067502
0.066040
0.060793
0.048868
0.067689
0.077225
0.009929
0.038243
0.006335
0.042014
0.055353
0.046309
1.000000
1.000000
1.000000
0.000000
0.000000
0.000000
0.000000
0.086996
0.104936
0.020349
0.055462
0.070851
0.044014
0.050379
0.028374
0.054858
0.030766
0.049778
0.038607
0.020786
0.056092
0.044895
0.070730
0.034732
0.080641
0.034742
0.071863
0.044923
0.083437
0.063708
0.165865
1.000000
1.000000
1.000000
0.000000
0.000000
0.000000
0.000000
0.105829
0.119865
0.034498
0.034660
0.042621
0.014110
0.040062
0.027087
0.041995
0.027608
0.055381
0.062295
0.071327
0.054467
0.047415
0.031998
0.047833
0.072118
0.043518
0.039449
0.054349
0.123956
0.033130
0.086427
1.000000
1.000000
1.000000
0.000000
0.000000
0.000000
0.000000
0.094840
0.115618
0.037729
0.068377
0.084097
0.054725
0.048693
0.031313
0.039122
0.031149
0.023069
0.022624
0.038188
0.006715
0.029316
0.026228
0.079682
0.113376
0.108838
0.088797
0.086312
0.094925
0.060258
0.173997
0.000000
0.000000
0.000000
0.000000
0.107523
0.121068
0.035689
0.057801
0.078835
0.054333
0.060744
0.070290
0.061462
0.071323
0.053675
0.066758
0.051656
0.039359
0.044961
0.054402
0.062159
0.133926
0.122090
0.098228
0.131891
0.064941
0.069043
0.525551
0.000000
0.000000
0.000000
0.000000
0.112561
0.123931
0.035647
0.059857
0.085622
0.048713
0.053369
0.034383
0.046250
0.027696
0.033200
0.031126
0.017871
0.043093
0.058517
0.072285
0.078243
0.143109
0.101617
0.117113
0.057367
0.082331
0.058241
0.111058
0.000000
0.000000
0.000000
0.000000
0.102521
0.107158
0.019875
0.048068
0.075965
0.044808
0.049910
0.054243
0.051473
0.057316
0.064802
0.027215
0.064819
0.038855
0.056925
0.076093
0.072892
0.086175
0.012010
0.066279
0.023700
0.085318
0.061401
0.107906
0.000000
0.000000
0.000000
0.000000
0.114284
0.104475
0.029461
0.054774
0.079558
0.047590
0.054298
0.034468
0.033795
0.033265
0.024216
0.040126
0.015548
0.033639
0.013279
0.030377
0.020954
0.101403
0.079706
0.107173
0.090587
0.146785
0.047096
0.033824
0.000000
0.000000
0.000000
0.000000
0.097809
0.089830
0.017829
0.041558
0.072967
0.040501
0.042191
0.046577
0.033675
0.049282
0.058728
0.047442
0.077380
0.064642
0.052133
0.075798
0.047256
0.017880
0.044056
0.032314
0.005107
0.039907
0.031895
0.026609
0.000000
0.000000
0.000000
0.000000
0.106278
0.083742
0.011628
0.046821
0.070220
0.041732
0.047545
0.029674
0.042352
0.034891
0.026283
0.023897
0.024526
0.037539
0.064985
0.087323
0.068729
0.096115
0.056330
0.051810
0.076776
0.045025
0.094403
0.115636
0.000000
0.000000
0.000000
0.000000
0.089647
0.084497
0.022378
0.032894
0.053260
0.038113
0.020732
0.017384
0.016964
0.020276
0.034972
0.036864
0.051081
0.056264
0.061033
0.055699
0.069088
0.058479
0.018787
0.042130
0.013039
0.032353
0.033054
0.088198
0.000000
0.000000
0.000000
0.000000
0.099688
0.067894
0.007693
0.038179
0.056058
0.032314
0.030196
0.026603
0.032950
0.044769
0.033523
0.048346
0.053729
0.065363
0.063970
0.061890
0.029793
0.038189
0.049679
0.048044
0.117704
0.044510
0.024949
0.062763
0.000000
0.000000
0.000000
0.000000
0.089639
0.081933
0.025651
0.028400
0.040152
0.039472
0.039707
0.039924
0.035686
0.033171
0.056876
0.049197
0.064970
0.069027
0.069208
0.090083
0.075573
0.079067
0.015624
0.008946
0.082905
0.010981
0.007187
0.066891
0.000000
0.000000
0.000000
0.000000
0.097824
0.057396
0.021435
0.032547
0.050410
0.029395
0.029202
0.022322
0.025168
0.032535
0.041001
0.045849
0.048804
0.066721
0.079450
0.075142
0.094111
0.106370
0.065943
0.125090
0.078485
0.055820
0.025293
0.063126
0.000000
0.000000
0.000000
0.000000
0.089119
0.073684
0.021646
0.023246
0.040717
0.028175
0.030821
0.036271
0.029931
0.030526
0.029481
0.051644
0.048420
0.050264
0.035087
0.049896
0.039403
0.026916
0.058425
0.016737
0.034759
0.077790
0.011827
0.088652
0.000000
0.000000
0.000000
0.000000
0.097539
0.053933
0.031406
0.019619
0.030471
0.029832
0.026415
0.020245
0.019559
0.028387
0.031879
0.029352
0.021330
0.040023
0.048350
0.062533
0.035260
0.069680
0.037508
0.024442
0.036323
0.045984
0.090774
0.131590
0.000000
0.000000
0.000000
0.000000
0.093373
0.064567
0.026932
0.023087
0.037540
0.024539
0.027274
0.032040
0.027477
0.027542
0.031875
0.033187
0.045486
0.057294
0.056548
0.070923
0.062198
0.123573
0.058616
0.155615
0.062513
0.035230
0.120468
0.073681
0.000000
0.000000
0.000000
0.000000
0.095697
0.051714
0.033152
0.015780
0.025833
0.028689
0.025440
0.021535
0.019607
0.023204
0.036001
0.046195
0.047734
0.054812
0.069420
0.078998
0.107168
0.081812
0.136911
0.078688
0.141704
0.069160
0.074002
0.068390
0.000000
0.000000
0.000000
0.000000
0.099984
0.061756
0.035356
0.019003
0.035347
0.026063
0.024461
0.025888
0.025118
0.035727
0.035586
0.037569
0.048935
0.056938
0.067130
0.056144
0.067734
0.033724
0.062210
0.052901
0.103507
0.091019
0.120804
0.050995
0.000000
0.000000
0.000000
0.000000
0.095077
0.052674
0.035922
0.013717
0.022474
0.023052
0.022899
0.025915
0.018745
0.022990
0.025119
0.043053
0.044633
0.047401
0.061057
0.042964
0.058157
0.043600
0.085349
0.004852
0.094693
0.106453
0.065068
0.149133
0.000000
0.000000
0.000000
0.000000
0.097912
0.056218
0.039518
0.013777
0.028864
0.027612
0.021186
0.021254
0.018415
0.032643
0.025185
0.036953
0.033348
0.037971
0.044005
0.032891
0.068984
0.025796
0.051117
0.068520
0.046684
0.099687
0.027864
0.082391
0.000000
0.000000
0.000000
0.000000
0.093806
0.051437
0.039631
0.014091
0.019792
0.017892
0.013251
0.022228
0.014716
0.025300
0.019958
0.037065
0.040933
0.032863
0.055977
0.031840
0.066189
0.042484
0.087754
0.066113
0.119532
0.132585
0.200840
0.288785
0.000000
0.000000
0.000000
0.000000
0.092872
0.050799
0.040845
0.009503
0.019232
0.021156
0.015199
0.021674
0.011900
0.027698
0.020193
0.027922
0.028469
0.025336
0.052475
0.032112
0.075422
0.054875
0.091592
0.056246
0.077741
0.099240
0.026070
0.346185
0.000000
0.000000
0.000000
0.000000
0.088497
0.046892
0.041219
0.012894
0.016833
0.022121
0.015598
0.024530
0.015039
0.019590
0.015340
0.017100
0.031665
0.020060
0.051154
0.039303
0.084296
0.035272
0.050609
0.086542
0.093920
0.044577
0.064314
0.303068
0.000000
0.000000
0.000000
0.000000
0.089940
0.048544
0.041864
0.011580
0.019170
0.022982
0.014685
0.017182
0.010793
0.016076
0.016987
0.024856
0.033765
0.029624
0.066272
0.034329
0.065513
0.047002
0.076053
0.072526
0.036443
0.076545
0.038578
0.309806
0.000000
0.000000
0.000000
0.000000
0.082794
0.045357
0.039233
0.012055
0.011272
0.017153
0.005956
0.016355
0.012111
0.021265
0.023002
0.019468
0.040703
0.030086
0.056236
0.032597
0.064019
0.056489
0.058660
0.079797
0.059679
0.026406
0.057506
0.307700
0.000000
0.000000
0.000000
0.000000
0.083870
0.044355
0.041910
0.010493
0.009331
0.017431
0.013415
0.018557
0.009885
0.013523
0.012448
0.018347
0.036374
0.024147
0.054408
0.039602
0.074225
0.048938
0.056528
0.086481
0.022415
0.034886
0.048629
0.287123
0.000000
0.000000
0.000000
0.000000
0.084173
0.048528
0.043446
0.009572
0.008613
0.017603
0.006620
0.013519
0.004467
0.013647
0.019206
0.013300
0.028193
0.023411
0.053006
0.032387
0.056278
0.060356
0.057683
0.055242
0.032702
0.030150
0.044156
0.304673
0.000000
0.000000
0.000000
0.000000
0.082118
0.049668
0.044966
0.006866
0.007163
0.013104
0.008999
0.013634
0.013587
0.013037
0.011882
0.011836
0.024651
0.012937
0.035543
0.030097
0.049348
0.030000
0.021878
0.055562
0.019001
0.011698
0.062533
0.270911
0.000000
0.000000
0.000000
0.000000
0.079176
0.048653
0.042196
0.008860
0.007485
0.012349
0.008932
0.012215
0.005098
0.014147
0.011431
0.013998
0.021049
0.013765
0.031556
0.014672
0.026025
0.035717
0.027045
0.029742
0.026911
0.020060
0.047050
0.275409
0.000000
0.000000
0.000000
0.000000
0.079504
0.051130
0.045939
0.010972
0.005530
0.013242
0.006778
0.015959
0.009515
0.015984
0.016033
0.015452
0.022657
0.017230
0.023672
0.021695
0.030042
0.032884
0.007877
0.029405
0.027296
0.026875
0.064194
0.256486
0.000000
0.000000
0.000000
0.000000
0.078569
0.054708
0.044213
0.010056
0.008139
0.014213
0.007715
0.015610
0.013498
0.017264
0.011534
0.020148
0.017309
0.019091
0.025705
0.023930
0.019866
0.019689
0.014350
0.028402
0.033659
0.018698
0.060900
0.247940
0.000000
0.000000
0.000000
0.000000
0.073927
0.052502
0.044412
0.014964
0.007126
0.012900
0.011152
0.015802
0.005355
0.019394
0.012138
0.017952
0.014898
0.020001
0.016371
0.016194
0.010111
0.031247
0.011044
0.019382
0.032802
0.040174
0.064707
0.236428
0.000000
0.000000
0.000000
0.000000
0.072663
0.055725
0.043756
0.014168
0.008868
0.012718
0.004944
0.016373
0.012287
0.016969
0.010697
0.020661
0.014330
0.019369
0.009354
0.023181
0.009086
0.016073
0.011185
0.026672
0.036055
0.024563
0.065838
0.231025
0.000000
0.000000
0.000000
0.000000
0.070765
0.054961
0.041480
0.015785
0.006464
0.014231
0.012152
0.013359
0.009092
0.018099
0.012347
0.018268
0.007919
0.018882
0.007103
0.015658
0.006906
0.020109
0.020146
0.018154
0.036640
0.040070
0.059605
0.233149
0.000000
0.000000
0.000000
0.000000
0.065133
0.055004
0.043531
0.017571
0.009135
0.008703
0.006268
0.014190
0.008396
0.014240
0.006080
0.015686
0.006944
0.018023
0.005549
0.014341
0.013566
0.014150
0.017532
0.029728
0.034988
0.038474
0.063242
0.241498
0.000000
0.000000
0.000000
0.000000
0.065964
0.056337
0.039847
0.013449
0.007261
0.011941
0.006726
0.010543
0.008590
0.014055
0.007370
0.017354
0.001891
0.012635
0.008579
0.014157
0.017475
0.014278
0.030190
0.020288
0.040060
0.040001
0.056960
0.247504
0.000000
0.000000
0.000000
0.000000
0.058712
0.052607
0.040193
0.017787
0.008144
0.006089
0.008538
0.010114
0.005571
0.014049
0.007727
0.012157
0.003397
0.018603
0.013126
0.011728
0.023143
0.009998
0.027347
0.038122
0.034043
0.049649
0.056648
0.255861
0.000000
0.000000
0.000000
0.000000
0.061416
0.055910
0.040030
0.011381
0.008281
0.005356
0.002446
0.008123
0.008916
0.010447
0.000943
0.015218
0.006347
0.009876
0.017024
0.008518
0.029875
0.022451
0.033869
0.039709
0.043276
0.049386
0.057184
0.262889
0.000000
0.000000
0.000000
0.000000
0.057056
0.051328
0.037930
0.013740
0.010753
0.003924
0.006813
0.007462
0.001299
0.009431
0.004707
0.010736
0.008564
0.009361
0.022382
0.007020
0.034336
0.022186
0.039340
0.044218
0.040015
0.055870
0.055791