<?xml version='1.0' encoding='UTF-8'?>
<VTKFile xmlns='VTK' byte_order='LittleEndian' version='0.1' type='UnstructuredGrid'>
<UnstructuredGrid>
<Piece NumberOfCells='2512' NumberOfPoints='2512'>
<Points>
<DataArray NumberOfComponents='3' type='Float32' Name='Position' format='ascii'>
-0.075000 -0.075000 0.000000
-0.075000 -0.050000 0.000000
-0.075000 -0.025000 0.000000
-0.075000 0.000000 0.000000
-0.075000 0.025000 0.000000
-0.075000 0.050000 0.000000
-0.075000 0.075000 0.000000
-0.075000 0.100000 0.000000
-0.075000 0.125000 0.000000
-0.075000 0.150000 0.000000
-0.075000 0.175000 0.000000
-0.075000 0.200000 0.000000
-0.075000 0.225000 0.000000
-0.075000 0.250000 0.000000
-0.075000 0.275000 0.000000
-0.075000 0.300000 0.000000
-0.075000 0.325000 0.000000
-0.075000 0.350000 0.000000
-0.075000 0.375000 0.000000
-0.075000 0.400000 0.000000
-0.075000 0.425000 0.000000
-0.075000 0.450000 0.000000
-0.075000 0.475000 0.000000
-0.075000 0.500000 0.000000
-0.075000 0.525000 0.000000
-0.075000 0.550000 0.000000
-0.075000 0.575000 0.000000
-0.075000 0.600000 0.000000
-0.050000 -0.075000 0.000000
-0.050000 -0.050000 0.000000
-0.050000 -0.025000 0.000000
-0.050000 0.000000 0.000000
-0.050000 0.025000 0.000000
-0.050000 0.050000 0.000000
-0.050000 0.075000 0.000000
-0.050000 0.100000 0.000000
-0.050000 0.125000 0.000000
-0.050000 0.150000 0.000000
-0.050000 0.175000 0.000000
-0.050000 0.200000 0.000000
-0.050000 0.225000 0.000000
-0.050000 0.250000 0.000000
-0.050000 0.275000 0.000000
-0.050000 0.300000 0.000000
-0.050000 0.325000 0.000000
-0.050000 0.350000 0.000000
-0.050000 0.375000 0.000000
-0.050000 0.400000 0.000000
-0.050000 0.425000 0.000000
-0.050000 0.450000 0.000000
-0.050000 0.475000 0.000000
-0.050000 0.500000 0.000000
-0.050000 0.525000 0.000000
-0.050000 0.550000 0.000000
-0.050000 0.575000 0.000000
-0.050000 0.600000 0.000000
-0.025000 -0.075000 0.000000
-0.025000 -0.050000 0.000000
-0.025000 -0.025000 0.000000
-0.025000 0.000000 0.000000
-0.025000 0.025000 0.000000
-0.025000 0.050000 0.000000
-0.025000 0.075000 0.000000
-0.025000 0.100000 0.000000
-0.025000 0.125000 0.000000
-0.025000 0.150000 0.000000
-0.025000 0.175000 0.000000
-0.025000 0.200000 0.000000
-0.025000 0.225000 0.000000
-0.025000 0.250000 0.000000
-0.025000 0.275000 0.000000
-0.025000 0.300000 0.000000
-0.025000 0.325000 0.000000
-0.025000 0.350000 0.000000
-0.025000 0.375000 0.000000
-0.025000 0.400000 0.000000
-0.025000 0.425000 0.000000
-0.025000 0.450000 0.000000
-0.025000 0.475000 0.000000
-0.025000 0.500000 0.000000
-0.025000 0.525000 0.000000
-0.025000 0.550000 0.000000
-0.025000 0.575000 0.000000
-0.025000 0.600000 0.000000
0.000000 -0.075000 0.000000
0.000000 -0.050000 0.000000
0.000000 -0.025000 0.000000
0.000000 0.000000 0.000000
0.000000 0.025000 0.000000
0.000000 0.050000 0.000000
0.000000 0.075000 0.000000
0.000000 0.100000 0.000000
0.000000 0.125000 0.000000
0.000000 0.150000 0.000000
0.000000 0.175000 0.000000
0.000000 0.200000 0.000000
0.000000 0.225000 0.000000
0.000000 0.250000 0.000000
0.000000 0.275000 0.000000
0.000000 0.300000 0.000000
0.000000 0.325000 0.000000
0.000000 0.350000 0.000000
0.000000 0.375000 0.000000
0.000000 0.400000 0.000000
0.000000 0.425000 0.000000
0.000000 0.450000 0.000000
0.000000 0.475000 0.000000
0.000000 0.500000 0.000000
0.000000 0.525000 0.000000
0.000000 0.550000 0.000000
0.000000 0.575000 0.000000
0.000000 0.600000 0.000000
0.025000 -0.075000 0.000000
0.025000 -0.050000 0.000000
0.025000 -0.025000 0.000000
0.025000 0.000000 0.000000
0.024925 0.024774 0.000000
0.025091 0.049921 0.000000
0.024915 0.074809 0.000000
0.025102 0.099741 0.000000
0.025013 0.124826 0.000000
0.024943 0.149696 0.000000
0.025105 0.174757 0.000000
0.024967 0.199729 0.000000
0.025008 0.224821 0.000000
0.025014 0.249860 0.000000
0.024963 0.275022 0.000000
0.025085 0.300087 0.000000
0.024858 0.325439 0.000000
0.025069 0.350410 0.000000
0.024913 0.376005 0.000000
0.025040 0.400963 0.000000
0.024744 0.426595 0.000000
0.025186 0.451640 0.000000
0.024634 0.477329 0.000000
0.025200 0.502258 0.000000
0.024709 0.527959 0.000000
0.024651 0.552747 0.000000
0.027156 0.577582 0.000000
0.018798 0.600000 0.000000
0.345000 0.625000 0.000000
0.345000 0.650000 0.000000
0.345000 0.675000 0.000000
0.050000 -0.075000 0.000000
0.050000 -0.050000 0.000000
0.050000 -0.025000 0.000000
0.050000 0.000000 0.000000
0.050114 0.025105 0.000000
0.049973 0.049904 0.000000
0.050063 0.075015 0.000000
0.049990 0.100119 0.000000
0.049971 0.125119 0.000000
0.050046 0.150166 0.000000
0.049904 0.175298 0.000000
0.049899 0.200325 0.000000
0.049858 0.225407 0.000000
0.049774 0.250457 0.000000
0.049726 0.275618 0.000000
0.049647 0.300591 0.000000
0.049611 0.325792 0.000000
0.049555 0.350748 0.000000
0.049418 0.376003 0.000000
0.049487 0.400821 0.000000
0.049356 0.426307 0.000000
0.049394 0.451015 0.000000
0.049208 0.476498 0.000000
0.049485 0.501444 0.000000
0.049272 0.526705 0.000000
0.050451 0.551032 0.000000
0.050972 0.575792 0.000000
0.051745 0.599938 0.000000
0.370000 0.625000 0.000000
0.370000 0.650000 0.000000
0.370000 0.675000 0.000000
0.075000 -0.075000 0.000000
0.075000 -0.050000 0.000000
0.075000 -0.025000 0.000000
0.075000 0.000000 0.000000
0.075063 0.024825 0.000000
0.075025 0.049944 0.000000
0.074969 0.074969 0.000000
0.074928 0.099809 0.000000
0.074964 0.124982 0.000000
0.074961 0.149926 0.000000
0.074858 0.174847 0.000000
0.075016 0.199879 0.000000
0.074835 0.224827 0.000000
0.074949 0.249722 0.000000
0.074862 0.274550 0.000000
0.074958 0.299436 0.000000
0.074783 0.324177 0.000000
0.075023 0.348917 0.000000
0.074633 0.373553 0.000000
0.075164 0.398407 0.000000
0.074342 0.422670 0.000000
0.075252 0.447549 0.000000
0.074237 0.471864 0.000000
0.075251 0.496499 0.000000
0.074686 0.521041 0.000000
0.076272 0.545583 0.000000
0.077475 0.568746 0.000000
0.069813 0.597371 0.000000
0.395000 0.625000 0.000000
0.395000 0.650000 0.000000
0.395000 0.675000 0.000000
0.100000 -0.075000 0.000000
0.100000 -0.050000 0.000000
0.100000 -0.025000 0.000000
0.100000 0.000000 0.000000
0.100097 0.024997 0.000000
0.100063 0.049909 0.000000
0.099909 0.074834 0.000000
0.100018 0.099975 0.000000
0.099950 0.124884 0.000000
0.099952 0.149806 0.000000
0.099951 0.175046 0.000000
0.099902 0.199987 0.000000
0.099861 0.225085 0.000000
0.099959 0.250283 0.000000
0.099803 0.275488 0.000000
0.100008 0.300573 0.000000
0.099742 0.325943 0.000000
0.100043 0.351024 0.000000
0.099628 0.376535 0.000000
0.100158 0.401325 0.000000
0.099428 0.427178 0.000000
0.100252 0.451764 0.000000
0.099245 0.477651 0.000000
0.100213 0.502261 0.000000
0.099613 0.528248 0.000000
0.101862 0.552927 0.000000
0.100623 0.580213 0.000000
0.096234 0.600000 0.000000
0.420000 0.625000 0.000000
0.420000 0.650000 0.000000
0.420000 0.675000 0.000000
0.125000 -0.075000 0.000000
0.125000 -0.050000 0.000000
0.125000 -0.025000 0.000000
0.125000 0.000000 0.000000
0.125256 0.024901 0.000000
0.125021 0.049874 0.000000
0.125032 0.074964 0.000000
0.125004 0.099849 0.000000
0.124898 0.124858 0.000000
0.125045 0.149989 0.000000
0.124763 0.174811 0.000000
0.124873 0.199791 0.000000
0.124732 0.224963 0.000000
0.124713 0.249679 0.000000
0.124617 0.274783 0.000000
0.124683 0.299685 0.000000
0.124460 0.324672 0.000000
0.124718 0.349584 0.000000
0.124203 0.374556 0.000000
0.124798 0.399557 0.000000
0.124136 0.424506 0.000000
0.124830 0.449340 0.000000
0.124206 0.474478 0.000000
0.125034 0.498878 0.000000
0.124579 0.524036 0.000000
0.127246 0.548437 0.000000
0.124582 0.572393 0.000000
0.123166 0.599603 0.000000
0.445000 0.625000 0.000000
0.445000 0.650000 0.000000
0.445000 0.675000 0.000000
0.150000 -0.075000 0.000000
0.150000 -0.050000 0.000000
0.150000 -0.025000 0.000000
0.150000 0.000000 0.000000
0.150187 0.024980 0.000000
0.150041 0.049953 0.000000
0.149912 0.075008 0.000000
0.149941 0.100015 0.000000
0.149964 0.125166 0.000000
0.149961 0.149974 0.000000
0.149819 0.175161 0.000000
0.150070 0.200181 0.000000
0.149742 0.224989 0.000000
0.150001 0.250123 0.000000
0.149822 0.275150 0.000000
0.149988 0.299963 0.000000
0.149727 0.325164 0.000000
0.150015 0.349878 0.000000
0.149587 0.375090 0.000000
0.150188 0.399727 0.000000
0.149249 0.424852 0.000000
0.150509 0.449576 0.000000
0.149169 0.474562 0.000000
0.150606 0.499490 0.000000
0.149459 0.524482 0.000000
0.152002 0.549875 0.000000
0.149930 0.575717 0.000000
0.148436 0.599136 0.000000
0.470000 0.625000 0.000000
0.470000 0.650000 0.000000
0.470000 0.675000 0.000000
0.175000 -0.075000 0.000000
0.175000 -0.050000 0.000000
0.175000 -0.025000 0.000000
0.175000 0.000000 0.000000
0.175325 0.024907 0.000000
0.175072 0.049820 0.000000
0.174899 0.074816 0.000000
0.175062 0.099776 0.000000
0.174864 0.124676 0.000000
0.174988 0.149706 0.000000
0.174899 0.174710 0.000000
0.174825 0.199479 0.000000
0.174761 0.224742 0.000000
0.174889 0.249577 0.000000
0.174507 0.274599 0.000000
0.174904 0.299658 0.000000
0.174437 0.324691 0.000000
0.174966 0.349664 0.000000
0.174261 0.374774 0.000000
0.175121 0.399572 0.000000
0.174184 0.424945 0.000000
0.175266 0.449562 0.000000
0.174036 0.474971 0.000000
0.175631 0.499597 0.000000
0.173894 0.524697 0.000000
0.177180 0.549683 0.000000
0.173834 0.574380 0.000000
0.173727 0.599987 0.000000
0.495000 0.625000 0.000000
0.495000 0.650000 0.000000
0.495000 0.675000 0.000000
0.200000 -0.075000 0.000000
0.200000 -0.050000 0.000000
0.200000 -0.025000 0.000000
0.200000 0.000000 0.000000
0.200371 0.024938 0.000000
0.200044 0.049948 0.000000
0.199943 0.075004 0.000000
0.200017 0.099985 0.000000
0.199920 0.125012 0.000000
0.200089 0.150017 0.000000
0.199766 0.174967 0.000000
0.200079 0.200056 0.000000
0.199837 0.225052 0.000000
0.199835 0.249833 0.000000
0.199855 0.275132 0.000000
0.199923 0.299830 0.000000
0.199615 0.324978 0.000000
0.200059 0.349783 0.000000
0.199459 0.374901 0.000000
0.200229 0.399845 0.000000
0.199166 0.424774 0.000000
0.200518 0.449727 0.000000
0.199094 0.474774 0.000000
0.200802 0.499599 0.000000
0.199158 0.524673 0.000000
0.201923 0.549602 0.000000
[...]
<PointData>
<DataArray NumberOfComponents='1' type='Int32' Name='ParticleType' format='ascii'>
3
3
3
3
3
3
3
3
3
3
3
3
3
3
3
3
3
3
3
3
3
3
3
3
3
3
3
3
3
3
3
3
3
3
3
3
3
3
3
3
3
3
3
3
3
3
3
3
3
3
3
3
3
3
3
3
3
3
2
2
2
2
2
2
2
2
2
2
2
2
2
2
2
2
2
2
2
2
2
2
2
2
2
2
3
3
2
2
2
2
2
2
2
2
2
2
2
2
2
2
2
2
2
2
2
2
2
2
2
2
2
2
3
3
2
2
0
0
0
0
0
0
0
0
0
0
0
0
0
0
0
0
0
0
0
0
0
0
0
0
1
1
1
3
3
2
2
0
0
0
0
0
0
0
0
0
0
0
0
0
0
0
0
0
0
0
0
0
0
0
0
1
1
1
3
3
2
2
0
0
0
0
0
0
0
0
0
0
0
0
0
0
0
0
0
0
0
0
0
0
0
0
1
1
1
3
3
2
2
0
0
0
0
0
0
0
0
0
0
0
0
0
0
0
0
0
0
0
0
0
0
0
0
1
1
1
3
3
2
2
0
0
0
0
0
0
0
0
0
0
0
0
0
0
0
0
0
0
0
0
0
0
0
0
1
1
1
3
3
2
2
0
0
0
0
0
0
0
0
0
0
0
0
0
0
0
0
0
0
0
0
0
0
0
0
1
1
1
3
3
2
2
0
0
0
0
0
0
0
0
0
0
0
0
0
0
0
0
0
0
0
0
0
0
0
0
1
1
1
3
3
2
2
0
0
0
0
0
0
0
0
0
0
0
0
0
0
0
0
0
0
0
0
0
0
0
0
1
1
1
3
3
2
2
0
0
0
0
0
0
0
0
0
0
0
0
0
0
0
0
0
0
0
0
0
0
0
0
1
1
1
3
3
2
2
0
0
0
0
0
0
0
0
0
0
0
0
0
0
0
0
0
0
0
0
0
0
0
0
1
1
1
3
3
2
2
0
0
0
0
0
0
0
0
0
0
0
0
0
0
0
0
0
0
0
0
0
0
0
0
1
1
1
3
3
2
2
0
0
0
0
0
0
0
0
0
0
0
0
0
0
0
0
0
0
0
0
0
0
0
0
1
1
1
3
3
2
2
0
0
0
0
0
0
0
0
0
0
0
0
0
0
0
0
0
0
0
0
0
0
0
0
1
1
1
3
3
2
2
0
0
0
0
0
0
0
0
0
0
0
0
0
0
0
0
0
0
0
0
0
0
0
0
1
1
1
3
3
2
2
0
0
0
0
0
0
0
0
0
0
0
0
0
0
0
0
0
0
0
0
0
0
0
0
1
1
1
3
3
2
2
0
0
0
0
0
0
0
0
0
0
0
0
0
0
0
0
0
0
0
0
0
0
0
0
1
1
1
3
3
2
2
0
0
0
0
0
0
0
0
0
0
0
0
0
0
0
0
0
0
0
0
0
0
0
0
3
3
2
2
0
0
0
0
0
0
0
0
0
0
0
0
0
0
0
0
0
0
0
0
0
0
0
0
3
3
2
2
0
0
0
0
0
0
0
0
0
0
0
0
0
0
0
0
0
0
0
0
0
0
0
0
3
3
2
2
0
0
0
0
0
0
0
0
0
0
0
0
0
0
0
0
0
0
0
0
0
0
0
0
3
3
2
2
0
0
0
0
0
0
0
0
0
0
0
0
0
0
0
0
0
0
0
0
0
0
0
0
3
3
2
2
0
0
0
0
0
0
0
0
0
0
0
0
0
0
0
0
0
0
0
0
0
0
0
0
3
3
2
2
0
0
0
0
0
0
0
0
0
0
0
0
0
0
0
0
0
0
0
0
0
0
0
0
3
3
2
2
0
0
0
0
0
0
0
0
0
0
0
0
0
0
0
0
0
0
0
0
0
0
0
0
3
3
2
2
0
0
0
0
0
0
0
0
0
0
0
0
0
0
0
0
0
0
0
0
0
0
0
0
3
3
2
2
0
0
0
0
0
0
0
0
0
0
0
0
0
0
0
0
0
0
0
0
0
0
0
0
3
3
2
2
0
0
0
0
0
0
0
0
0
0
0
0
0
0
0
0
0
0
0
0
0
0
0
0
3
3
2
2
0
0
0
0
0
0
0
0
0
0
0
0
0
0
0
0
0
0
0
0
0
0
0
0
3
3
2
2
0
0
0
0
0
0
0
0
0
0
0
0
0
0
0
0
0
0
0
0
0
0
0
0
3
3
2
2
0
0
0
0
0
0
0
0
0
0
0
0
0
0
0
0
0
0
0
0
0
0
0
0
3
3
2
2
0
0
0
0
0
0
0
0
0
0
0
0
0
0
0
0
0
0
0
0
0
0
0
0
3
3
2
2
0
0
0
0
0
0
0
0
0
0
0
0
0
0
0
0
0
0
0
0
0
0
0
0
3
3
2
2
0
0
0
0
0
0
0
0
0
0
0
0
0
0
0
0
0
0
0
0
0
0
0
0
3
3
2
2
0
0
0
0
0
0
0
0
0
0
0
0
0
0
0
0
0
0
0
0
0
0
0
0
3
3
2
2
0
0
0
0
0
0
0
0
0
0
0
0
0
0
0
0
0
0
0
0
0
0
0
0
3
3
2
2
0
0
0
0
0
0
0
0
0
0
0
0
0
0
0
0
0
0
0
0
0
0
0
0
3
3
2
2
0
0
0
0
0
0
0
0
0
0
0
0
0
0
0
0
0
0
0
0
0
0
0
0
3
3
2
2
0
0
0
0
0
0
0
0
0
0
0
0
0
0
0
0
0
0
0
0
0
0
0
0
3
3
2
2
0
0
0
0
0
0
0
0
0
0
0
0
0
0
0
0
0
0
0
0
0
0
0
0
3
3
2
2
0
0
0
0
0
0
0
0
0
0
0
0
0
0
0
0
0
0
0
0
0
0
0
0
3
3
2
2
0
0
0
0
0
0
0
0
0
0
0
0
0
0
0
0
0
0
0
0
0
0
0
0
3
3
2
2
0
0
0
0
0
0
0
0
0
0
0
0
0
0
0
0
0
0
0
0
0
0
0
0
3
3
2
2
0
0
0
0
0
0
0
0
0
0
0
0
0
0
0
0
0
0
0
0
0
0
0
0
3
3
2
2
0
0
0
0
0
0
0
0
0
0
0
0
0
0
0
0
0
0
0
0
0
0
0
0
3
3
2
2
0
0
0
0
0
0
0
0
0
0
0
0
0
0
0
0
0
0
0
0
0
0
0
0
3
3
2
2
0
0
0
0
0
0
0
0
0
0
0
0
0
0
0
0
0
0
0
0
0
0
0
0
3
3
2
2
0
0
0
0
0
0
0
0
0
0
0
0
0
0
0
0
0
0
0
0
0
0
0
0
3
3
2
2
0
0
0
0
0
0
0
0
0
0
0
0
0
0
0
0
0
0
0
0
0
0
0
0
3
3
2
2
0
0
0
0
0
0
0
0
0
0
0
0
0
0
0
0
0
0
0
0
0
0
0
0
3
3
2
2
0
0
0
0
0
0
0
0
0
0
0
0
0
0
0
0
0
0
0
0
0
0
0
0
3
3
2
2
0
0
0
0
0
0
0
0
0
0
0
0
0
0
0
0
0
0
0
0
0
0
0
0
3
3
2
2
0
0
0
0
0
0
0
0
0
0
0
0
0
0
0
0
0
0
0
0
0
0
0
0
3
3
2
2
0
0
0
0
0
0
0
0
0
0
0
0
0
0
0
0
0
0
0
0
0
0
0
0
3
3
2
2
0
0
0
0
0
0
0
0
0
0
0
0
0
0
0
0
0
0
0
0
0
0
0
0
3
3
2
2
0
0
0
0
0
0
0
0
0
0
0
0
0
0
0
0
0
0
0
0
0
0
0
0
3
3
2
2
0
0
0
0
0
0
0
0
0
0
0
0
0
0
0
0
0
0
0
0
0
0
0
0
3
3
2
2
0
0
0
0
0
0
0
0
0
0
0
0
0
0
0
0
0
0
0
0
0
0
0
0
3
3
2
2
0
0
0
0
0
0
0
0
0
0
0
0
0
0
0
0
0
0
0
0
0
0
0
0
3
3
2
2
0
0
0
0
0
0
0
0
0
0
0
0
0
0
0
0
0
0
0
0
0
0
0
0
3
3
2
2
0
0
0
0
0
0
0
0
0
0
0
0
0
0
0
0
0
0
0
0
0
0
0
0
3
3
2
2
0
0
0
0
0
0
0
0
0
0
0
0
0
0
0
0
0
0
0
0
0
0
0
0
3
3
2
2
0
0
0
0
0
0
0
0
0
0
0
0
0
0
0
0
0
0
0
0
0
0
0
0
3
3
2
2
0
0
0
0
0
0
0
0
0
0
0
0
0
0
0
0
0
0
0
0
0
0
0
0
3
3
2
2
0
0
0
0
0
0
0
0
0
0
0
0
0
0
0
0
0
0
0
0
0
0
0
0
3
3
2
2
0
0
0
0
0
0
0
0
0
0
0
0
0
0
0
0
0
0
0
0
0
0
0
0
3
3
2
2
0
0
0
0
0
0
0
0
0
0
0
0
0
0
0
0
0
0
0
0
0
0
0
0
3
3
2
2
0
0
0
0
0
0
0
0
0
0
0
0
0
0
0
0
0
0
0
0
0
0
0
0
3
3
2
2
0
0
0
0
0
0
0
0
0
0
0
0
0
0
0
0
0
0
0
0
0
0
0
0
3
3
2
2
0
0
0
0
0
0
0
0
0
0
0
0
0
0
0
0
0
0
0
0
0
0
0
0
3
3
2
2
0
0
0
0
0
0
0
0
0
0
0
0
0
0
0
0
0
0
0
0
0
0
0
0
3
3
2
2
0
0
0
0
0
0
0
0
0
0
0
0
0
0
0
0
0
0
0
0
0
0
0
0
3
3
2
2
0
0
0
0
0
0
0
0
0
0
0
0
0
0
0
0
0
0
0
0
0
0
0
0
3
3
2
2
0
0
0
0
0
0
0
0
0
0
0
0
0
0
0
0
0
0
0
0
0
0
0
0
3
3
2
2
0
0
0
0
0
0
0
0
0
0
0
0
0
0
0
0
0
0
0
0
0
0
0
0
3
3
2
2
0
0
0
0
0
0
0
0
0
0
0
0
0
0
0
0
0
0
0
0
0
0
0
0
3
3
2
2
0
0
0
0
0
0
0
0
0
0
0
0
0
0
0
0
0
0
0
0
0
0
0
0
3
3
2
2
0
0
0
0
0
0
0
0
0
0
0
0
0
0
0
0
0
0
0
0
0
0
0
0
3
3
2
2
0
0
0
0
0
0
0
0
0
0
0
0
0
0
0
0
0
0
0
0
0
0
0
0
3
3
2
2
0
0
0
0
0
0
0
0
0
0
0
0
0
0
0
0
0
0
0
0
0
0
0
0
3
3
2
2
0
0
0
0
0
0
0
0
0
0
0
0
0
0
0
0
0
0
0
0
0
0
0
0
3
3
2
2
2
2
2
2
2
2
2
2
2
2
2
2
2
2
2
2
2
2
2
2
2
2
2
2
3
3
2
2
2
2
2
2
2
2
2
2
2
2
2
2
2
2
2
2
2
2
2
2
2
2
2
2
3
3
3
3
3
3
3
3
3
3
3
3
3
3
3
3
3
3
3
3
3
3
3
3
3
3
3
3
3
3
3
3
3
3
3
3
3
3
3
3
3
3
3
3
3
3
3
3
3
3
3
3
3
3
3
3
</DataArray>
<DataArray NumberOfComponents='1' type='Float32' Name='Velocity' format='ascii'>
0.000000
0.000000
0.000000
0.000000
0.000000
0.000000
0.000000
0.000000
0.000000
0.000000
0.000000
0.000000
0.000000
0.000000
0.000000
0.000000
0.000000
0.000000
0.000000
0.000000
0.000000
0.000000
0.000000
0.000000
0.000000
0.000000
0.000000
0.000000
0.000000
0.000000
0.000000
0.000000
0.000000
0.000000
0.000000
0.000000
0.000000
0.000000
0.000000
0.000000
0.000000
0.000000
0.000000
0.000000
0.000000
0.000000
0.000000
0.000000
0.000000
0.000000
0.000000
0.000000
0.000000
0.000000
0.000000
0.000000
0.000000
0.000000
0.000000
0.000000
0.000000
0.000000
0.000000
0.000000
0.000000
0.000000
0.000000
0.000000
0.000000
0.000000
0.000000
0.000000
0.000000
0.000000
0.000000
0.000000
0.000000
0.000000
0.000000
0.000000
0.000000
0.000000
0.000000
0.000000
0.000000
0.000000
0.000000
0.000000
0.000000
0.000000
0.000000
0.000000
0.000000
0.000000
0.000000
0.000000
0.000000
0.000000
0.000000
0.000000
0.000000
0.000000
0.000000
0.000000
0.000000
0.000000
0.000000
0.000000
0.000000
0.000000
0.000000
0.000000
0.000000
0.000000
0.000000
0.000000
0.005492
0.008928
0.005289
0.013608
0.012630
0.007568
0.002396
0.002778
0.002330
0.002140
0.004548
0.004657
0.009520
0.008815
0.012757
0.011730
0.017963
0.016578
0.019705
0.023379
0.021725
0.034508
0.040414
0.153224
1.000000
1.000000
1.000000
0.000000
0.000000
0.000000
0.000000
0.003084
0.000600
0.004014
0.007889
0.007222
0.001287
0.010132
0.006368
0.011265
0.007584
0.013447
0.014203
0.013673
0.012514
0.018905
0.011245
0.019931
0.013300
0.019716
0.016993
0.024741
0.019813
0.013500
0.048034
1.000000
1.000000
1.000000
0.000000
0.000000
0.000000
0.000000
0.002253
0.006067
0.004881
0.005986
0.005685
0.006590
0.010006
0.005326
0.002390
0.006504
0.006765
0.014895
0.006087
0.016633
0.023130
0.017900
0.029862
0.040014
0.047823
0.044123
0.056995
0.054809
0.097806
0.016162
1.000000
1.000000
1.000000
0.000000
0.000000
0.000000
0.000000
0.000275
0.003758
0.003539
0.002938
0.010574
0.009795
0.003984
0.008443
0.007864
0.005740
0.014527
0.013441
0.016935
0.018129
0.035487
0.018546
0.042494
0.042389
0.061811
0.047972
0.069661
0.066755
0.105021
0.064638
1.000000
1.000000
1.000000
0.000000
0.000000
0.000000
0.000000
0.005713
0.003329
0.002124
0.004840
0.010965
0.001437
0.004815
0.016620
0.003764
0.006069
0.008871
0.006291
0.010095
0.003433
0.015375
0.007724
0.006855
0.013264
0.016854
0.016182
0.015953
0.046087
0.054273
0.003797
1.000000
1.000000
1.000000
0.000000
0.000000
0.000000
0.000000
0.001231
0.001403
0.002163
0.002096
0.006156
0.007694
0.012162
0.015774
0.004667
0.006934
0.013679
0.003625
0.007667
0.004313
0.007294
0.011132
0.014755
0.009188
0.009834
0.009254
0.006096
0.025794
0.003926
0.021044
1.000000
1.000000
1.000000
0.000000
0.000000
0.000000
0.000000
0.007258
0.001410
0.003277
0.001175
0.004303
0.009116
0.005109
0.005520
0.016065
0.010676
0.013033
0.005247
0.007361
0.005090
0.008879
0.008825
0.006260
0.008498
0.011511
0.014735
0.004539
0.040568
0.021077
0.009184
1.000000
1.000000
1.000000
0.000000
0.000000
0.000000
0.000000
0.002181
0.002504
0.002776
0.002527
0.004543
0.007462
0.003480
0.007793
0.016134
0.011782
0.006166
0.011140
0.009743
0.005748
0.008708
0.007349
0.010710
0.012353
0.009316
0.016201
0.006092
0.037392
0.011613
0.013165
1.000000
1.000000
1.000000
0.000000
0.000000
0.000000
0.000000
0.007451
0.002697
0.003843
0.001808
0.004242
0.000264
0.009459
0.010300
0.015392
0.004365
0.010315
0.017550
0.003211
0.001825
0.007961
0.007175
0.012794
0.018518
0.012935
0.017737
0.010879
0.032955
0.010532
0.018252
1.000000
1.000000
1.000000
0.000000
0.000000
0.000000
0.000000
0.005484
0.002354
0.004022
0.002053
0.002138
0.002601
0.003285
0.006675
0.008253
0.014383
0.025385
0.007468
0.005164
0.009493
0.005983
0.004652
0.009712
0.012834
0.017258
0.026733
0.016445
0.036080
0.017079
0.004855
1.000000
1.000000
1.000000
0.000000
0.000000
0.000000
0.000000
0.007823
0.005146
0.003231
0.002328
0.006696
0.003023
0.004810
0.004935
0.008214
0.018159
0.004841
0.009860
0.024717
0.010634
0.011092
0.013784
0.015854
0.021708
0.010141
0.018320
0.024727
0.025589
0.027853
0.029336
1.000000
1.000000
1.000000
0.000000
0.000000
0.000000
0.000000
0.007022
0.003468
0.006431
0.001364
0.002514
0.005493
0.007415
0.007374
0.013654
0.005278
0.006161
0.025122
0.014891
0.006945
0.014980
0.007880
0.018238
0.017107
0.025886
0.029165
0.019985
0.028586
0.028542
0.016717
1.000000
1.000000
1.000000
0.000000
0.000000
0.000000
0.000000
0.007151
0.004932
0.004714
0.003359
0.006697
0.001815
0.002033
0.004303
0.007974
0.011539
0.029228
0.017108
0.007553
0.025851
0.018971
0.016826
0.015425
0.020107
0.016191
0.025601
0.040528
0.041807
0.026088
0.014316
1.000000
1.000000
1.000000
0.000000
0.000000
0.000000
0.000000
0.011580
0.006372
0.003866
0.002876
0.004399
0.005321
0.002025
0.004831
0.004532
0.008114
0.000278
0.004887
0.029147
0.027837
0.021484
0.019034
0.012894
0.020043
0.017481
0.027088
0.018301
0.035962
0.032374
0.012953
1.000000
1.000000
1.000000
0.000000
0.000000
0.000000
0.000000
0.008065
0.006850
0.004994
0.001612
0.009081
0.000818
0.004700
0.004116
0.009187
0.002629
0.002241
0.017992
0.021268
0.024536
0.019522
0.019632
0.025418
0.021882
0.040908
0.051907
0.034875
0.052423
0.013571
0.006830
1.000000
1.000000
1.000000
0.000000
0.000000
0.000000
0.000000
0.012468
0.008137
0.003569
0.004610
0.005587
0.003428
0.005930
0.001345
0.009756
0.006382
0.016618
0.016996
0.011599
0.014894
0.029790
0.032722
0.006678
0.021272
0.027105
0.028129
0.041683
0.026585
0.021740
0.039257
1.000000
1.000000
1.000000
0.000000
0.000000
0.000000
0.000000
0.012102
0.009275
0.005276
0.004336
0.007677
0.006506
0.004694
0.012330
0.006565
0.010694
0.009639
0.011542
0.029614
0.028350
0.046307
0.022103
0.009398
0.037671
0.036484
0.057393
0.022842
0.053301
0.039228
0.041919
0.000000
0.000000
0.000000
0.000000
0.013653
0.008719
0.004279
0.001512
0.007160
0.001356
0.009220
0.001748
0.011574
0.008932
0.007812
0.013290
0.023805
0.006920
0.030533
0.042969
0.051491
0.054084
0.037605
0.030632
0.058122
0.049064
0.018217
0.014995
0.000000
0.000000
0.000000
0.000000
0.014769
0.010345
0.003267
0.006588
0.005099
0.009057
0.004371
0.011703
0.010782
0.006085
0.018718
0.009807
0.021085
0.019671
0.005308
0.052548
0.002478
0.016043
0.051762
0.039035
0.041145
0.036936
0.044406
0.056830
0.000000
0.000000
0.000000
0.000000
0.011370
0.007268
0.005297
0.001912
0.007209
0.001466
0.008443
0.001661
0.009400
0.007804
0.009634
0.012299
0.016435
0.017755
0.025810
0.032611
0.010090
0.009056
0.027873
0.007132
0.018777
0.013555
0.014188
0.018487
0.000000
0.000000
0.000000
0.000000
0.014007
0.008847
0.004339
0.006507
0.005012
0.008719
0.003711
0.012590
0.006115
0.009277
0.011631
0.012074
0.013526
0.022608
0.019269
0.032925
0.057595
0.047218
0.055893
0.057977
0.032848
0.031001
0.042678
0.063840
0.000000
0.000000
0.000000
0.000000
0.012263
0.006176
0.003473
0.002406
0.004511
0.001736
0.006952
0.002349
0.007094
0.000549
0.003366
0.000676
0.011610
0.014043
0.016802
0.018774
0.010419
0.019540
0.054922
0.064029
0.065383
0.061166
0.037626
0.003640
0.000000
0.000000
0.000000
0.000000
0.012847
0.007311
0.005672
0.005075
0.007174
0.006562
0.006063
0.009143
0.004596
0.006157
0.005547
0.008070
0.006587
0.005495
0.004457
0.002634
0.014320
0.011280
0.013774
0.055247
0.048807
0.053453
0.031407
0.026062
0.000000
0.000000
0.000000
0.000000
0.014515
0.007186
0.004126
0.005245
0.006590
0.005360
0.006005
0.003618
0.004483
0.004334
0.005746
0.003839
0.007646
0.008495
0.016188
0.017740
0.033705
0.046079
0.072075
0.042025
0.033106
0.073367
0.055419
0.019386
0.000000
0.000000
0.000000
0.000000
0.012214
0.007282
0.004242
0.005503
0.005524
0.004724
0.005310
0.005664
0.005504
0.002975
0.008022
0.006520
0.013111
0.011004
0.018570
0.015412
0.030716
0.028285
0.067286
0.058268
0.137752
0.039594
0.064059
0.053479
0.000000
0.000000
0.000000
0.000000
0.014330
0.006310
0.003190
0.005078
0.004606
0.005038
0.003799
0.003446
0.003835
0.005182
0.007566
0.010023
0.009251
0.010393
0.012680
0.012487
0.003740
0.034019
0.026125
0.088845
0.059552
0.110162
0.105613
0.060609
0.000000
0.000000
0.000000
0.000000
0.013645
0.008236
0.003727
0.006116
0.006685
0.004800
0.005968
0.004850
0.006231
0.008571
0.005756
0.005533
0.007133
0.007060
0.008046
0.011525
0.007499
0.039385
0.025916
0.054164
0.018809
0.070406
0.052309
0.137738
0.000000
0.000000
0.000000
0.000000
0.012824
0.005449
0.003094
0.005009
0.002036
0.004020
0.002605
0.006583
0.003320
0.004820
0.005987
0.007984
0.007318
0.010056
0.006759
0.023307
0.011822
0.023426
0.014929
0.020587
0.046760
0.109253
0.065027
0.124337
0.000000
0.000000
0.000000
0.000000
0.014072
0.007107
0.001876
0.003548
0.004124
0.004484
0.002536
0.003889
0.001690
0.006948
0.002400
0.006037
0.005378
0.010764
0.005903
0.011756
0.012084
0.011068
0.025038
0.041747
0.101508
0.119122
0.200730
0.323217
0.000000
0.000000
0.000000
0.000000
0.014168
0.006938
0.000218
0.004744
0.002547
0.005219
0.003018
0.006679
0.002318
0.006471
0.004248
0.008482
0.006004
0.012248
0.011381
0.012065
0.013794
0.032665
0.028025
0.038887
0.045952
0.074860
0.044504
0.342054
0.000000
0.000000
0.000000
0.000000
0.014627
0.005836
0.001804
0.004464
0.001955
0.004663
0.001874
0.004708
0.002463
0.006625
0.003819
0.011458
0.004066
0.007794
0.009025
0.017078
0.014255
0.017819
0.026012
0.055199
0.046120
0.029324
0.074731
0.196712
0.000000
0.000000
0.000000
0.000000
0.012805
0.005666
0.001092
0.004180
0.001929
0.005219
0.001713
0.005302
0.000904
0.009323
0.002775
0.004236
0.008171
0.008386
0.011515
0.013200
0.014701
0.039967
0.020980
0.024385
0.020897
0.053221
0.009565
0.191080
0.000000
0.000000
0.000000
0.000000
0.014938
0.005604
0.001062
0.004179
0.001156
0.003025
0.001229
0.005821
0.001135
0.004339
0.001649
0.008367
0.003885
0.012561
0.009716
0.028072
0.017139
0.018726
0.026662
0.035717
0.032805
0.024417
0.061563
0.168758
0.000000
0.000000
0.000000
0.000000
0.013714
0.005216
0.001722
0.003740
0.002351
0.005667
0.000404
0.005888
0.000997
0.009163
0.003810
0.009507
0.005841
0.015890
0.009294
0.011572
0.020595
0.018302
0.023374
0.034358
0.017935
0.011061
0.004929
0.137660
0.000000
0.000000
0.000000
0.000000
0.014168
0.005656
0.001519
0.004173
0.001943
0.004655
0.001607
0.005520
0.000592
0.004883
0.002199
0.008624
0.002277
0.009380
0.012030
0.012778
0.014795
0.033799
0.009018
0.010930
0.004458
0.030777
0.028890
0.149603
0.000000
0.000000
0.000000
0.000000
0.015288
0.004663
0.001705
0.003788
0.002303
0.003694
0.002020
0.004331
0.002673
0.006706
0.002048
0.009363
0.002510
0.010015
0.009860
0.027313
0.009635
0.012991
0.003161
0.028947
0.003807
0.014164
0.024190
0.109730
0.000000
0.000000
0.000000
0.000000
0.013910
0.005827
0.003013
0.002628
0.001525
0.004163
0.000892
0.005620
0.001864
0.008791
0.000606
0.007770
0.001663
0.016063
0.003899
0.006810
0.006455
0.019213
0.011743
0.007951
0.011313
0.012232
0.008087
0.115097
0.000000
0.000000
0.000000
0.000000
0.015027
0.004358
0.001941
0.004186
0.001226
0.004352
0.001323
0.005431
0.001936
0.003650
0.002739
0.008121
0.002808
0.007273
0.003560
0.013295
0.010162
0.015002
0.006868
0.012403
0.006172
0.011809
0.028424
0.091741
0.000000
0.000000
0.000000
0.000000
0.014199
0.005158
0.003090
0.002300
0.002560
0.002617
0.001934
0.003211
0.002542
0.005868
0.002322
0.009067
0.002819
0.008864
0.006773
0.014517
0.002470
0.007484
0.006058
0.012010
0.007221
0.002255
0.009925
0.082277
0.000000
0.000000
0.000000
0.000000
0.015553
0.005534
0.004537
0.002406
0.001681
0.004416
0.001879
0.004383
0.000611
0.007256
0.001104
0.004678
0.000787
0.010345
0.003601
0.006785
0.007945
0.014158
0.008059
0.007170
0.009807
0.009934
0.020629
0.070311
0.000000
0.000000
0.000000
0.000000
0.014197
0.004809
0.002840
0.002814
0.001940
0.002109
0.002091
0.004538
0.001881
0.002996
0.003652
0.007099
0.002649
0.006206
0.004388
0.010487
0.007482
0.008443
0.010112
0.009446
0.008646
0.004570
0.016435
0.055940
0.000000
0.000000
0.000000
0.000000
0.014168
0.004344
0.004071
0.001883
0.003607
0.003117
0.002515
0.002606
0.003476
0.004753
0.000670
0.005126
0.001668
0.006820
0.003458
0.007352
0.006982
0.009343
0.011700
0.008877
0.014839
0.006674
0.015741
0.045244
0.000000
0.000000
0.000000
0.000000
0.014223
0.005340
0.004863
0.001976
0.001631
0.002682
0.002936
0.003281
0.001456
0.004694
0.002800
0.005339
0.003056
0.005896
0.004469
0.006211
0.006129
0.007427
0.009720
0.007810
0.013958
0.005645
0.017366
0.033754
0.000000
0.000000
0.000000
0.000000
0.014238
0.004406
0.003778
0.002062
0.003651
0.002433
0.002547
0.003752
0.003111
0.002963
0.002716
0.003416
0.002215
0.004571
0.003358
0.005803
0.006256
0.006352
0.009796
0.006477
0.014143
0.005841
0.019116
0.021996
0.000000
0.000000
0.000000
0.000000
0.012629
0.003980
0.004768
0.001647
0.002736
0.002289
0.003026
0.001774
0.003059
0.003365
0.002762
0.004756
0.003717
0.004897
0.004488
0.004783
0.005670
0.004378
0.008135
0.005342
0.011393
0.003813
0.017162
0.011757
0.000000
0.000000
0.000000
0.000000
0.013251
0.004738
0.004294
0.002053
0.003134
0.002474
0.003275
0.003373
0.002815
0.003150
0.002960
0.002704
0.003198
0.002737
0.003812
0.003568
0.005661
0.005193
0.008415
0.004210
0.011537
0.003090
0.013468
0.005661
0.000000
0.000000
0.000000
0.000000
0.012659
0.003473
0.004544
0.001641
0.003158
0.002175
0.002371
0.002043
0.002970
0.002237
0.004148
0.002525
0.004621
0.003576
0.005288
0.003551
0.006168
0.002622
0.007271
0.003467
0.008976
0.001542
0.012422
0.002771
0.000000
0.000000
0.000000
0.000000
0.011330
0.004355
0.004379
0.001633
0.003100
0.002051
0.004082
0.002131
0.004028
0.002212
0.003244
0.002916
0.003315
0.001558
0.004564
0.002113
0.006222
0.002775
0.008279
0.002259
0.010272
0.002643
0.011141
0.000912
0.000000
0.000000
0.000000
0.000000
0.012204
0.002935
0.004435
0.001700
0.003636
0.001696
0.002520
0.001960
0.002623
0.002462
0.003775
0.001391
0.005054
0.002209
0.005719
0.001431
0.006683
0.001640
0.007593
0.002613
0.008661
0.002093
0.010402
0.000599
0.000000
0.000000
0.000000
0.000000
0.010151
0.004310
0.004569
0.001350
0.002733
0.002304
0.003424
0.002162
0.004055
0.001647
0.004622
0.001245
0.004494
0.000193
0.005322
0.001604
0.006156
0.001638
0.007750
0.001791
0.009274
0.002013
0.010287
0.001196
0.000000
0.000000
0.000000
0.000000
0.011658
0.002677
0.004160
0.001538
0.003790
0.001090
0.003655
0.001178
0.003830
0.001230
0.003737
0.000729
0.005229
0.001111
0.006355
0.000554
0.007769
0.001634
0.008379
0.002369
0.008658
0.003030
0.009148
0.001992
0.000000
0.000000
0.000000
0.000000
0.008912
0.003827
0.004926
0.001253
0.003499
0.001810
0.003317
0.002081
0.003395
0.001467
0.004481
0.000755
0.004761
0.000888
0.005874
0.001461
0.006625
0.002509
0.007906
0.003007
0.008964
0.002849
0.010284
0.002116
0.000000
0.000000
0.000000
0.000000
0.011275
0.003537
0.004407
0.001611
0.003075
0.001238
0.002812
0.001060
0.003930
0.000634
0.004342
0.000616
0.005840
0.000884
0.006732
0.001789
0.007941
0.002209
0.008375
0.002582
0.008722
0.003472
0.008749