<?xml version='1.0' encoding='UTF-8'?>
<VTKFile xmlns='VTK' byte_order='LittleEndian' version='0.1' type='UnstructuredGrid'>
<UnstructuredGrid>
<Piece NumberOfCells='2512' NumberOfPoints='2512'>
<Points>
<DataArray NumberOfComponents='3' type='Float32' Name='Position' format='ascii'>
-0.075000 -0.075000 0.000000
-0.075000 -0.050000 0.000000
-0.075000 -0.025000 0.000000
-0.075000 0.000000 0.000000
-0.075000 0.025000 0.000000
-0.075000 0.050000 0.000000
-0.075000 0.075000 0.000000
-0.075000 0.100000 0.000000
-0.075000 0.125000 0.000000
-0.075000 0.150000 0.000000
-0.075000 0.175000 0.000000
-0.075000 0.200000 0.000000
-0.075000 0.225000 0.000000
-0.075000 0.250000 0.000000
-0.075000 0.275000 0.000000
-0.075000 0.300000 0.000000
-0.075000 0.325000 0.000000
-0.075000 0.350000 0.000000
-0.075000 0.375000 0.000000
-0.075000 0.400000 0.000000
-0.075000 0.425000 0.000000
-0.075000 0.450000 0.000000
-0.075000 0.475000 0.000000
-0.075000 0.500000 0.000000
-0.075000 0.525000 0.000000
-0.075000 0.550000 0.000000
-0.075000 0.575000 0.000000
-0.075000 0.600000 0.000000
-0.050000 -0.075000 0.000000
-0.050000 -0.050000 0.000000
-0.050000 -0.025000 0.000000
-0.050000 0.000000 0.000000
-0.050000 0.025000 0.000000
-0.050000 0.050000 0.000000
-0.050000 0.075000 0.000000
-0.050000 0.100000 0.000000
-0.050000 0.125000 0.000000
-0.050000 0.150000 0.000000
-0.050000 0.175000 0.000000
-0.050000 0.200000 0.000000
-0.050000 0.225000 0.000000
-0.050000 0.250000 0.000000
-0.050000 0.275000 0.000000
-0.050000 0.300000 0.000000
-0.050000 0.325000 0.000000
-0.050000 0.350000 0.000000
-0.050000 0.375000 0.000000
-0.050000 0.400000 0.000000
-0.050000 0.425000 0.000000
-0.050000 0.450000 0.000000
-0.050000 0.475000 0.000000
-0.050000 0.500000 0.000000
-0.050000 0.525000 0.000000
-0.050000 0.550000 0.000000
-0.050000 0.575000 0.000000
-0.050000 0.600000 0.000000
-0.025000 -0.075000 0.000000
-0.025000 -0.050000 0.000000
-0.025000 -0.025000 0.000000
-0.025000 0.000000 0.000000
-0.025000 0.025000 0.000000
-0.025000 0.050000 0.000000
-0.025000 0.075000 0.000000
-0.025000 0.100000 0.000000
-0.025000 0.125000 0.000000
-0.025000 0.150000 0.000000
-0.025000 0.175000 0.000000
-0.025000 0.200000 0.000000
-0.025000 0.225000 0.000000
-0.025000 0.250000 0.000000
-0.025000 0.275000 0.000000
-0.025000 0.300000 0.000000
-0.025000 0.325000 0.000000
-0.025000 0.350000 0.000000
-0.025000 0.375000 0.000000
-0.025000 0.400000 0.000000
-0.025000 0.425000 0.000000
-0.025000 0.450000 0.000000
-0.025000 0.475000 0.000000
-0.025000 0.500000 0.000000
-0.025000 0.525000 0.000000
-0.025000 0.550000 0.000000
-0.025000 0.575000 0.000000
-0.025000 0.600000 0.000000
0.000000 -0.075000 0.000000
0.000000 -0.050000 0.000000
0.000000 -0.025000 0.000000
0.000000 0.000000 0.000000
0.000000 0.025000 0.000000
0.000000 0.050000 0.000000
0.000000 0.075000 0.000000
0.000000 0.100000 0.000000
0.000000 0.125000 0.000000
0.000000 0.150000 0.000000
0.000000 0.175000 0.000000
0.000000 0.200000 0.000000
0.000000 0.225000 0.000000
0.000000 0.250000 0.000000
0.000000 0.275000 0.000000
0.000000 0.300000 0.000000
0.000000 0.325000 0.000000
0.000000 0.350000 0.000000
0.000000 0.375000 0.000000
0.000000 0.400000 0.000000
0.000000 0.425000 0.000000
0.000000 0.450000 0.000000
0.000000 0.475000 0.000000
0.000000 0.500000 0.000000
0.000000 0.525000 0.000000
0.000000 0.550000 0.000000
0.000000 0.575000 0.000000
0.000000 0.600000 0.000000
0.025000 -0.075000 0.000000
0.025000 -0.050000 0.000000
0.025000 -0.025000 0.000000
0.025000 0.000000 0.000000
0.024908 0.024875 0.000000
0.025031 0.050018 0.000000
0.024985 0.074914 0.000000
0.025009 0.099990 0.000000
0.024984 0.124938 0.000000
0.025016 0.149984 0.000000
0.024986 0.174942 0.000000
0.025011 0.199981 0.000000
0.024993 0.224949 0.000000
0.025005 0.249974 0.000000
0.024999 0.274956 0.000000
0.025000 0.299972 0.000000
0.025002 0.324957 0.000000
0.024994 0.349975 0.000000
0.025007 0.374969 0.000000
0.024995 0.399938 0.000000
0.024987 0.425049 0.000000
0.025057 0.449837 0.000000
0.024865 0.475176 0.000000
0.025166 0.499747 0.000000
0.024725 0.525401 0.000000
0.025321 0.549516 0.000000
0.024331 0.575800 0.000000
0.024809 0.599259 0.000000
0.065000 0.625000 0.000000
0.065000 0.650000 0.000000
0.065000 0.675000 0.000000
0.050000 -0.075000 0.000000
0.050000 -0.050000 0.000000
0.050000 -0.025000 0.000000
0.050000 0.000000 0.000000
0.050023 0.024965 0.000000
0.049946 0.049935 0.000000
0.050021 0.074969 0.000000
0.049981 0.099970 0.000000
0.050004 0.124950 0.000000
0.049997 0.149979 0.000000
0.049996 0.174951 0.000000
0.050005 0.199984 0.000000
0.049996 0.224950 0.000000
0.050004 0.249982 0.000000
0.049999 0.274956 0.000000
0.050001 0.299979 0.000000
0.050001 0.324956 0.000000
0.049995 0.349980 0.000000
0.050003 0.374983 0.000000
0.049997 0.399909 0.000000
0.049966 0.425136 0.000000
0.050055 0.449750 0.000000
0.049879 0.475320 0.000000
0.050099 0.499665 0.000000
0.049871 0.525347 0.000000
0.049900 0.549882 0.000000
0.049925 0.575431 0.000000
0.049787 0.599115 0.000000
0.090000 0.625000 0.000000
0.090000 0.650000 0.000000
0.090000 0.675000 0.000000
0.075000 -0.075000 0.000000
0.075000 -0.050000 0.000000
0.075000 -0.025000 0.000000
0.075000 0.000000 0.000000
0.074954 0.024952 0.000000
0.075023 0.050019 0.000000
0.074981 0.074946 0.000000
0.074997 0.099980 0.000000
0.075002 0.124968 0.000000
0.074993 0.149971 0.000000
0.075002 0.174960 0.000000
0.074998 0.199979 0.000000
0.074998 0.224952 0.000000
0.075000 0.249982 0.000000
0.074998 0.274954 0.000000
0.074999 0.299981 0.000000
0.074999 0.324953 0.000000
0.074997 0.349977 0.000000
0.074998 0.374991 0.000000
0.075004 0.399870 0.000000
0.074974 0.425167 0.000000
0.075012 0.449702 0.000000
0.074968 0.475236 0.000000
0.074938 0.499802 0.000000
0.074996 0.525175 0.000000
0.074931 0.549690 0.000000
0.074905 0.575349 0.000000
0.074754 0.599194 0.000000
0.115000 0.625000 0.000000
0.115000 0.650000 0.000000
0.115000 0.675000 0.000000
0.100000 -0.075000 0.000000
0.100000 -0.050000 0.000000
0.100000 -0.025000 0.000000
0.100000 0.000000 0.000000
0.099997 0.024941 0.000000
0.099995 0.049972 0.000000
0.099988 0.074949 0.000000
0.100017 0.099996 0.000000
0.099983 0.124941 0.000000
0.100005 0.149983 0.000000
0.099997 0.174957 0.000000
0.099998 0.199978 0.000000
0.099999 0.224954 0.000000
0.099999 0.249982 0.000000
0.099999 0.274954 0.000000
0.099999 0.299982 0.000000
0.099998 0.324953 0.000000
0.099998 0.349975 0.000000
0.099994 0.374998 0.000000
0.099997 0.399871 0.000000
0.099997 0.425160 0.000000
0.099977 0.449742 0.000000
0.100004 0.475245 0.000000
0.099993 0.499698 0.000000
0.099834 0.525256 0.000000
0.099979 0.549853 0.000000
0.099962 0.575233 0.000000
0.099925 0.599130 0.000000
0.140000 0.625000 0.000000
0.140000 0.650000 0.000000
0.140000 0.675000 0.000000
0.125000 -0.075000 0.000000
0.125000 -0.050000 0.000000
0.125000 -0.025000 0.000000
0.125000 0.000000 0.000000
0.124983 0.024946 0.000000
0.124994 0.050002 0.000000
0.125005 0.074961 0.000000
0.124985 0.099974 0.000000
0.124997 0.124958 0.000000
0.125003 0.149987 0.000000
0.124994 0.174950 0.000000
0.125001 0.199985 0.000000
0.124999 0.224952 0.000000
0.124999 0.249982 0.000000
0.124999 0.274954 0.000000
0.124999 0.299980 0.000000
0.124997 0.324952 0.000000
0.124997 0.349973 0.000000
0.124995 0.374991 0.000000
0.124989 0.399873 0.000000
0.124992 0.425149 0.000000
0.124987 0.449705 0.000000
0.124953 0.475293 0.000000
0.125005 0.499666 0.000000
0.124974 0.525164 0.000000
0.124967 0.549851 0.000000
0.124908 0.575199 0.000000
0.124893 0.599225 0.000000
0.165000 0.625000 0.000000
0.165000 0.650000 0.000000
0.165000 0.675000 0.000000
0.150000 -0.075000 0.000000
0.150000 -0.050000 0.000000
0.150000 -0.025000 0.000000
0.150000 0.000000 0.000000
0.149998 0.024949 0.000000
0.150000 0.049988 0.000000
0.149988 0.074947 0.000000
0.150002 0.099988 0.000000
0.150003 0.124959 0.000000
0.149996 0.149978 0.000000
0.150000 0.174955 0.000000
0.150001 0.199985 0.000000
0.149999 0.224950 0.000000
0.150000 0.249983 0.000000
0.149999 0.274954 0.000000
0.149999 0.299980 0.000000
0.149999 0.324951 0.000000
0.149998 0.349974 0.000000
0.149997 0.374991 0.000000
0.149997 0.399867 0.000000
0.149987 0.425164 0.000000
0.150001 0.449698 0.000000
0.149988 0.475269 0.000000
0.149952 0.499698 0.000000
0.149940 0.525211 0.000000
0.149999 0.549861 0.000000
0.149993 0.575122 0.000000
0.149952 0.599204 0.000000
0.190000 0.625000 0.000000
0.190000 0.650000 0.000000
0.190000 0.675000 0.000000
0.175000 -0.075000 0.000000
0.175000 -0.050000 0.000000
0.175000 -0.025000 0.000000
0.175000 0.000000 0.000000
0.174989 0.024946 0.000000
0.174997 0.049996 0.000000
0.175001 0.074959 0.000000
0.175002 0.099987 0.000000
0.174994 0.124953 0.000000
0.175000 0.149984 0.000000
0.175000 0.174956 0.000000
0.174999 0.199983 0.000000
0.175000 0.224951 0.000000
0.175000 0.249983 0.000000
0.174999 0.274953 0.000000
0.174999 0.299980 0.000000
0.174999 0.324951 0.000000
0.174998 0.349971 0.000000
0.174995 0.374991 0.000000
0.174999 0.399861 0.000000
0.174991 0.425154 0.000000
0.174988 0.449707 0.000000
0.174996 0.475261 0.000000
0.174991 0.499638 0.000000
0.174949 0.525204 0.000000
0.174970 0.549901 0.000000
0.174944 0.575113 0.000000
0.174960 0.599237 0.000000
0.215000 0.625000 0.000000
0.215000 0.650000 0.000000
0.215000 0.675000 0.000000
0.200000 -0.075000 0.000000
0.200000 -0.050000 0.000000
0.200000 -0.025000 0.000000
0.200000 0.000000 0.000000
0.200000 0.024949 0.000000
0.200001 0.049994 0.000000
0.199997 0.074952 0.000000
0.199996 0.099984 0.000000
0.200000 0.124957 0.000000
0.200001 0.149984 0.000000
0.199999 0.174953 0.000000
0.200000 0.199985 0.000000
0.200000 0.224951 0.000000
0.200000 0.249983 0.000000
0.200000 0.274953 0.000000
0.200000 0.299979 0.000000
0.200000 0.324951 0.000000
0.199999 0.349969 0.000000
0.199998 0.374993 0.000000
0.199998 0.399862 0.000000
0.199994 0.425152 0.000000
0.199998 0.449707 0.000000
0.199987 0.475271 0.000000
0.199995 0.499646 0.000000
0.199993 0.525213 0.000000
0.200009 0.549887 0.000000
[...]
<PointData>
<DataArray NumberOfComponents='1' type='Int32' Name='ParticleType' format='ascii'>
3
3
3
3
3
3
3
3
3
3
3
3
3
3
3
3
3
3
3
3
3
3
3
3
3
3
3
3
3
3
3
3
3
3
3
3
3
3
3
3
3
3
3
3
3
3
3
3
3
3
3
3
3
3
3
3
3
3
2
2
2
2
2
2
2
2
2
2
2
2
2
2
2
2
2
2
2
2
2
2
2
2
2
2
3
3
2
2
2
2
2
2
2
2
2
2
2
2
2
2
2
2
2
2
2
2
2
2
2
2
2
2
3
3
2
2
0
0
0
0
0
0
0
0
0
0
0
0
0
0
0
0
0
0
0
0
0
0
0
0
1
1
1
3
3
2
2
0
0
0
0
0
0
0
0
0
0
0
0
0
0
0
0
0
0
0
0
0
0
0
0
1
1
1
3
3
2
2
0
0
0
0
0
0
0
0
0
0
0
0
0
0
0
0
0
0
0
0
0
0
0
0
1
1
1
3
3
2
2
0
0
0
0
0
0
0
0
0
0
0
0
0
0
0
0
0
0
0
0
0
0
0
0
1
1
1
3
3
2
2
0
0
0
0
0
0
0
0
0
0
0
0
0
0
0
0
0
0
0
0
0
0
0
0
1
1
1
3
3
2
2
0
0
0
0
0
0
0
0
0
0
0
0
0
0
0
0
0
0
0
0
0
0
0
0
1
1
1
3
3
2
2
0
0
0
0
0
0
0
0
0
0
0
0
0
0
0
0
0
0
0
0
0
0
0
0
1
1
1
3
3
2
2
0
0
0
0
0
0
0
0
0
0
0
0
0
0
0
0
0
0
0
0
0
0
0
0
1
1
1
3
3
2
2
0
0
0
0
0
0
0
0
0
0
0
0
0
0
0
0
0
0
0
0
0
0
0
0
1
1
1
3
3
2
2
0
0
0
0
0
0
0
0
0
0
0
0
0
0
0
0
0
0
0
0
0
0
0
0
1
1
1
3
3
2
2
0
0
0
0
0
0
0
0
0
0
0
0
0
0
0
0
0
0
0
0
0
0
0
0
1
1
1
3
3
2
2
0
0
0
0
0
0
0
0
0
0
0
0
0
0
0
0
0
0
0
0
0
0
0
0
1
1
1
3
3
2
2
0
0
0
0
0
0
0
0
0
0
0
0
0
0
0
0
0
0
0
0
0
0
0
0
1
1
1
3
3
2
2
0
0
0
0
0
0
0
0
0
0
0
0
0
0
0
0
0
0
0
0
0
0
0
0
1
1
1
3
3
2
2
0
0
0
0
0
0
0
0
0
0
0
0
0
0
0
0
0
0
0
0
0
0
0
0
1
1
1
3
3
2
2
0
0
0
0
0
0
0
0
0
0
0
0
0
0
0
0
0
0
0
0
0
0
0
0
1
1
1
3
3
2
2
0
0
0
0
0
0
0
0
0
0
0
0
0
0
0
0
0
0
0
0
0
0
0
0
3
3
2
2
0
0
0
0
0
0
0
0
0
0
0
0
0
0
0
0
0
0
0
0
0
0
0
0
3
3
2
2
0
0
0
0
0
0
0
0
0
0
0
0
0
0
0
0
0
0
0
0
0
0
0
0
3
3
2
2
0
0
0
0
0
0
0
0
0
0
0
0
0
0
0
0
0
0
0
0
0
0
0
0
3
3
2
2
0
0
0
0
0
0
0
0
0
0
0
0
0
0
0
0
0
0
0
0
0
0
0
0
3
3
2
2
0
0
0
0
0
0
0
0
0
0
0
0
0
0
0
0
0
0
0
0
0
0
0
0
3
3
2
2
0
0
0
0
0
0
0
0
0
0
0
0
0
0
0
0
0
0
0
0
0
0
0
0
3
3
2
2
0
0
0
0
0
0
0
0
0
0
0
0
0
0
0
0
0
0
0
0
0
0
0
0
3
3
2
2
0
0
0
0
0
0
0
0
0
0
0
0
0
0
0
0
0
0
0
0
0
0
0
0
3
3
2
2
0
0
0
0
0
0
0
0
0
0
0
0
0
0
0
0
0
0
0
0
0
0
0
0
3
3
2
2
0
0
0
0
0
0
0
0
0
0
0
0
0
0
0
0
0
0
0
0
0
0
0
0
3
3
2
2
0
0
0
0
0
0
0
0
0
0
0
0
0
0
0
0
0
0
0
0
0
0
0
0
3
3
2
2
0
0
0
0
0
0
0
0
0
0
0
0
0
0
0
0
0
0
0
0
0
0
0
0
3
3
2
2
0
0
0
0
0
0
0
0
0
0
0
0
0
0
0
0
0
0
0
0
0
0
0
0
3
3
2
2
0
0
0
0
0
0
0
0
0
0
0
0
0
0
0
0
0
0
0
0
0
0
0
0
3
3
2
2
0
0
0
0
0
0
0
0
0
0
0
0
0
0
0
0
0
0
0
0
0
0
0
0
3
3
2
2
0
0
0
0
0
0
0
0
0
0
0
0
0
0
0
0
0
0
0
0
0
0
0
0
3
3
2
2
0
0
0
0
0
0
0
0
0
0
0
0
0
0
0
0
0
0
0
0
0
0
0
0
3
3
2
2
0
0
0
0
0
0
0
0
0
0
0
0
0
0
0
0
0
0
0
0
0
0
0
0
3
3
2
2
0
0
0
0
0
0
0
0
0
0
0
0
0
0
0
0
0
0
0
0
0
0
0
0
3
3
2
2
0
0
0
0
0
0
0
0
0
0
0
0
0
0
0
0
0
0
0
0
0
0
0
0
3
3
2
2
0
0
0
0
0
0
0
0
0
0
0
0
0
0
0
0
0
0
0
0
0
0
0
0
3
3
2
2
0
0
0
0
0
0
0
0
0
0
0
0
0
0
0
0
0
0
0
0
0
0
0
0
3
3
2
2
0
0
0
0
0
0
0
0
0
0
0
0
0
0
0
0
0
0
0
0
0
0
0
0
3
3
2
2
0
0
0
0
0
0
0
0
0
0
0
0
0
0
0
0
0
0
0
0
0
0
0
0
3
3
2
2
0
0
0
0
0
0
0
0
0
0
0
0
0
0
0
0
0
0
0
0
0
0
0
0
3
3
2
2
0
0
0
0
0
0
0
0
0
0
0
0
0
0
0
0
0
0
0
0
0
0
0
0
3
3
2
2
0
0
0
0
0
0
0
0
0
0
0
0
0
0
0
0
0
0
0
0
0
0
0
0
3
3
2
2
0
0
0
0
0
0
0
0
0
0
0
0
0
0
0
0
0
0
0
0
0
0
0
0
3
3
2
2
0
0
0
0
0
0
0
0
0
0
0
0
0
0
0
0
0
0
0
0
0
0
0
0
3
3
2
2
0
0
0
0
0
0
0
0
0
0
0
0
0
0
0
0
0
0
0
0
0
0
0
0
3
3
2
2
0
0
0
0
0
0
0
0
0
0
0
0
0
0
0
0
0
0
0
0
0
0
0
0
3
3
2
2
0
0
0
0
0
0
0
0
0
0
0
0
0
0
0
0
0
0
0
0
0
0
0
0
3
3
2
2
0
0
0
0
0
0
0
0
0
0
0
0
0
0
0
0
0
0
0
0
0
0
0
0
3
3
2
2
0
0
0
0
0
0
0
0
0
0
0
0
0
0
0
0
0
0
0
0
0
0
0
0
3
3
2
2
0
0
0
0
0
0
0
0
0
0
0
0
0
0
0
0
0
0
0
0
0
0
0
0
3
3
2
2
0
0
0
0
0
0
0
0
0
0
0
0
0
0
0
0
0
0
0
0
0
0
0
0
3
3
2
2
0
0
0
0
0
0
0
0
0
0
0
0
0
0
0
0
0
0
0
0
0
0
0
0
3
3
2
2
0
0
0
0
0
0
0
0
0
0
0
0
0
0
0
0
0
0
0
0
0
0
0
0
3
3
2
2
0
0
0
0
0
0
0
0
0
0
0
0
0
0
0
0
0
0
0
0
0
0
0
0
3
3
2
2
0
0
0
0
0
0
0
0
0
0
0
0
0
0
0
0
0
0
0
0
0
0
0
0
3
3
2
2
0
0
0
0
0
0
0
0
0
0
0
0
0
0
0
0
0
0
0
0
0
0
0
0
3
3
2
2
0
0
0
0
0
0
0
0
0
0
0
0
0
0
0
0
0
0
0
0
0
0
0
0
3
3
2
2
0
0
0
0
0
0
0
0
0
0
0
0
0
0
0
0
0
0
0
0
0
0
0
0
3
3
2
2
0
0
0
0
0
0
0
0
0
0
0
0
0
0
0
0
0
0
0
0
0
0
0
0
3
3
2
2
0
0
0
0
0
0
0
0
0
0
0
0
0
0
0
0
0
0
0
0
0
0
0
0
3
3
2
2
0
0
0
0
0
0
0
0
0
0
0
0
0
0
0
0
0
0
0
0
0
0
0
0
3
3
2
2
0
0
0
0
0
0
0
0
0
0
0
0
0
0
0
0
0
0
0
0
0
0
0
0
3
3
2
2
0
0
0
0
0
0
0
0
0
0
0
0
0
0
0
0
0
0
0
0
0
0
0
0
3
3
2
2
0
0
0
0
0
0
0
0
0
0
0
0
0
0
0
0
0
0
0
0
0
0
0
0
3
3
2
2
0
0
0
0
0
0
0
0
0
0
0
0
0
0
0
0
0
0
0
0
0
0
0
0
3
3
2
2
0
0
0
0
0
0
0
0
0
0
0
0
0
0
0
0
0
0
0
0
0
0
0
0
3
3
2
2
0
0
0
0
0
0
0
0
0
0
0
0
0
0
0
0
0
0
0
0
0
0
0
0
3
3
2
2
0
0
0
0
0
0
0
0
0
0
0
0
0
0
0
0
0
0
0
0
0
0
0
0
3
3
2
2
0
0
0
0
0
0
0
0
0
0
0
0
0
0
0
0
0
0
0
0
0
0
0
0
3
3
2
2
0
0
0
0
0
0
0
0
0
0
0
0
0
0
0
0
0
0
0
0
0
0
0
0
3
3
2
2
0
0
0
0
0
0
0
0
0
0
0
0
0
0
0
0
0
0
0
0
0
0
0
0
3
3
2
2
0
0
0
0
0
0
0
0
0
0
0
0
0
0
0
0
0
0
0
0
0
0
0
0
3
3
2
2
0
0
0
0
0
0
0
0
0
0
0
0
0
0
0
0
0
0
0
0
0
0
0
0
3
3
2
2
0
0
0
0
0
0
0
0
0
0
0
0
0
0
0
0
0
0
0
0
0
0
0
0
3
3
2
2
0
0
0
0
0
0
0
0
0
0
0
0
0
0
0
0
0
0
0
0
0
0
0
0
3
3
2
2
0
0
0
0
0
0
0
0
0
0
0
0
0
0
0
0
0
0
0
0
0
0
0
0
3
3
2
2
0
0
0
0
0
0
0
0
0
0
0
0
0
0
0
0
0
0
0
0
0
0
0
0
3
3
2
2
0
0
0
0
0
0
0
0
0
0
0
0
0
0
0
0
0
0
0
0
0
0
0
0
3
3
2
2
2
2
2
2
2
2
2
2
2
2
2
2
2
2
2
2
2
2
2
2
2
2
2
2
3
3
2
2
2
2
2
2
2
2
2
2
2
2
2
2
2
2
2
2
2
2
2
2
2
2
2
2
3
3
3
3
3
3
3
3
3
3
3
3
3
3
3
3
3
3
3
3
3
3
3
3
3
3
3
3
3
3
3
3
3
3
3
3
3
3
3
3
3
3
3
3
3
3
3
3
3
3
3
3
3
3
3
3
</DataArray>
<DataArray NumberOfComponents='1' type='Float32' Name='Velocity' format='ascii'>
0.000000
0.000000
0.000000
0.000000
0.000000
0.000000
0.000000
0.000000
0.000000
0.000000
0.000000
0.000000
0.000000
0.000000
0.000000
0.000000
0.000000
0.000000
0.000000
0.000000
0.000000
0.000000
0.000000
0.000000
0.000000
0.000000
0.000000
0.000000
0.000000
0.000000
0.000000
0.000000
0.000000
0.000000
0.000000
0.000000
0.000000
0.000000
0.000000
0.000000
0.000000
0.000000
0.000000
0.000000
0.000000
0.000000
0.000000
0.000000
0.000000
0.000000
0.000000
0.000000
0.000000
0.000000
0.000000
0.000000
0.000000
0.000000
0.000000
0.000000
0.000000
0.000000
0.000000
0.000000
0.000000
0.000000
0.000000
0.000000
0.000000
0.000000
0.000000
0.000000
0.000000
0.000000
0.000000
0.000000
0.000000
0.000000
0.000000
0.000000
0.000000
0.000000
0.000000
0.000000
0.000000
0.000000
0.000000
0.000000
0.000000
0.000000
0.000000
0.000000
0.000000
0.000000
0.000000
0.000000
0.000000
0.000000
0.000000
0.000000
0.000000
0.000000
0.000000
0.000000
0.000000
0.000000
0.000000
0.000000
0.000000
0.000000
0.000000
0.000000
0.000000
0.000000
0.000000
0.000000
0.000248
0.000429
0.000381
0.001170
0.000747
0.000730
0.000279
0.000654
0.001440
0.000963
0.001937
0.000555
0.001985
0.001679
0.004612
0.011829
0.017448
0.020654
0.020573
0.016217
0.021705
0.005893
0.012242
0.004012
1.000000
1.000000
1.000000
0.000000
0.000000
0.000000
0.000000
0.000519
0.000441
0.001141
0.001453
0.001126
0.001743
0.001423
0.001216
0.000691
0.000808
0.002161
0.001520
0.001717
0.002766
0.010016
0.020565
0.025880
0.017230
0.009901
0.012487
0.018764
0.017396
0.017296
0.019942
1.000000
1.000000
1.000000
0.000000
0.000000
0.000000
0.000000
0.000537
0.001404
0.001461
0.001901
0.001100
0.000660
0.001405
0.001995
0.000345
0.000533
0.002194
0.001937
0.001337
0.004180
0.014107
0.024926
0.024269
0.007240
0.012258
0.024782
0.012598
0.013149
0.012624
0.025581
1.000000
1.000000
1.000000
0.000000
0.000000
0.000000
0.000000
0.000724
0.000641
0.001874
0.001186
0.001639
0.001521
0.000914
0.001270
0.000402
0.000349
0.002114
0.001873
0.001097
0.004855
0.014940
0.023435
0.021762
0.005088
0.004800
0.015802
0.030430
0.017097
0.018063
0.018741
1.000000
1.000000
1.000000
0.000000
0.000000
0.000000
0.000000
0.000711
0.000682
0.000696
0.001905
0.002549
0.000785
0.000432
0.000836
0.000240
0.000516
0.002078
0.001813
0.001261
0.004838
0.013854
0.023412
0.023686
0.012976
0.007884
0.023846
0.043216
0.004853
0.023144
0.024153
1.000000
1.000000
1.000000
0.000000
0.000000
0.000000
0.000000
0.000294
0.000670
0.000298
0.001809
0.000285
0.001542
0.001317
0.001144
0.000295
0.000735
0.002201
0.002005
0.001227
0.004660
0.014353
0.024788
0.025292
0.011090
0.003358
0.017597
0.047285
0.026261
0.021128
0.037560
1.000000
1.000000
1.000000
0.000000
0.000000
0.000000
0.000000
0.000404
0.000881
0.000671
0.001113
0.000703
0.000610
0.000751
0.001316
0.000139
0.000645
0.002306
0.001927
0.001187
0.005015
0.014665
0.024508
0.022805
0.009309
0.005072
0.010702
0.053833
0.032527
0.023838
0.039554
1.000000
1.000000
1.000000
0.000000
0.000000
0.000000
0.000000
0.000348
0.000444
0.000552
0.000477
0.001098
0.000908
0.000574
0.001043
0.000175
0.000594
0.002240
0.001852
0.001097
0.005316
0.014468
0.023816
0.022167
0.010435
0.006960
0.011936
0.054020
0.036871
0.022714
0.044084
1.000000
1.000000
1.000000
0.000000
0.000000
0.000000
0.000000
0.000094
0.000377
0.000694
0.000729
0.000389
0.000967
0.000907
0.001131
0.000197
0.000654
0.002281
0.001788
0.001074
0.005486
0.014483
0.024299
0.021776
0.009693
0.005040
0.008439
0.053888
0.041178
0.023965
0.044734
1.000000
1.000000
1.000000
0.000000
0.000000
0.000000
0.000000
0.000534
0.000488
0.000180
0.000600
0.000378
0.000856
0.000784
0.001196
0.000244
0.000659
0.002303
0.001691
0.000958
0.005641
0.014457
0.023871
0.021266
0.009915
0.006259
0.009590
0.054811
0.037417
0.024857
0.042210
1.000000
1.000000
1.000000
0.000000
0.000000
0.000000
0.000000
0.000133
0.000336
0.000263
0.000520
0.000579
0.000909
0.000792
0.001175
0.000320
0.000667
0.002308
0.001564
0.000832
0.006059
0.014476
0.023457
0.019689
0.009703
0.007048
0.009251
0.053907
0.034670
0.025983
0.038244
1.000000
1.000000
1.000000
0.000000
0.000000
0.000000
0.000000
0.000411
0.000533
0.000467
0.000619
0.000470
0.000945
0.000846
0.001203
0.000371
0.000721
0.002309
0.001468
0.000746
0.006215
0.014744
0.024065
0.019515
0.008017
0.003775
0.011057
0.047828
0.025197
0.027433
0.031908
1.000000
1.000000
1.000000
0.000000
0.000000
0.000000
0.000000
0.000283
0.000403
0.000326
0.000558
0.000509
0.000939
0.000867
0.001213
0.000430
0.000787
0.002302
0.001301
0.000579
0.006189
0.014067
0.023760
0.020657
0.010727
0.002331
0.016570
0.048001
0.007985
0.031456
0.017975
1.000000
1.000000
1.000000
0.000000
0.000000
0.000000
0.000000
0.000373
0.000489
0.000451
0.000627
0.000555
0.000974
0.000903
0.001228
0.000495
0.000870
0.002300
0.001145
0.000434
0.006404
0.013321
0.022058
0.019503
0.011680
0.001672
0.017028
0.039951
0.008680
0.027768
0.009627
1.000000
1.000000
1.000000
0.000000
0.000000
0.000000
0.000000
0.000375
0.000473
0.000432
0.000614
0.000561
0.000976
0.000942
0.001228
0.000545
0.000956
0.002305
0.001068
0.000634
0.006702
0.013127
0.021182
0.018523
0.010922
0.004325
0.017596
0.029475
0.013753
0.024423
0.003390
1.000000
1.000000
1.000000
0.000000
0.000000
0.000000
0.000000
0.000412
0.000502
0.000473
0.000640
0.000598
0.000988
0.000977
0.001225
0.000596
0.001042
0.002326
0.001098
0.000916
0.006941
0.013244
0.020581
0.018394
0.011040
0.004490
0.016094
0.025375
0.018798
0.025375
0.011902
1.000000
1.000000
1.000000
0.000000
0.000000
0.000000
0.000000
0.000437
0.000515
0.000490
0.000647
0.000619
0.000987
0.001007
0.001209
0.000634
0.001129
0.002349
0.001220
0.001080
0.006987
0.013508
0.020177
0.017765
0.009709
0.004705
0.006666
0.006511
0.013406
0.018880
0.010406
0.000000
0.000000
0.000000
0.000000
0.000463
0.000533
0.000512
0.000659
0.000645
0.000984
0.001035
0.001187
0.000663
0.001215
0.002371
0.001375
0.001149
0.006952
0.013671
0.019439
0.016931
0.008610
0.005057
0.002888
0.001304
0.012183
0.015526
0.019637
0.000000
0.000000
0.000000
0.000000
0.000483
0.000548
0.000529
0.000665
0.000667
0.000976
0.001060
0.001161
0.000679
0.001298
0.002368
0.001521
0.001183
0.006848
0.013711
0.018603
0.016028
0.008037
0.006553
0.005689
0.005639
0.007584
0.019655
0.010099
0.000000
0.000000
0.000000
0.000000
0.000499
0.000559
0.000544
0.000670
0.000686
0.000965
0.001084
0.001134
0.000685
0.001371
0.002344
0.001624
0.001210
0.006725
0.013622
0.017701
0.016052
0.009056
0.009058
0.003226
0.006701
0.005332
0.009750
0.002346
0.000000
0.000000
0.000000
0.000000
0.000511
0.000568
0.000555
0.000671
0.000703
0.000952
0.001106
0.001107
0.000683
0.001432
0.002289
0.001694
0.001246
0.006473
0.013509
0.017561
0.016507
0.009305
0.006940
0.000770
0.005600
0.005974
0.008674
0.006916
0.000000
0.000000
0.000000
0.000000
0.000518
0.000573
0.000562
0.000669
0.000716
0.000938
0.001125
0.001078
0.000674
0.001478
0.002232
0.001759
0.001267
0.006331
0.013714
0.017600
0.016261
0.007418
0.007591
0.002777
0.007083
0.003486
0.006226
0.001102
0.000000
0.000000
0.000000
0.000000
0.000520
0.000574
0.000565
0.000664
0.000725
0.000922
0.001141
0.001049
0.000660
0.001518
0.002188
0.001810
0.001304
0.006333
0.013845
0.017221
0.015946
0.007720
0.007887
0.002223
0.004976
0.001066
0.007221
0.003188
0.000000
0.000000
0.000000
0.000000
0.000518
0.000571
0.000566
0.000657
0.000732
0.000905
0.001154
0.001019
0.000642
0.001551
0.002140
0.001830
0.001336
0.006266
0.013815
0.017050
0.016140
0.007827
0.007541
0.001041
0.006033
0.002318
0.005959
0.001681
0.000000
0.000000
0.000000
0.000000
0.000513
0.000565
0.000563
0.000647
0.000735
0.000887
0.001163
0.000989
0.000621
0.001574
0.002090
0.001847
0.001357
0.006195
0.013886
0.017067
0.016128
0.007480
0.007460
0.001716
0.005539
0.000864
0.005628
0.001480
0.000000
0.000000
0.000000
0.000000
0.000504
0.000557
0.000557
0.000635
0.000736
0.000868
0.001169
0.000960
0.000597
0.001590
0.002051
0.001857
0.001369
0.006187
0.013941
0.017001
0.016032
0.007480
0.007484
0.001635
0.005419
0.000803
0.005463
0.001373
0.000000
0.000000
0.000000
0.000000
0.000493
0.000546
0.000549
0.000622
0.000734
0.000849
0.001172
0.000932
0.000571
0.001602
0.002018
0.001858
0.001380
0.006174
0.013954
0.016956
0.016035
0.007500
0.007393
0.001566
0.005377
0.000408
0.005200
0.001107
0.000000
0.000000
0.000000
0.000000
0.000480
0.000533
0.000539
0.000608
0.000730
0.000831
0.001173
0.000905
0.000544
0.001609
0.001989
0.001853
0.001382
0.006166
0.013966
0.016961
0.015996
0.007480
0.007326
0.001701
0.005271
0.000274
0.005104
0.001015
0.000000
0.000000
0.000000
0.000000
0.000465
0.000518
0.000528
0.000592
0.000725
0.000813
0.001171
0.000880
0.000517
0.001612
0.001967
0.001846
0.001380
0.006170
0.013974
0.016957
0.015955
0.007491
0.007284
0.001738
0.005213
0.000263
0.004972
0.000892
0.000000
0.000000
0.000000
0.000000
0.000449
0.000503
0.000515
0.000577
0.000718
0.000796
0.001167
0.000858
0.000489
0.001612
0.001950
0.001835
0.001376
0.006179
0.013972
0.016963
0.015918
0.007512
0.007227
0.001798
0.005155
0.000195
0.004879
0.000806
0.000000
0.000000
0.000000
0.000000
0.000432
0.000486
0.000502
0.000561
0.000711
0.000781
0.001162
0.000838
0.000462
0.001610
0.001938
0.001822
0.001369
0.006190
0.013967
0.016975
0.015880
0.007530
0.007181
0.001857
0.005106
0.000224
0.004796
0.000729
0.000000
0.000000
0.000000
0.000000
0.000415
0.000469
0.000488
0.000546
0.000702
0.000766
0.001155
0.000820
0.000435
0.001605
0.001929
0.001807
0.001360
0.006206
0.013959
0.016989
0.015842
0.007551
0.007137
0.001909
0.005062
0.000254
0.004726
0.000664
0.000000
0.000000
0.000000
0.000000
0.000397
0.000452
0.000473
0.000531
0.000694
0.000753
0.001148
0.000804
0.000409
0.001599
0.001924
0.001792
0.001350
0.006223
0.013948
0.017004
0.015806
0.007573
0.007096
0.001958
0.005023
0.000296
0.004664
0.000608
0.000000
0.000000
0.000000
0.000000
0.000380
0.000435
0.000459
0.000516
0.000685
0.000742
0.001140
0.000791
0.000385
0.001592
0.001922
0.001776
0.001339
0.006241
0.013936
0.017021
0.015771
0.007594
0.007059
0.002004
0.004987
0.000336
0.004610
0.000559
0.000000
0.000000
0.000000
0.000000
0.000362
0.000418
0.000445
0.000503
0.000677
0.000732
0.001132
0.000780
0.000362
0.001584
0.001922
0.001760
0.001328
0.006259
0.013924
0.017038
0.015738
0.007614
0.007024
0.002046
0.004955
0.000375
0.004563
0.000517
0.000000
0.000000
0.000000
0.000000
0.000345
0.000401
0.000431
0.000491
0.000668
0.000724
0.001123
0.000770
0.000340
0.001576
0.001924
0.001744
0.001317
0.006278
0.013911
0.017055
0.015707
0.007634
0.006993
0.002084
0.004927
0.000411
0.004520
0.000479
0.000000
0.000000
0.000000
0.000000
0.000328
0.000385
0.000418
0.000479
0.000660
0.000717
0.001115
0.000763
0.000320
0.001567
0.001928
0.001729
0.001306
0.006297
0.013898
0.017072
0.015679
0.007652
0.006964
0.002120
0.004901
0.000444
0.004482
0.000445
0.000000
0.000000
0.000000
0.000000
0.000312
0.000370
0.000405
0.000469
0.000652
0.000711
0.001107
0.000757
0.000301
0.001558
0.001932
0.001714
0.001295
0.006315
0.013884
0.017088
0.015651
0.007670
0.006937
0.002153
0.004877
0.000475
0.004447
0.000415
0.000000
0.000000
0.000000
0.000000
0.000296
0.000355
0.000393
0.000460
0.000645
0.000706
0.001099
0.000752
0.000284
0.001549
0.001937
0.001699
0.001284
0.006332
0.013872
0.017104
0.015626
0.007687
0.006912
0.002183
0.004856
0.000502
0.004416
0.000388
0.000000
0.000000
0.000000
0.000000
0.000281
0.000341
0.000382
0.000451
0.000638
0.000702
0.001091
0.000749
0.000269
0.001541
0.001943
0.001685
0.001274
0.006349
0.013859
0.017118
0.015603
0.007703
0.006890
0.002210
0.004836
0.000527
0.004388
0.000363
0.000000
0.000000
0.000000
0.000000
0.000267
0.000328
0.000371
0.000444
0.000632
0.000700
0.001083
0.000747
0.000255
0.001532
0.001950
0.001672
0.001263
0.006365
0.013847
0.017133
0.015581
0.007719
0.006869
0.002236
0.004818
0.000550
0.004362
0.000341
0.000000
0.000000
0.000000
0.000000
0.000254
0.000315
0.000361
0.000438
0.000625
0.000698
0.001076
0.000746
0.000243
0.001524
0.001957
0.001660
0.001254
0.006381
0.013835
0.017146
0.015561
0.007733
0.006850
0.002260
0.004802
0.000571
0.004338
0.000320
0.000000
0.000000
0.000000
0.000000
0.000240
0.000304
0.000352
0.000433
0.000620
0.000696
0.001070
0.000745
0.000232
0.001516
0.001963
0.001648
0.001244
0.006395
0.013824
0.017159
0.015542
0.007747
0.006833
0.002281
0.004787
0.000591
0.004317
0.000301
0.000000
0.000000
0.000000
0.000000
0.000229
0.000293
0.000343
0.000428
0.000615
0.000696
0.001063
0.000745
0.000222
0.001508
0.001970
0.001638
0.001235
0.006409
0.013813
0.017171
0.015525
0.007761
0.006817
0.002302
0.004772
0.000608
0.004297
0.000284
0.000000
0.000000
0.000000
0.000000
0.000218
0.000283
0.000335
0.000424
0.000611
0.000696
0.001057
0.000746
0.000214
0.001500
0.001977
0.001627
0.001226
0.006422
0.013803
0.017183
0.015509
0.007774
0.006803
0.002321
0.004759
0.000625
0.004278
0.000268
0.000000
0.000000
0.000000
0.000000
0.000207
0.000273
0.000328
0.000421
0.000607
0.000696
0.001052
0.000747
0.000208
0.001493
0.001984
0.001617
0.001218
0.006434
0.013793
0.017194
0.015495
0.007786
0.006790
0.002338
0.004747
0.000640
0.004261
0.000254
0.000000
0.000000
0.000000
0.000000
0.000199
0.000264
0.000322
0.000418
0.000604
0.000697
0.001047
0.000749
0.000202
0.001486
0.001991
0.001609
0.001209
0.006445
0.013783
0.017204
0.015482
0.007798
0.006778
0.002355
0.004735
0.000653
0.004245
0.000240
0.000000
0.000000
0.000000
0.000000
0.000190
0.000255
0.000316
0.000416
0.000601
0.000698
0.001042
0.000752
0.000196
0.001479
0.001998
0.001601
0.001202
0.006455
0.013775
0.017214
0.015470
0.007810
0.006767
0.002370
0.004725
0.000666
0.004230
0.000228
0.000000
0.000000
0.000000
0.000000
0.000182
0.000248
0.000311
0.000416
0.000598
0.000700
0.001038
0.000754
0.000193
0.001473
0.002005
0.001594
0.001194
0.006465
0.013766
0.017224
0.015459
0.007821
0.006757
0.002384
0.004715
0.000678
0.004216
0.000217
0.000000
0.000000
0.000000
0.000000
0.000174
0.000242
0.000307
0.000415
0.000595
0.000700
0.001033
0.000756
0.000189
0.001467
0.002011
0.001587
0.001186
0.006474
0.013757
0.017233
0.015449
0.007833
0.006749
0.002398
0.004705
0.000688
0.004203
0.000206
0.000000
0.000000
0.000000
0.000000
0.000167
0.000237
0.000303
0.000414
0.000592
0.000701
0.001029
0.000760
0.000186
0.001461
0.002018
0.001581
0.001178
0.006481
0.013749
0.017241
0.015441
0.007844
0.006741
0.002411
0.004696
0.000698
0.004191
0.000196
0.000000
0.000000
0.000000
0.000000
0.000160
0.000232
0.000299
0.000412
0.000587
0.000701
0.001025
0.000764
0.000182
0.001454
0.002024
0.001577
0.001168
0.006486
0.013739
0.017250
0.015433
0.007855
0.006734
0.002423
0.004688
0.000707
0.004179
0.000187
0.000000
0.000000
0.000000
0.000000
0.000154
0.000227
0.000294
0.000410
0.000583
0.000701
0.001022
0.000768
0.000179
0.001447
0.002029
0.001574
0.001157
0.006490
0.013731
0.017257
0.015427
0.007867
0.006728
0.002434
0.004680
0.000715
0.004168