<?xml version='1.0' encoding='UTF-8'?>
<VTKFile xmlns='VTK' byte_order='LittleEndian' version='0.1' type='UnstructuredGrid'>
<UnstructuredGrid>
<Piece NumberOfCells='2512' NumberOfPoints='2512'>
<Points>
<DataArray NumberOfComponents='3' type='Float32' Name='Position' format='ascii'>
-0.075000 -0.075000 0.000000
-0.075000 -0.050000 0.000000
-0.075000 -0.025000 0.000000
-0.075000 0.000000 0.000000
-0.075000 0.025000 0.000000
-0.075000 0.050000 0.000000
-0.075000 0.075000 0.000000
-0.075000 0.100000 0.000000
-0.075000 0.125000 0.000000
-0.075000 0.150000 0.000000
-0.075000 0.175000 0.000000
-0.075000 0.200000 0.000000
-0.075000 0.225000 0.000000
-0.075000 0.250000 0.000000
-0.075000 0.275000 0.000000
-0.075000 0.300000 0.000000
-0.075000 0.325000 0.000000
-0.075000 0.350000 0.000000
-0.075000 0.375000 0.000000
-0.075000 0.400000 0.000000
-0.075000 0.425000 0.000000
-0.075000 0.450000 0.000000
-0.075000 0.475000 0.000000
-0.075000 0.500000 0.000000
-0.075000 0.525000 0.000000
-0.075000 0.550000 0.000000
-0.075000 0.575000 0.000000
-0.075000 0.600000 0.000000
-0.050000 -0.075000 0.000000
-0.050000 -0.050000 0.000000
-0.050000 -0.025000 0.000000
-0.050000 0.000000 0.000000
-0.050000 0.025000 0.000000
-0.050000 0.050000 0.000000
-0.050000 0.075000 0.000000
-0.050000 0.100000 0.000000
-0.050000 0.125000 0.000000
-0.050000 0.150000 0.000000
-0.050000 0.175000 0.000000
-0.050000 0.200000 0.000000
-0.050000 0.225000 0.000000
-0.050000 0.250000 0.000000
-0.050000 0.275000 0.000000
-0.050000 0.300000 0.000000
-0.050000 0.325000 0.000000
-0.050000 0.350000 0.000000
-0.050000 0.375000 0.000000
-0.050000 0.400000 0.000000
-0.050000 0.425000 0.000000
-0.050000 0.450000 0.000000
-0.050000 0.475000 0.000000
-0.050000 0.500000 0.000000
-0.050000 0.525000 0.000000
-0.050000 0.550000 0.000000
-0.050000 0.575000 0.000000
-0.050000 0.600000 0.000000
-0.025000 -0.075000 0.000000
-0.025000 -0.050000 0.000000
-0.025000 -0.025000 0.000000
-0.025000 0.000000 0.000000
-0.025000 0.025000 0.000000
-0.025000 0.050000 0.000000
-0.025000 0.075000 0.000000
-0.025000 0.100000 0.000000
-0.025000 0.125000 0.000000
-0.025000 0.150000 0.000000
-0.025000 0.175000 0.000000
-0.025000 0.200000 0.000000
-0.025000 0.225000 0.000000
-0.025000 0.250000 0.000000
-0.025000 0.275000 0.000000
-0.025000 0.300000 0.000000
-0.025000 0.325000 0.000000
-0.025000 0.350000 0.000000
-0.025000 0.375000 0.000000
-0.025000 0.400000 0.000000
-0.025000 0.425000 0.000000
-0.025000 0.450000 0.000000
-0.025000 0.475000 0.000000
-0.025000 0.500000 0.000000
-0.025000 0.525000 0.000000
-0.025000 0.550000 0.000000
-0.025000 0.575000 0.000000
-0.025000 0.600000 0.000000
0.000000 -0.075000 0.000000
0.000000 -0.050000 0.000000
0.000000 -0.025000 0.000000
0.000000 0.000000 0.000000
0.000000 0.025000 0.000000
0.000000 0.050000 0.000000
0.000000 0.075000 0.000000
0.000000 0.100000 0.000000
0.000000 0.125000 0.000000
0.000000 0.150000 0.000000
0.000000 0.175000 0.000000
0.000000 0.200000 0.000000
0.000000 0.225000 0.000000
0.000000 0.250000 0.000000
0.000000 0.275000 0.000000
0.000000 0.300000 0.000000
0.000000 0.325000 0.000000
0.000000 0.350000 0.000000
0.000000 0.375000 0.000000
0.000000 0.400000 0.000000
0.000000 0.425000 0.000000
0.000000 0.450000 0.000000
0.000000 0.475000 0.000000
0.000000 0.500000 0.000000
0.000000 0.525000 0.000000
0.000000 0.550000 0.000000
0.000000 0.575000 0.000000
0.000000 0.600000 0.000000
0.025000 -0.075000 0.000000
0.025000 -0.050000 0.000000
0.025000 -0.025000 0.000000
0.025000 0.000000 0.000000
0.024946 0.024709 0.000000
0.027870 0.046747 0.000000
0.023127 0.073975 0.000000
0.024850 0.105285 0.000000
0.023301 0.157504 0.000000
0.028433 0.180831 0.000000
0.025435 0.201968 0.000000
0.024093 0.226873 0.000000
0.022917 0.264339 0.000000
0.025557 0.289485 0.000000
0.023721 0.316017 0.000000
0.025535 0.341726 0.000000
0.025847 0.363993 0.000000
0.023395 0.392861 0.000000
0.026174 0.417657 0.000000
0.025986 0.441534 0.000000
0.023399 0.465806 0.000000
0.025707 0.495293 0.000000
0.022466 0.519594 0.000000
0.046907 0.546939 0.000000
0.024868 0.572854 0.000000
0.033879 0.600000 0.000000
0.052749 0.600000 0.000000
0.015009 0.600000 0.000000
0.935000 0.625000 0.000000
0.935000 0.650000 0.000000
0.935000 0.675000 0.000000
0.050000 -0.075000 0.000000
0.050000 -0.050000 0.000000
0.050000 -0.025000 0.000000
0.050000 0.000000 0.000000
0.051381 0.025140 0.000000
0.044853 0.061442 0.000000
0.041643 0.091238 0.000000
0.024834 0.131833 0.000000
0.056513 0.165899 0.000000
0.055221 0.191507 0.000000
0.051529 0.213538 0.000000
0.036045 0.244847 0.000000
0.049763 0.279859 0.000000
0.047180 0.304375 0.000000
0.049737 0.331198 0.000000
0.056858 0.354419 0.000000
0.045426 0.377649 0.000000
0.050614 0.402281 0.000000
0.049172 0.429895 0.000000
0.053441 0.457656 0.000000
0.045253 0.479128 0.000000
0.048053 0.506486 0.000000
0.055986 0.527726 0.000000
0.068921 0.558836 0.000000
0.024570 0.546162 0.000000
0.085469 0.576578 0.000000
0.114695 0.577187 0.000000
0.070922 0.600000 0.000000
0.960000 0.625000 0.000000
0.960000 0.650000 0.000000
0.960000 0.675000 0.000000
0.075000 -0.075000 0.000000
0.075000 -0.050000 0.000000
0.075000 -0.025000 0.000000
0.075000 0.000000 0.000000
0.092339 0.045672 0.000000
0.073743 0.025336 0.000000
0.048594 0.120282 0.000000
0.048826 0.144874 0.000000
0.077771 0.152495 0.000000
0.080072 0.179011 0.000000
0.076956 0.208642 0.000000
0.066178 0.235070 0.000000
0.058001 0.257221 0.000000
0.075640 0.274655 0.000000
0.072003 0.309826 0.000000
0.073942 0.334397 0.000000
0.078710 0.364818 0.000000
0.069703 0.390457 0.000000
0.076745 0.415389 0.000000
0.094621 0.437316 0.000000
0.070712 0.441644 0.000000
0.076667 0.471115 0.000000
0.072502 0.493795 0.000000
0.082607 0.536078 0.000000
0.100382 0.553226 0.000000
0.050403 0.576373 0.000000
0.089437 0.600000 0.000000
0.108694 0.600000 0.000000
0.985000 0.625000 0.000000
0.985000 0.650000 0.000000
0.985000 0.675000 0.000000
0.100000 -0.075000 0.000000
0.100000 -0.050000 0.000000
0.100000 -0.025000 0.000000
0.100000 0.000000 0.000000
0.103525 0.023999 0.000000
0.069490 0.048897 0.000000
0.065460 0.104753 0.000000
0.077664 0.127735 0.000000
0.099192 0.169964 0.000000
0.121186 0.176522 0.000000
0.106390 0.195050 0.000000
0.088745 0.251897 0.000000
0.107491 0.271417 0.000000
0.089236 0.291097 0.000000
0.095087 0.317339 0.000000
0.100492 0.346572 0.000000
0.095866 0.376401 0.000000
0.113215 0.394251 0.000000
0.097630 0.410898 0.000000
0.118537 0.436544 0.000000
0.099245 0.467313 0.000000
0.100805 0.490110 0.000000
0.132768 0.486809 0.000000
0.084546 0.512968 0.000000
0.108974 0.529114 0.000000
0.125419 0.551408 0.000000
0.142574 0.575120 0.000000
0.126724 0.600000 0.000000
1.010000 0.625000 0.000000
1.010000 0.650000 0.000000
1.010000 0.675000 0.000000
0.125000 -0.075000 0.000000
0.125000 -0.050000 0.000000
0.125000 -0.025000 0.000000
0.125000 0.000000 0.000000
0.128009 0.025127 0.000000
0.112417 0.061326 0.000000
0.067402 0.072944 0.000000
0.093164 0.106569 0.000000
0.099064 0.132709 0.000000
0.118059 0.135542 0.000000
0.122195 0.209706 0.000000
0.090726 0.224077 0.000000
0.110492 0.236616 0.000000
0.127265 0.257557 0.000000
0.117807 0.310260 0.000000
0.141106 0.308256 0.000000
0.120518 0.335162 0.000000
0.120357 0.360049 0.000000
0.134358 0.375331 0.000000
0.128044 0.413016 0.000000
0.150781 0.418523 0.000000
0.123351 0.465505 0.000000
0.153193 0.467228 0.000000
0.139003 0.530403 0.000000
0.153014 0.551593 0.000000
0.163763 0.600000 0.000000
0.198214 0.575649 0.000000
0.145313 0.600000 0.000000
1.035000 0.625000 0.000000
1.035000 0.650000 0.000000
1.035000 0.675000 0.000000
0.150000 -0.075000 0.000000
0.150000 -0.050000 0.000000
0.150000 -0.025000 0.000000
0.150000 0.000000 0.000000
0.155363 0.025069 0.000000
0.129662 0.047597 0.000000
0.085488 0.082847 0.000000
0.142979 0.089638 0.000000
0.123736 0.100343 0.000000
0.136934 0.146640 0.000000
0.140599 0.182449 0.000000
0.146826 0.216251 0.000000
0.136368 0.235505 0.000000
0.149851 0.262496 0.000000
0.124028 0.285261 0.000000
0.165052 0.316477 0.000000
0.147909 0.335088 0.000000
0.155498 0.360242 0.000000
0.150905 0.394980 0.000000
0.165685 0.448678 0.000000
0.139043 0.443396 0.000000
0.163891 0.489374 0.000000
0.118286 0.508215 0.000000
0.146396 0.507628 0.000000
0.167132 0.531908 0.000000
0.170167 0.572993 0.000000
0.199687 0.600000 0.000000
0.181690 0.600000 0.000000
1.060000 0.625000 0.000000
1.060000 0.650000 0.000000
1.060000 0.675000 0.000000
0.175000 -0.075000 0.000000
0.175000 -0.050000 0.000000
0.175000 -0.025000 0.000000
0.175000 0.000000 0.000000
0.181705 0.022975 0.000000
0.161040 0.046485 0.000000
0.110325 0.084149 0.000000
0.161643 0.111151 0.000000
0.139532 0.124298 0.000000
0.166124 0.138272 0.000000
0.158535 0.157066 0.000000
0.158883 0.192529 0.000000
0.174445 0.214238 0.000000
0.169696 0.237188 0.000000
0.155636 0.289534 0.000000
0.197266 0.337608 0.000000
0.171873 0.340087 0.000000
0.190027 0.359497 0.000000
0.167600 0.379364 0.000000
0.176269 0.419834 0.000000
0.182888 0.473710 0.000000
0.198710 0.496458 0.000000
0.177598 0.509458 0.000000
0.194938 0.529963 0.000000
0.184928 0.552175 0.000000
0.211335 0.550777 0.000000
0.225202 0.574714 0.000000
0.218859 0.600000 0.000000
1.085000 0.625000 0.000000
1.085000 0.650000 0.000000
1.085000 0.675000 0.000000
0.200000 -0.075000 0.000000
0.200000 -0.050000 0.000000
0.200000 -0.025000 0.000000
0.200000 0.000000 0.000000
0.206624 0.027145 0.000000
0.175981 0.069203 0.000000
0.144570 0.066724 0.000000
0.170298 0.088847 0.000000
0.190791 0.140053 0.000000
0.181690 0.170060 0.000000
0.184936 0.194433 0.000000
0.189552 0.239645 0.000000
0.206576 0.213867 0.000000
0.170770 0.268660 0.000000
0.181146 0.295299 0.000000
0.200933 0.314808 0.000000
0.220494 0.349530 0.000000
0.199645 0.378804 0.000000
0.184946 0.400286 0.000000
0.205245 0.412962 0.000000
0.187395 0.442050 0.000000
0.203816 0.463275 0.000000
0.215580 0.512963 0.000000
0.244065 0.509682 0.000000
0.227321 0.532971 0.000000
0.242485 0.552111 0.000000
[...]
<PointData>
<DataArray NumberOfComponents='1' type='Int32' Name='ParticleType' format='ascii'>
3
3
3
3
3
3
3
3
3
3
3
3
3
3
3
3
3
3
3
3
3
3
3
3
3
3
3
3
3
3
3
3
3
3
3
3
3
3
3
3
3
3
3
3
3
3
3
3
3
3
3
3
3
3
3
3
3
3
2
2
2
2
2
2
2
2
2
2
2
2
2
2
2
2
2
2
2
2
2
2
2
2
2
2
3
3
2
2
2
2
2
2
2
2
2
2
2
2
2
2
2
2
2
2
2
2
2
2
2
2
2
2
3
3
2
2
0
0
0
0
0
0
0
0
0
0
0
0
0
0
0
0
0
0
0
0
0
0
0
0
1
1
1
3
3
2
2
0
0
0
0
0
0
0
0
0
0
0
0
0
0
0
0
0
0
0
0
0
0
0
0
1
1
1
3
3
2
2
0
0
0
0
0
0
0
0
0
0
0
0
0
0
0
0
0
0
0
0
0
0
0
0
1
1
1
3
3
2
2
0
0
0
0
0
0
0
0
0
0
0
0
0
0
0
0
0
0
0
0
0
0
0
0
1
1
1
3
3
2
2
0
0
0
0
0
0
0
0
0
0
0
0
0
0
0
0
0
0
0
0
0
0
0
0
1
1
1
3
3
2
2
0
0
0
0
0
0
0
0
0
0
0
0
0
0
0
0
0
0
0
0
0
0
0
0
1
1
1
3
3
2
2
0
0
0
0
0
0
0
0
0
0
0
0
0
0
0
0
0
0
0
0
0
0
0
0
1
1
1
3
3
2
2
0
0
0
0
0
0
0
0
0
0
0
0
0
0
0
0
0
0
0
0
0
0
0
0
1
1
1
3
3
2
2
0
0
0
0
0
0
0
0
0
0
0
0
0
0
0
0
0
0
0
0
0
0
0
0
1
1
1
3
3
2
2
0
0
0
0
0
0
0
0
0
0
0
0
0
0
0
0
0
0
0
0
0
0
0
0
1
1
1
3
3
2
2
0
0
0
0
0
0
0
0
0
0
0
0
0
0
0
0
0
0
0
0
0
0
0
0
1
1
1
3
3
2
2
0
0
0
0
0
0
0
0
0
0
0
0
0
0
0
0
0
0
0
0
0
0
0
0
1
1
1
3
3
2
2
0
0
0
0
0
0
0
0
0
0
0
0
0
0
0
0
0
0
0
0
0
0
0
0
1
1
1
3
3
2
2
0
0
0
0
0
0
0
0
0
0
0
0
0
0
0
0
0
0
0
0
0
0
0
0
1
1
1
3
3
2
2
0
0
0
0
0
0
0
0
0
0
0
0
0
0
0
0
0
0
0
0
0
0
0
0
1
1
1
3
3
2
2
0
0
0
0
0
0
0
0
0
0
0
0
0
0
0
0
0
0
0
0
0
0
0
0
1
1
1
3
3
2
2
0
0
0
0
0
0
0
0
0
0
0
0
0
0
0
0
0
0
0
0
0
0
0
0
3
3
2
2
0
0
0
0
0
0
0
0
0
0
0
0
0
0
0
0
0
0
0
0
0
0
0
0
3
3
2
2
0
0
0
0
0
0
0
0
0
0
0
0
0
0
0
0
0
0
0
0
0
0
0
0
3
3
2
2
0
0
0
0
0
0
0
0
0
0
0
0
0
0
0
0
0
0
0
0
0
0
0
0
3
3
2
2
0
0
0
0
0
0
0
0
0
0
0
0
0
0
0
0
0
0
0
0
0
0
0
0
3
3
2
2
0
0
0
0
0
0
0
0
0
0
0
0
0
0
0
0
0
0
0
0
0
0
0
0
3
3
2
2
0
0
0
0
0
0
0
0
0
0
0
0
0
0
0
0
0
0
0
0
0
0
0
0
3
3
2
2
0
0
0
0
0
0
0
0
0
0
0
0
0
0
0
0
0
0
0
0
0
0
0
0
3
3
2
2
0
0
0
0
0
0
0
0
0
0
0
0
0
0
0
0
0
0
0
0
0
0
0
0
3
3
2
2
0
0
0
0
0
0
0
0
0
0
0
0
0
0
0
0
0
0
0
0
0
0
0
0
3
3
2
2
0
0
0
0
0
0
0
0
0
0
0
0
0
0
0
0
0
0
0
0
0
0
0
0
3
3
2
2
0
0
0
0
0
0
0
0
0
0
0
0
0
0
0
0
0
0
0
0
0
0
0
0
3
3
2
2
0
0
0
0
0
0
0
0
0
0
0
0
0
0
0
0
0
0
0
0
0
0
0
0
3
3
2
2
0
0
0
0
0
0
0
0
0
0
0
0
0
0
0
0
0
0
0
0
0
0
0
0
3
3
2
2
0
0
0
0
0
0
0
0
0
0
0
0
0
0
0
0
0
0
0
0
0
0
0
0
3
3
2
2
0
0
0
0
0
0
0
0
0
0
0
0
0
0
0
0
0
0
0
0
0
0
0
0
3
3
2
2
0
0
0
0
0
0
0
0
0
0
0
0
0
0
0
0
0
0
0
0
0
0
0
0
3
3
2
2
0
0
0
0
0
0
0
0
0
0
0
0
0
0
0
0
0
0
0
0
0
0
0
0
3
3
2
2
0
0
0
0
0
0
0
0
0
0
0
0
0
0
0
0
0
0
0
0
0
0
0
0
3
3
2
2
0
0
0
0
0
0
0
0
0
0
0
0
0
0
0
0
0
0
0
0
0
0
0
0
3
3
2
2
0
0
0
0
0
0
0
0
0
0
0
0
0
0
0
0
0
0
0
0
0
0
0
0
3
3
2
2
0
0
0
0
0
0
0
0
0
0
0
0
0
0
0
0
0
0
0
0
0
0
0
0
3
3
2
2
0
0
0
0
0
0
0
0
0
0
0
0
0
0
0
0
0
0
0
0
0
0
0
0
3
3
2
2
0
0
0
0
0
0
0
0
0
0
0
0
0
0
0
0
0
0
0
0
0
0
0
0
3
3
2
2
0
0
0
0
0
0
0
0
0
0
0
0
0
0
0
0
0
0
0
0
0
0
0
0
3
3
2
2
0
0
0
0
0
0
0
0
0
0
0
0
0
0
0
0
0
0
0
0
0
0
0
0
3
3
2
2
0
0
0
0
0
0
0
0
0
0
0
0
0
0
0
0
0
0
0
0
0
0
0
0
3
3
2
2
0
0
0
0
0
0
0
0
0
0
0
0
0
0
0
0
0
0
0
0
0
0
0
0
3
3
2
2
0
0
0
0
0
0
0
0
0
0
0
0
0
0
0
0
0
0
0
0
0
0
0
0
3
3
2
2
0
0
0
0
0
0
0
0
0
0
0
0
0
0
0
0
0
0
0
0
0
0
0
0
3
3
2
2
0
0
0
0
0
0
0
0
0
0
0
0
0
0
0
0
0
0
0
0
0
0
0
0
3
3
2
2
0
0
0
0
0
0
0
0
0
0
0
0
0
0
0
0
0
0
0
0
0
0
0
0
3
3
2
2
0
0
0
0
0
0
0
0
0
0
0
0
0
0
0
0
0
0
0
0
0
0
0
0
3
3
2
2
0
0
0
0
0
0
0
0
0
0
0
0
0
0
0
0
0
0
0
0
0
0
0
0
3
3
2
2
0
0
0
0
0
0
0
0
0
0
0
0
0
0
0
0
0
0
0
0
0
0
0
0
3
3
2
2
0
0
0
0
0
0
0
0
0
0
0
0
0
0
0
0
0
0
0
0
0
0
0
0
3
3
2
2
0
0
0
0
0
0
0
0
0
0
0
0
0
0
0
0
0
0
0
0
0
0
0
0
3
3
2
2
0
0
0
0
0
0
0
0
0
0
0
0
0
0
0
0
0
0
0
0
0
0
0
0
3
3
2
2
0
0
0
0
0
0
0
0
0
0
0
0
0
0
0
0
0
0
0
0
0
0
0
0
3
3
2
2
0
0
0
0
0
0
0
0
0
0
0
0
0
0
0
0
0
0
0
0
0
0
0
0
3
3
2
2
0
0
0
0
0
0
0
0
0
0
0
0
0
0
0
0
0
0
0
0
0
0
0
0
3
3
2
2
0
0
0
0
0
0
0
0
0
0
0
0
0
0
0
0
0
0
0
0
0
0
0
0
3
3
2
2
0
0
0
0
0
0
0
0
0
0
0
0
0
0
0
0
0
0
0
0
0
0
0
0
3
3
2
2
0
0
0
0
0
0
0
0
0
0
0
0
0
0
0
0
0
0
0
0
0
0
0
0
3
3
2
2
0
0
0
0
0
0
0
0
0
0
0
0
0
0
0
0
0
0
0
0
0
0
0
0
3
3
2
2
0
0
0
0
0
0
0
0
0
0
0
0
0
0
0
0
0
0
0
0
0
0
0
0
3
3
2
2
0
0
0
0
0
0
0
0
0
0
0
0
0
0
0
0
0
0
0
0
0
0
0
0
3
3
2
2
0
0
0
0
0
0
0
0
0
0
0
0
0
0
0
0
0
0
0
0
0
0
0
0
3
3
2
2
0
0
0
0
0
0
0
0
0
0
0
0
0
0
0
0
0
0
0
0
0
0
0
0
3
3
2
2
0
0
0
0
0
0
0
0
0
0
0
0
0
0
0
0
0
0
0
0
0
0
0
0
3
3
2
2
0
0
0
0
0
0
0
0
0
0
0
0
0
0
0
0
0
0
0
0
0
0
0
0
3
3
2
2
0
0
0
0
0
0
0
0
0
0
0
0
0
0
0
0
0
0
0
0
0
0
0
0
3
3
2
2
0
0
0
0
0
0
0
0
0
0
0
0
0
0
0
0
0
0
0
0
0
0
0
0
3
3
2
2
0
0
0
0
0
0
0
0
0
0
0
0
0
0
0
0
0
0
0
0
0
0
0
0
3
3
2
2
0
0
0
0
0
0
0
0
0
0
0
0
0
0
0
0
0
0
0
0
0
0
0
0
3
3
2
2
0
0
0
0
0
0
0
0
0
0
0
0
0
0
0
0
0
0
0
0
0
0
0
0
3
3
2
2
0
0
0
0
0
0
0
0
0
0
0
0
0
0
0
0
0
0
0
0
0
0
0
0
3
3
2
2
0
0
0
0
0
0
0
0
0
0
0
0
0
0
0
0
0
0
0
0
0
0
0
0
3
3
2
2
0
0
0
0
0
0
0
0
0
0
0
0
0
0
0
0
0
0
0
0
0
0
0
0
3
3
2
2
0
0
0
0
0
0
0
0
0
0
0
0
0
0
0
0
0
0
0
0
0
0
0
0
3
3
2
2
0
0
0
0
0
0
0
0
0
0
0
0
0
0
0
0
0
0
0
0
0
0
0
0
3
3
2
2
0
0
0
0
0
0
0
0
0
0
0
0
0
0
0
0
0
0
0
0
0
0
0
0
3
3
2
2
0
0
0
0
0
0
0
0
0
0
0
0
0
0
0
0
0
0
0
0
0
0
0
0
3
3
2
2
0
0
0
0
0
0
0
0
0
0
0
0
0
0
0
0
0
0
0
0
0
0
0
0
3
3
2
2
2
2
2
2
2
2
2
2
2
2
2
2
2
2
2
2
2
2
2
2
2
2
2
2
3
3
2
2
2
2
2
2
2
2
2
2
2
2
2
2
2
2
2
2
2
2
2
2
2
2
2
2
3
3
3
3
3
3
3
3
3
3
3
3
3
3
3
3
3
3
3
3
3
3
3
3
3
3
3
3
3
3
3
3
3
3
3
3
3
3
3
3
3
3
3
3
3
3
3
3
3
3
3
3
3
3
3
3
</DataArray>
<DataArray NumberOfComponents='1' type='Float32' Name='Velocity' format='ascii'>
0.000000
0.000000
0.000000
0.000000
0.000000
0.000000
0.000000
0.000000
0.000000
0.000000
0.000000
0.000000
0.000000
0.000000
0.000000
0.000000
0.000000
0.000000
0.000000
0.000000
0.000000
0.000000
0.000000
0.000000
0.000000
0.000000
0.000000
0.000000
0.000000
0.000000
0.000000
0.000000
0.000000
0.000000
0.000000
0.000000
0.000000
0.000000
0.000000
0.000000
0.000000
0.000000
0.000000
0.000000
0.000000
0.000000
0.000000
0.000000
0.000000
0.000000
0.000000
0.000000
0.000000
0.000000
0.000000
0.000000
0.000000
0.000000
0.000000
0.000000
0.000000
0.000000
0.000000
0.000000
0.000000
0.000000
0.000000
0.000000
0.000000
0.000000
0.000000
0.000000
0.000000
0.000000
0.000000
0.000000
0.000000
0.000000
0.000000
0.000000
0.000000
0.000000
0.000000
0.000000
0.000000
0.000000
0.000000
0.000000
0.000000
0.000000
0.000000
0.000000
0.000000
0.000000
0.000000
0.000000
0.000000
0.000000
0.000000
0.000000
0.000000
0.000000
0.000000
0.000000
0.000000
0.000000
0.000000
0.000000
0.000000
0.000000
0.000000
0.000000
0.000000
0.000000
0.000000
0.000000
0.076854
0.036723
0.118978
0.227841
0.231282
0.161268
0.097989
0.096198
0.065982
0.162208
0.259705
0.046238
0.037167
0.082211
0.177627
0.214164
0.199528
0.227620
0.247308
0.183219
0.412630
119.657852
92.843613
123.371895
1.000000
1.000000
1.000000
0.000000
0.000000
0.000000
0.000000
0.226822
0.252269
0.123660
0.515483
0.036942
0.171564
0.211660
0.013895
0.204667
0.098467
0.222356
0.255864
0.087093
0.223928
0.273045
0.195001
0.085556
0.246788
0.389068
0.466865
0.173304
0.407571
0.165908
92.445084
1.000000
1.000000
1.000000
0.000000
0.000000
0.000000
0.000000
0.096642
0.025265
0.269914
0.360585
0.257797
0.299056
0.163743
0.261742
0.297504
0.094730
0.184001
0.170089
0.092535
0.050397
0.254314
0.108432
0.242312
0.220314
0.098952
0.189021
0.249346
0.537523
77.056747
83.001640
1.000000
1.000000
1.000000
0.000000
0.000000
0.000000
0.000000
0.370796
0.123843
0.311284
0.132779
0.088655
0.252155
0.234491
0.155087
0.177767
0.053683
0.130493
0.228125
0.080290
0.157839
0.200225
0.112364
0.367007
0.132597
0.166657
0.190773
0.397602
0.193954
0.197768
90.997467
1.000000
1.000000
1.000000
0.000000
0.000000
0.000000
0.000000
0.169764
0.086482
0.189455
0.269541
0.157662
0.063600
0.183735
0.193873
0.115153
0.129511
0.087578
0.133700
0.193136
0.180939
0.070734
0.163191
0.117044
0.513431
0.259497
0.280154
0.135868
75.199249
0.195476
93.070602
1.000000
1.000000
1.000000
0.000000
0.000000
0.000000
0.000000
0.102582
0.284400
0.192960
0.242794
0.230546
0.290891
0.094429
0.113717
0.189932
0.231574
0.331436
0.393593
0.261397
0.229983
0.117100
0.226173
0.172828
0.294099
0.128211
0.111857
0.286588
0.176796
97.942009
91.769180
1.000000
1.000000
1.000000
0.000000
0.000000
0.000000
0.000000
0.007890
0.120813
0.331262
0.197049
0.105719
0.141557
0.138033
0.186416
0.325264
0.195105
0.296884
0.456241
0.202698
0.183211
0.092361
0.055428
0.125455
0.241790
0.069426
0.018201
0.212705
0.493121
0.212518
87.075424
1.000000
1.000000
1.000000
0.000000
0.000000
0.000000
0.000000
0.085427
0.087733
0.143930
0.083892
0.225068
0.263049
0.036548
0.301831
0.221994
0.105542
0.100723
0.208788
0.113942
0.196392
0.168435
0.087114
0.085831
0.170259
0.286868
0.117922
0.158795
0.210747
0.333025
87.571297
1.000000
1.000000
1.000000
0.000000
0.000000
0.000000
0.000000
0.110082
0.083326
0.123746
0.182009
0.243292
0.057315
0.159457
0.429221
0.235720
0.164085
0.129056
0.123963
0.426362
0.200138
0.247743
0.068974
0.196390
0.342026
0.209260
0.234467
0.352588
0.433869
0.368323
85.955063
1.000000
1.000000
1.000000
0.000000
0.000000
0.000000
0.000000
0.165952
0.089221
0.163018
0.112753
0.351769
0.366070
0.095085
0.088979
0.094720
0.030940
0.273621
0.053053
0.060295
0.059028
0.080882
0.089098
0.019651
0.128893
0.285443
0.204140
0.078303
0.325780
70.362724
76.040993
1.000000
1.000000
1.000000
0.000000
0.000000
0.000000
0.000000
0.053738
0.163356
0.254879
0.199021
0.149119
0.093355
0.078660
0.073321
0.074166
0.148412
0.159821
0.195545
0.016369
0.265747
0.139766
0.098900
0.049394
0.202293
0.148660
0.184341
0.302210
0.275949
0.117809
70.285782
1.000000
1.000000
1.000000
0.000000
0.000000
0.000000
0.000000
0.192132
0.061560
0.112926
0.249275
0.104478
0.095986
0.065839
0.173627
0.054444
0.225442
0.071459
0.082122
0.068162
0.172237
0.094116
0.046588
0.069727
0.198622
0.025295
0.126078
0.195556
0.102148
77.145767
82.170532
1.000000
1.000000
1.000000
0.000000
0.000000
0.000000
0.000000
0.038896
0.016507
0.097965
0.228176
0.085624
0.142027
0.233814
0.097103
0.116334
0.171302
0.103364
0.041891
0.195706
0.190036
0.090104
0.127835
0.124915
0.120470
0.289665
0.158238
0.357838
0.190840
0.233050
78.908981
1.000000
1.000000
1.000000
0.000000
0.000000
0.000000
0.000000
0.099360
0.050340
0.065194
0.153769
0.209426
0.077425
0.105208
0.082921
0.036962
0.145349
0.149708
0.103901
0.186810
0.084169
0.078659
0.122742
0.088668
0.225787
0.170086
0.615306
0.469998
0.525485
0.569757
71.799675
1.000000
1.000000
1.000000
0.000000
0.000000
0.000000
0.000000
0.126824
0.031814
0.099349
0.092545
0.068928
0.246363
0.027588
0.160213
0.119215
0.260781
0.089076
0.161198
0.054772
0.140406
0.193913
0.285886
0.095783
0.107957
0.324222
0.522496
0.420740
0.276545
63.439438
76.306717
1.000000
1.000000
1.000000
0.000000
0.000000
0.000000
0.000000
0.184983
0.088426
0.033233
0.046801
0.112547
0.213320
0.117000
0.203373
0.162133
0.088860
0.038031
0.060027
0.141356
0.109436
0.046011
0.227625
0.150127
0.188897
0.391054
0.122128
0.610028
0.295968
0.117356
76.281303
1.000000
1.000000
1.000000
0.000000
0.000000
0.000000
0.000000
0.062276
0.209220
0.020897
0.112606
0.049793
0.084091
0.054903
0.120006
0.046432
0.124541
0.082305
0.099459
0.254941
0.187573
0.085868
0.233867
0.172696
0.154927
0.186729
0.235679
0.158304
0.388624
0.292749
76.911522
0.000000
0.000000
0.000000
0.000000
0.068367
0.076884
0.097570
0.027071
0.042604
0.120257
0.157485
0.126501
0.069907
0.230005
0.175930
0.318060
0.281724
0.038199
0.274520
0.294399
0.042892
0.089336
0.216582
0.247905
0.431423
0.078615
0.414764
80.192162
0.000000
0.000000
0.000000
0.000000
0.126714
0.119259
0.127330
0.064500
0.113753
0.078911
0.285464
0.119237
0.087443
0.157169
0.160058
0.129914
0.065556
0.172377
0.171381
0.116026
0.092835
0.239692
0.262971
0.441497
0.129241
0.541042
0.319918
75.940750
0.000000
0.000000
0.000000
0.000000
0.080288
0.043357
0.162781
0.072005
0.096262
0.043769
0.070020
0.136672
0.090176
0.198115
0.099830
0.193295
0.101261
0.189460
0.066647
0.080035
0.246108
0.093342
0.071416
0.471021
0.478689
0.403166
77.582321
88.804161
0.000000
0.000000
0.000000
0.000000
0.086114
0.094899
0.138856
0.147039
0.130532
0.078262
0.188219
0.113082
0.309701
0.101576
0.063756
0.130502
0.161631
0.192656
0.153388
0.094039
0.073104
0.296162
0.284151
0.341484
0.366555
0.747244
74.366653
86.656265
0.000000
0.000000
0.000000
0.000000
0.138878
0.046162
0.047545
0.165454
0.206320
0.185697
0.060552
0.095478
0.080292
0.192342
0.085858
0.174079
0.143329
0.096095
0.158431
0.165730
0.256884
0.167958
0.100332
0.093233
0.384172
0.453720
0.285651
87.634392
0.000000
0.000000
0.000000
0.000000
0.061325
0.021472
0.060258
0.036569
0.146719
0.089489
0.119804
0.130461
0.096693
0.076746
0.050507
0.263955
0.215300
0.203673
0.152970
0.148185
0.290671
0.143945
0.264597
0.120032
0.251181
0.489146
93.168472
74.443298
0.000000
0.000000
0.000000
0.000000
0.126591
0.054878
0.069608
0.077200
0.033048
0.150200
0.095523
0.270900
0.138385
0.189277
0.205552
0.089838
0.078872
0.124413
0.140094
0.187954
0.154805
0.215301
0.083109
0.330239
0.281508
0.141939
0.171548
70.764793
0.000000
0.000000
0.000000
0.000000
0.092121
0.075723
0.010474
0.082152
0.094221
0.145921
0.193862
0.094346
0.116747
0.015043
0.055647
0.067180
0.158147
0.145306
0.181710
0.130551
0.079714
0.049818
0.239437
0.142614
0.125184
0.361562
0.152473
81.591255
0.000000
0.000000
0.000000
0.000000
0.089894
0.096903
0.094104
0.073349
0.154944
0.088990
0.259576
0.004231
0.090827
0.089108
0.045443
0.083433
0.098362
0.019716
0.105449
0.217044
0.050186
0.080669
0.367716
0.254380
0.333271
0.225858
0.443319
90.619896
0.000000
0.000000
0.000000
0.000000
0.057505
0.140881
0.114504
0.082228
0.051058
0.179521
0.130063
0.076080
0.040986
0.095040
0.050813
0.052209
0.043018
0.048966
0.114148
0.131880
0.151991
0.165166
0.376025
0.227158
0.488457
0.349169
0.072198
90.718452
0.000000
0.000000
0.000000
0.000000
0.061226
0.095939
0.037166
0.064538
0.137692
0.156829
0.058024
0.026370
0.166730
0.095897
0.136498
0.083999
0.146700
0.172914
0.095563
0.158177
0.093331
0.088040
0.307940
0.158535
0.221680
0.151836
0.254688
82.055603
0.000000
0.000000
0.000000
0.000000
0.175667
0.120121
0.063703
0.162304
0.109082
0.184497
0.111024
0.064886
0.109576
0.141293
0.103323
0.108881
0.085554
0.054341
0.146165
0.154835
0.044941
0.247082
0.164003
0.154992
0.193734
0.086353
0.173334
86.275681
0.000000
0.000000
0.000000
0.000000
0.118134
0.059544
0.011860
0.116689
0.095414
0.200365
0.097479
0.163142
0.076518
0.025622
0.077409
0.071417
0.055457
0.041741
0.095576
0.195109
0.137042
0.174498
0.280624
0.176572
0.520980
0.176282
0.128992
77.569122
0.000000
0.000000
0.000000
0.000000
0.092065
0.049664
0.133035
0.152460
0.148948
0.073223
0.038672
0.107403
0.118140
0.036145
0.036159
0.031191
0.051193
0.056283
0.060279
0.068175
0.125149
0.168619
0.078983
0.262597
0.088822
0.342236
0.111749
74.098183
0.000000
0.000000
0.000000
0.000000
0.033339
0.139824
0.090201
0.054726
0.210377
0.091159
0.067468
0.091696
0.220067
0.017285
0.018075
0.066904
0.073988
0.061402
0.087612
0.047341
0.015410
0.131779
0.254944
0.078416
0.336342
0.513055
0.373869
76.187706
0.000000
0.000000
0.000000
0.000000
0.041184
0.053172
0.049456
0.058019
0.108848
0.069538
0.078154
0.062539
0.123189
0.098216
0.184166
0.036395
0.131896
0.030711
0.040190
0.143792
0.023457
0.223763
0.315509
0.482959
0.284818
0.542754
0.426613
62.070267
0.000000
0.000000
0.000000
0.000000
0.059690
0.138557
0.168963
0.226853
0.122361
0.044086
0.068343
0.049315
0.128704
0.090752
0.153910
0.108638
0.131721
0.178553
0.060508
0.026801
0.138751
0.102326
0.163596
0.169936
0.233726
0.188751
0.490168
52.483028
0.000000
0.000000
0.000000
0.000000
0.064467
0.069355
0.161231
0.110681
0.041092
0.042540
0.028281
0.129287
0.090907
0.031533
0.105107
0.027595
0.119203
0.045481
0.135861
0.112487
0.077061
0.117546
0.065169
0.029227
0.358013
0.615524
0.282062
50.248562
0.000000
0.000000
0.000000
0.000000
0.051998
0.066038
0.012639
0.042687
0.160734
0.056666
0.103360
0.112350
0.100007
0.066473
0.040039
0.095670
0.073335
0.028277
0.140668
0.048432
0.109529
0.099143
0.162613
0.159990
0.281184
0.120217
0.242522
48.420788
0.000000
0.000000
0.000000
0.000000
0.008506
0.028372
0.055021
0.021608
0.114387
0.081248
0.026214
0.088333
0.024351
0.051892
0.008120
0.057244
0.070256
0.108747
0.095514
0.028240
0.080729
0.101882
0.163019
0.115267
0.107732
0.193486
0.425736
38.178493
0.000000
0.000000
0.000000
0.000000
0.048137
0.137180
0.047396
0.063149
0.130015
0.049092
0.140522
0.055571
0.053079
0.072773
0.122681
0.147526
0.102271
0.095063
0.047068
0.068393
0.090980
0.115382
0.162036
0.145564
0.265253
0.181908
0.110349
32.058426
0.000000
0.000000
0.000000
0.000000
0.036533
0.100312
0.061483
0.080963
0.111602
0.124500
0.025697
0.027140
0.043578
0.178914
0.071566
0.084160
0.064430
0.091141
0.122438
0.056434
0.033499
0.158535
0.073344
0.064284
0.101753
0.235657
0.047973
19.655626
0.000000
0.000000
0.000000
0.000000
0.046544
0.134773
0.031746
0.100307
0.105537
0.109342
0.157075
0.097276
0.072428
0.069973
0.015608
0.116634
0.015213
0.057482
0.127869
0.132555
0.100537
0.161819
0.101297
0.096787
0.115122
0.023906
0.109853
18.673510
0.000000
0.000000
0.000000
0.000000
0.060681
0.117794
0.111047
0.074795
0.152923
0.088696
0.027155
0.032238
0.067244
0.066062
0.043940
0.065015
0.104471
0.121206
0.110432
0.088807
0.055922
0.162213
0.092402
0.138064
0.065131
0.334574
0.141627
13.559646
0.000000
0.000000
0.000000
0.000000
0.064692
0.090605
0.089967
0.116877
0.130544
0.157846
0.044362
0.057965
0.105053
0.059368
0.150447
0.126360
0.052772
0.137654
0.105040
0.004943
0.156511
0.054043
0.162626
0.047445
0.227375
0.218298
0.244020
16.664520
0.000000
0.000000
0.000000
0.000000
0.097061
0.006274
0.133069
0.036016
0.127045
0.069582
0.049316
0.119863
0.189917
0.128435
0.165194
0.175953
0.155107
0.111052
0.086523
0.112120
0.116403
0.167709
0.140274
0.077368
0.266562
0.129833
0.076276
23.137217
0.000000
0.000000
0.000000
0.000000
0.045779
0.145653
0.104346
0.161482
0.101788
0.196373
0.113737
0.112487
0.208025
0.050156
0.126934
0.156814
0.216920
0.426695
0.078330
0.092296
0.075838
0.076131
0.139057
0.240424
0.140076
0.069754
0.324905
22.928690
0.000000
0.000000
0.000000
0.000000
0.062664
0.166919
0.111753
0.078478
0.096873
0.279883
0.189778
0.020910
0.180728
0.020630
0.035989
0.086072
0.030558
0.164306
0.094415
0.166821
0.254352
0.168801
0.172315
0.084514
0.175007
0.121112
12.731530
26.582460
0.000000
0.000000
0.000000
0.000000
0.023684
0.094159
0.028889
0.127257
0.052212
0.076952
0.256515
0.053582
0.211529
0.079943
0.102008
0.112960
0.289766
0.270886
0.134572
0.336790
0.180280
0.227426
0.152231
0.304493
0.125273
0.471976
0.223343
37.960564
0.000000
0.000000
0.000000
0.000000
0.028964
0.046440
0.064147
0.181311
0.145737
0.071723
0.122282
0.207645
0.106626
0.204940
0.035287
0.049792
0.124400
0.178463
0.048756
0.009030
0.166803
0.116182
0.431687
0.171118
0.216821
0.103478
0.366619
48.206650
0.000000
0.000000
0.000000
0.000000
0.041158
0.083796
0.149807
0.155251
0.047212
0.054322
0.081951
0.117832
0.188323
0.148936
0.109768
0.034503
0.070594
0.083124
0.228105
0.091112
0.130206
0.092296
0.214938
0.309486
0.065682
0.244274
0.326785
48.567936
0.000000
0.000000
0.000000
0.000000
0.044264
0.121460
0.043943
0.016024
0.134063
0.124644
0.176682
0.036736
0.090360
0.071386
0.162754
0.042394
0.059423
0.165328
0.116433
0.074257
0.138124
0.262466
0.203768
0.154498
0.271583
0.189410
50.449276
58.404064
0.000000
0.000000
0.000000
0.000000
0.059832
0.072499
0.111784
0.142961
0.105185
0.109894
0.218398
0.130030
0.080693
0.092990
0.086203
0.083962
0.044595
0.383228
0.072286
0.261922
0.177424
0.246786
0.159578
0.038148
0.119173
0.087659
0.052253
60.876389
0.000000
0.000000
0.000000
0.000000
0.032683
0.073196
0.111558
0.044011
0.177526
0.089049
0.165919
0.124459
0.229425
0.039264
0.010415
0.187398
0.296140
0.183190
0.248845
0.286710
0.149478
0.201426
0.140524
0.265150
0.201637
0.240429
59.689526
62.041859
0.000000
0.000000
0.000000
0.000000
0.035601
0.151233
0.186259
0.024210
0.193025
0.044208
0.103494
0.171254
0.214960
0.063305
0.056400
0.066946
0.156205
0.087524
0.131830
0.216341
0.267105
0.269500
0.128544
0.375536
0.161589
0.077647
0.308639
78.106422
0.000000
0.000000
0.000000
0.000000
0.089170
0.043092
0.129530
0.154111
0.088988
0.106930
0.020830
0.128299
0.038415
0.073698
0.096163
0.139233
0.192956
0.041468
0.232357