<?xml version='1.0' encoding='UTF-8'?>
<VTKFile xmlns='VTK' byte_order='LittleEndian' version='0.1' type='UnstructuredGrid'>
<UnstructuredGrid>
<Piece NumberOfCells='2512' NumberOfPoints='2512'>
<Points>
<DataArray NumberOfComponents='3' type='Float32' Name='Position' format='ascii'>
-0.075000 -0.075000 0.000000
-0.075000 -0.050000 0.000000
-0.075000 -0.025000 0.000000
-0.075000 0.000000 0.000000
-0.075000 0.025000 0.000000
-0.075000 0.050000 0.000000
-0.075000 0.075000 0.000000
-0.075000 0.100000 0.000000
-0.075000 0.125000 0.000000
-0.075000 0.150000 0.000000
-0.075000 0.175000 0.000000
-0.075000 0.200000 0.000000
-0.075000 0.225000 0.000000
-0.075000 0.250000 0.000000
-0.075000 0.275000 0.000000
-0.075000 0.300000 0.000000
-0.075000 0.325000 0.000000
-0.075000 0.350000 0.000000
-0.075000 0.375000 0.000000
-0.075000 0.400000 0.000000
-0.075000 0.425000 0.000000
-0.075000 0.450000 0.000000
-0.075000 0.475000 0.000000
-0.075000 0.500000 0.000000
-0.075000 0.525000 0.000000
-0.075000 0.550000 0.000000
-0.075000 0.575000 0.000000
-0.075000 0.600000 0.000000
-0.050000 -0.075000 0.000000
-0.050000 -0.050000 0.000000
-0.050000 -0.025000 0.000000
-0.050000 0.000000 0.000000
-0.050000 0.025000 0.000000
-0.050000 0.050000 0.000000
-0.050000 0.075000 0.000000
-0.050000 0.100000 0.000000
-0.050000 0.125000 0.000000
-0.050000 0.150000 0.000000
-0.050000 0.175000 0.000000
-0.050000 0.200000 0.000000
-0.050000 0.225000 0.000000
-0.050000 0.250000 0.000000
-0.050000 0.275000 0.000000
-0.050000 0.300000 0.000000
-0.050000 0.325000 0.000000
-0.050000 0.350000 0.000000
-0.050000 0.375000 0.000000
-0.050000 0.400000 0.000000
-0.050000 0.425000 0.000000
-0.050000 0.450000 0.000000
-0.050000 0.475000 0.000000
-0.050000 0.500000 0.000000
-0.050000 0.525000 0.000000
-0.050000 0.550000 0.000000
-0.050000 0.575000 0.000000
-0.050000 0.600000 0.000000
-0.025000 -0.075000 0.000000
-0.025000 -0.050000 0.000000
-0.025000 -0.025000 0.000000
-0.025000 0.000000 0.000000
-0.025000 0.025000 0.000000
-0.025000 0.050000 0.000000
-0.025000 0.075000 0.000000
-0.025000 0.100000 0.000000
-0.025000 0.125000 0.000000
-0.025000 0.150000 0.000000
-0.025000 0.175000 0.000000
-0.025000 0.200000 0.000000
-0.025000 0.225000 0.000000
-0.025000 0.250000 0.000000
-0.025000 0.275000 0.000000
-0.025000 0.300000 0.000000
-0.025000 0.325000 0.000000
-0.025000 0.350000 0.000000
-0.025000 0.375000 0.000000
-0.025000 0.400000 0.000000
-0.025000 0.425000 0.000000
-0.025000 0.450000 0.000000
-0.025000 0.475000 0.000000
-0.025000 0.500000 0.000000
-0.025000 0.525000 0.000000
-0.025000 0.550000 0.000000
-0.025000 0.575000 0.000000
-0.025000 0.600000 0.000000
0.000000 -0.075000 0.000000
0.000000 -0.050000 0.000000
0.000000 -0.025000 0.000000
0.000000 0.000000 0.000000
0.000000 0.025000 0.000000
0.000000 0.050000 0.000000
0.000000 0.075000 0.000000
0.000000 0.100000 0.000000
0.000000 0.125000 0.000000
0.000000 0.150000 0.000000
0.000000 0.175000 0.000000
0.000000 0.200000 0.000000
0.000000 0.225000 0.000000
0.000000 0.250000 0.000000
0.000000 0.275000 0.000000
0.000000 0.300000 0.000000
0.000000 0.325000 0.000000
0.000000 0.350000 0.000000
0.000000 0.375000 0.000000
0.000000 0.400000 0.000000
0.000000 0.425000 0.000000
0.000000 0.450000 0.000000
0.000000 0.475000 0.000000
0.000000 0.500000 0.000000
0.000000 0.525000 0.000000
0.000000 0.550000 0.000000
0.000000 0.575000 0.000000
0.000000 0.600000 0.000000
0.025000 -0.075000 0.000000
0.025000 -0.050000 0.000000
0.025000 -0.025000 0.000000
0.025000 0.000000 0.000000
0.024912 0.024893 0.000000
0.025047 0.049960 0.000000
0.024980 0.074881 0.000000
0.024999 0.099893 0.000000
0.024999 0.124864 0.000000
0.025045 0.149891 0.000000
0.024922 0.174842 0.000000
0.025057 0.199904 0.000000
0.024990 0.224889 0.000000
0.024991 0.249921 0.000000
0.024963 0.274951 0.000000
0.025051 0.300005 0.000000
0.024978 0.325078 0.000000
0.024950 0.350097 0.000000
0.024998 0.375276 0.000000
0.025029 0.400319 0.000000
0.024881 0.425490 0.000000
0.025156 0.450514 0.000000
0.024800 0.475859 0.000000
0.025085 0.500698 0.000000
0.024862 0.526254 0.000000
0.025064 0.550683 0.000000
0.024831 0.576222 0.000000
0.023485 0.600000 0.000000
0.225000 0.625000 0.000000
0.225000 0.650000 0.000000
0.225000 0.675000 0.000000
0.050000 -0.075000 0.000000
0.050000 -0.050000 0.000000
0.050000 -0.025000 0.000000
0.050000 0.000000 0.000000
0.050049 0.024927 0.000000
0.049994 0.049974 0.000000
0.050076 0.074927 0.000000
0.049983 0.099969 0.000000
0.050040 0.124935 0.000000
0.049961 0.149953 0.000000
0.050033 0.174945 0.000000
0.049946 0.199965 0.000000
0.049951 0.224908 0.000000
0.049974 0.250026 0.000000
0.049907 0.274939 0.000000
0.049905 0.300000 0.000000
0.049857 0.324983 0.000000
0.049904 0.350087 0.000000
0.049757 0.375005 0.000000
0.049837 0.400100 0.000000
0.049734 0.425230 0.000000
0.049737 0.450259 0.000000
0.049738 0.475448 0.000000
0.049739 0.500449 0.000000
0.049865 0.525795 0.000000
0.050298 0.550365 0.000000
0.050239 0.575403 0.000000
0.049277 0.599871 0.000000
0.250000 0.625000 0.000000
0.250000 0.650000 0.000000
0.250000 0.675000 0.000000
0.075000 -0.075000 0.000000
0.075000 -0.050000 0.000000
0.075000 -0.025000 0.000000
0.075000 0.000000 0.000000
0.074969 0.024966 0.000000
0.075026 0.049997 0.000000
0.074996 0.074962 0.000000
0.075007 0.099995 0.000000
0.075006 0.124945 0.000000
0.075021 0.150016 0.000000
0.074983 0.174923 0.000000
0.075004 0.199939 0.000000
0.075001 0.224952 0.000000
0.074972 0.249877 0.000000
0.074958 0.274831 0.000000
0.075039 0.299876 0.000000
0.074890 0.324756 0.000000
0.074999 0.349708 0.000000
0.074849 0.374631 0.000000
0.074959 0.399674 0.000000
0.074763 0.424337 0.000000
0.074886 0.449427 0.000000
0.074722 0.474238 0.000000
0.074710 0.499128 0.000000
0.074880 0.524169 0.000000
0.075358 0.549224 0.000000
0.075401 0.574477 0.000000
0.072415 0.599065 0.000000
0.275000 0.625000 0.000000
0.275000 0.650000 0.000000
0.275000 0.675000 0.000000
0.100000 -0.075000 0.000000
0.100000 -0.050000 0.000000
0.100000 -0.025000 0.000000
0.100000 0.000000 0.000000
0.100015 0.024964 0.000000
0.100063 0.049930 0.000000
0.100038 0.074886 0.000000
0.100012 0.099902 0.000000
0.100009 0.124875 0.000000
0.100032 0.149863 0.000000
0.099977 0.174874 0.000000
0.100047 0.199918 0.000000
0.099939 0.224822 0.000000
0.100027 0.249921 0.000000
0.099952 0.274932 0.000000
0.099967 0.299885 0.000000
0.099938 0.324929 0.000000
0.099982 0.350037 0.000000
0.099864 0.374949 0.000000
0.100008 0.399999 0.000000
0.099782 0.425135 0.000000
0.100012 0.450067 0.000000
0.099750 0.475085 0.000000
0.099905 0.500050 0.000000
0.099610 0.525073 0.000000
0.100205 0.549950 0.000000
0.099827 0.575566 0.000000
0.099310 0.599454 0.000000
0.300000 0.625000 0.000000
0.300000 0.650000 0.000000
0.300000 0.675000 0.000000
0.125000 -0.075000 0.000000
0.125000 -0.050000 0.000000
0.125000 -0.025000 0.000000
0.125000 0.000000 0.000000
0.125032 0.024911 0.000000
0.125079 0.049996 0.000000
0.125024 0.074936 0.000000
0.125034 0.099987 0.000000
0.125017 0.124919 0.000000
0.125015 0.149976 0.000000
0.125014 0.174913 0.000000
0.124985 0.199892 0.000000
0.124987 0.224939 0.000000
0.125012 0.249899 0.000000
0.124916 0.274792 0.000000
0.125026 0.299912 0.000000
0.124873 0.324798 0.000000
0.125004 0.349717 0.000000
0.124779 0.374801 0.000000
0.124955 0.399714 0.000000
0.124757 0.424663 0.000000
0.124871 0.449624 0.000000
0.124764 0.474741 0.000000
0.124872 0.499510 0.000000
0.124763 0.524663 0.000000
0.125292 0.549429 0.000000
0.124884 0.574663 0.000000
0.123997 0.599087 0.000000
0.325000 0.625000 0.000000
0.325000 0.650000 0.000000
0.325000 0.675000 0.000000
0.150000 -0.075000 0.000000
0.150000 -0.050000 0.000000
0.150000 -0.025000 0.000000
0.150000 0.000000 0.000000
0.150039 0.024957 0.000000
0.150063 0.049966 0.000000
0.150030 0.074934 0.000000
0.150037 0.099971 0.000000
0.150014 0.124891 0.000000
0.150073 0.149932 0.000000
0.149978 0.174860 0.000000
0.150068 0.199904 0.000000
0.149982 0.224824 0.000000
0.150023 0.249808 0.000000
0.149980 0.274895 0.000000
0.150071 0.299746 0.000000
0.149897 0.324796 0.000000
0.150082 0.349826 0.000000
0.149880 0.374694 0.000000
0.150071 0.399700 0.000000
0.149783 0.424708 0.000000
0.150046 0.449600 0.000000
0.149802 0.474594 0.000000
0.149933 0.499526 0.000000
0.149717 0.524655 0.000000
0.150104 0.549514 0.000000
0.149863 0.575142 0.000000
0.149483 0.599025 0.000000
0.350000 0.625000 0.000000
0.350000 0.650000 0.000000
0.350000 0.675000 0.000000
0.175000 -0.075000 0.000000
0.175000 -0.050000 0.000000
0.175000 -0.025000 0.000000
0.175000 0.000000 0.000000
0.175063 0.024972 0.000000
0.175091 0.049932 0.000000
0.175043 0.074917 0.000000
0.175064 0.099891 0.000000
0.175051 0.124852 0.000000
0.175065 0.149862 0.000000
0.175020 0.174823 0.000000
0.175084 0.199814 0.000000
0.174950 0.224813 0.000000
0.175107 0.249815 0.000000
0.174942 0.274722 0.000000
0.175019 0.299788 0.000000
0.174982 0.324734 0.000000
0.175022 0.349653 0.000000
0.174854 0.374754 0.000000
0.175051 0.399650 0.000000
0.174805 0.424676 0.000000
0.175016 0.449629 0.000000
0.174734 0.474676 0.000000
0.175038 0.499546 0.000000
0.174614 0.524584 0.000000
0.175075 0.549454 0.000000
0.174850 0.574800 0.000000
0.174519 0.598988 0.000000
0.375000 0.625000 0.000000
0.375000 0.650000 0.000000
0.375000 0.675000 0.000000
0.200000 -0.075000 0.000000
0.200000 -0.050000 0.000000
0.200000 -0.025000 0.000000
0.200000 0.000000 0.000000
0.200086 0.024939 0.000000
0.200133 0.049956 0.000000
0.200059 0.074897 0.000000
0.200091 0.099937 0.000000
0.200064 0.124861 0.000000
0.200069 0.149900 0.000000
0.200047 0.174861 0.000000
0.200038 0.199853 0.000000
0.200052 0.224822 0.000000
0.200025 0.249823 0.000000
0.200008 0.274781 0.000000
0.200135 0.299799 0.000000
0.199918 0.324720 0.000000
0.200112 0.349748 0.000000
0.199924 0.374699 0.000000
0.200071 0.399627 0.000000
0.199845 0.424694 0.000000
0.200072 0.449525 0.000000
0.199846 0.474617 0.000000
0.200016 0.499503 0.000000
0.199697 0.524639 0.000000
0.200046 0.549412 0.000000
[...]
<PointData>
<DataArray NumberOfComponents='1' type='Int32' Name='ParticleType' format='ascii'>
3
3
3
3
3
3
3
3
3
3
3
3
3
3
3
3
3
3
3
3
3
3
3
3
3
3
3
3
3
3
3
3
3
3
3
3
3
3
3
3
3
3
3
3
3
3
3
3
3
3
3
3
3
3
3
3
3
3
2
2
2
2
2
2
2
2
2
2
2
2
2
2
2
2
2
2
2
2
2
2
2
2
2
2
3
3
2
2
2
2
2
2
2
2
2
2
2
2
2
2
2
2
2
2
2
2
2
2
2
2
2
2
3
3
2
2
0
0
0
0
0
0
0
0
0
0
0
0
0
0
0
0
0
0
0
0
0
0
0
0
1
1
1
3
3
2
2
0
0
0
0
0
0
0
0
0
0
0
0
0
0
0
0
0
0
0
0
0
0
0
0
1
1
1
3
3
2
2
0
0
0
0
0
0
0
0
0
0
0
0
0
0
0
0
0
0
0
0
0
0
0
0
1
1
1
3
3
2
2
0
0
0
0
0
0
0
0
0
0
0
0
0
0
0
0
0
0
0
0
0
0
0
0
1
1
1
3
3
2
2
0
0
0
0
0
0
0
0
0
0
0
0
0
0
0
0
0
0
0
0
0
0
0
0
1
1
1
3
3
2
2
0
0
0
0
0
0
0
0
0
0
0
0
0
0
0
0
0
0
0
0
0
0
0
0
1
1
1
3
3
2
2
0
0
0
0
0
0
0
0
0
0
0
0
0
0
0
0
0
0
0
0
0
0
0
0
1
1
1
3
3
2
2
0
0
0
0
0
0
0
0
0
0
0
0
0
0
0
0
0
0
0
0
0
0
0
0
1
1
1
3
3
2
2
0
0
0
0
0
0
0
0
0
0
0
0
0
0
0
0
0
0
0
0
0
0
0
0
1
1
1
3
3
2
2
0
0
0
0
0
0
0
0
0
0
0
0
0
0
0
0
0
0
0
0
0
0
0
0
1
1
1
3
3
2
2
0
0
0
0
0
0
0
0
0
0
0
0
0
0
0
0
0
0
0
0
0
0
0
0
1
1
1
3
3
2
2
0
0
0
0
0
0
0
0
0
0
0
0
0
0
0
0
0
0
0
0
0
0
0
0
1
1
1
3
3
2
2
0
0
0
0
0
0
0
0
0
0
0
0
0
0
0
0
0
0
0
0
0
0
0
0
1
1
1
3
3
2
2
0
0
0
0
0
0
0
0
0
0
0
0
0
0
0
0
0
0
0
0
0
0
0
0
1
1
1
3
3
2
2
0
0
0
0
0
0
0
0
0
0
0
0
0
0
0
0
0
0
0
0
0
0
0
0
1
1
1
3
3
2
2
0
0
0
0
0
0
0
0
0
0
0
0
0
0
0
0
0
0
0
0
0
0
0
0
1
1
1
3
3
2
2
0
0
0
0
0
0
0
0
0
0
0
0
0
0
0
0
0
0
0
0
0
0
0
0
3
3
2
2
0
0
0
0
0
0
0
0
0
0
0
0
0
0
0
0
0
0
0
0
0
0
0
0
3
3
2
2
0
0
0
0
0
0
0
0
0
0
0
0
0
0
0
0
0
0
0
0
0
0
0
0
3
3
2
2
0
0
0
0
0
0
0
0
0
0
0
0
0
0
0
0
0
0
0
0
0
0
0
0
3
3
2
2
0
0
0
0
0
0
0
0
0
0
0
0
0
0
0
0
0
0
0
0
0
0
0
0
3
3
2
2
0
0
0
0
0
0
0
0
0
0
0
0
0
0
0
0
0
0
0
0
0
0
0
0
3
3
2
2
0
0
0
0
0
0
0
0
0
0
0
0
0
0
0
0
0
0
0
0
0
0
0
0
3
3
2
2
0
0
0
0
0
0
0
0
0
0
0
0
0
0
0
0
0
0
0
0
0
0
0
0
3
3
2
2
0
0
0
0
0
0
0
0
0
0
0
0
0
0
0
0
0
0
0
0
0
0
0
0
3
3
2
2
0
0
0
0
0
0
0
0
0
0
0
0
0
0
0
0
0
0
0
0
0
0
0
0
3
3
2
2
0
0
0
0
0
0
0
0
0
0
0
0
0
0
0
0
0
0
0
0
0
0
0
0
3
3
2
2
0
0
0
0
0
0
0
0
0
0
0
0
0
0
0
0
0
0
0
0
0
0
0
0
3
3
2
2
0
0
0
0
0
0
0
0
0
0
0
0
0
0
0
0
0
0
0
0
0
0
0
0
3
3
2
2
0
0
0
0
0
0
0
0
0
0
0
0
0
0
0
0
0
0
0
0
0
0
0
0
3
3
2
2
0
0
0
0
0
0
0
0
0
0
0
0
0
0
0
0
0
0
0
0
0
0
0
0
3
3
2
2
0
0
0
0
0
0
0
0
0
0
0
0
0
0
0
0
0
0
0
0
0
0
0
0
3
3
2
2
0
0
0
0
0
0
0
0
0
0
0
0
0
0
0
0
0
0
0
0
0
0
0
0
3
3
2
2
0
0
0
0
0
0
0
0
0
0
0
0
0
0
0
0
0
0
0
0
0
0
0
0
3
3
2
2
0
0
0
0
0
0
0
0
0
0
0
0
0
0
0
0
0
0
0
0
0
0
0
0
3
3
2
2
0
0
0
0
0
0
0
0
0
0
0
0
0
0
0
0
0
0
0
0
0
0
0
0
3
3
2
2
0
0
0
0
0
0
0
0
0
0
0
0
0
0
0
0
0
0
0
0
0
0
0
0
3
3
2
2
0
0
0
0
0
0
0
0
0
0
0
0
0
0
0
0
0
0
0
0
0
0
0
0
3
3
2
2
0
0
0
0
0
0
0
0
0
0
0
0
0
0
0
0
0
0
0
0
0
0
0
0
3
3
2
2
0
0
0
0
0
0
0
0
0
0
0
0
0
0
0
0
0
0
0
0
0
0
0
0
3
3
2
2
0
0
0
0
0
0
0
0
0
0
0
0
0
0
0
0
0
0
0
0
0
0
0
0
3
3
2
2
0
0
0
0
0
0
0
0
0
0
0
0
0
0
0
0
0
0
0
0
0
0
0
0
3
3
2
2
0
0
0
0
0
0
0
0
0
0
0
0
0
0
0
0
0
0
0
0
0
0
0
0
3
3
2
2
0
0
0
0
0
0
0
0
0
0
0
0
0
0
0
0
0
0
0
0
0
0
0
0
3
3
2
2
0
0
0
0
0
0
0
0
0
0
0
0
0
0
0
0
0
0
0
0
0
0
0
0
3
3
2
2
0
0
0
0
0
0
0
0
0
0
0
0
0
0
0
0
0
0
0
0
0
0
0
0
3
3
2
2
0
0
0
0
0
0
0
0
0
0
0
0
0
0
0
0
0
0
0
0
0
0
0
0
3
3
2
2
0
0
0
0
0
0
0
0
0
0
0
0
0
0
0
0
0
0
0
0
0
0
0
0
3
3
2
2
0
0
0
0
0
0
0
0
0
0
0
0
0
0
0
0
0
0
0
0
0
0
0
0
3
3
2
2
0
0
0
0
0
0
0
0
0
0
0
0
0
0
0
0
0
0
0
0
0
0
0
0
3
3
2
2
0
0
0
0
0
0
0
0
0
0
0
0
0
0
0
0
0
0
0
0
0
0
0
0
3
3
2
2
0
0
0
0
0
0
0
0
0
0
0
0
0
0
0
0
0
0
0
0
0
0
0
0
3
3
2
2
0
0
0
0
0
0
0
0
0
0
0
0
0
0
0
0
0
0
0
0
0
0
0
0
3
3
2
2
0
0
0
0
0
0
0
0
0
0
0
0
0
0
0
0
0
0
0
0
0
0
0
0
3
3
2
2
0
0
0
0
0
0
0
0
0
0
0
0
0
0
0
0
0
0
0
0
0
0
0
0
3
3
2
2
0
0
0
0
0
0
0
0
0
0
0
0
0
0
0
0
0
0
0
0
0
0
0
0
3
3
2
2
0
0
0
0
0
0
0
0
0
0
0
0
0
0
0
0
0
0
0
0
0
0
0
0
3
3
2
2
0
0
0
0
0
0
0
0
0
0
0
0
0
0
0
0
0
0
0
0
0
0
0
0
3
3
2
2
0
0
0
0
0
0
0
0
0
0
0
0
0
0
0
0
0
0
0
0
0
0
0
0
3
3
2
2
0
0
0
0
0
0
0
0
0
0
0
0
0
0
0
0
0
0
0
0
0
0
0
0
3
3
2
2
0
0
0
0
0
0
0
0
0
0
0
0
0
0
0
0
0
0
0
0
0
0
0
0
3
3
2
2
0
0
0
0
0
0
0
0
0
0
0
0
0
0
0
0
0
0
0
0
0
0
0
0
3
3
2
2
0
0
0
0
0
0
0
0
0
0
0
0
0
0
0
0
0
0
0
0
0
0
0
0
3
3
2
2
0
0
0
0
0
0
0
0
0
0
0
0
0
0
0
0
0
0
0
0
0
0
0
0
3
3
2
2
0
0
0
0
0
0
0
0
0
0
0
0
0
0
0
0
0
0
0
0
0
0
0
0
3
3
2
2
0
0
0
0
0
0
0
0
0
0
0
0
0
0
0
0
0
0
0
0
0
0
0
0
3
3
2
2
0
0
0
0
0
0
0
0
0
0
0
0
0
0
0
0
0
0
0
0
0
0
0
0
3
3
2
2
0
0
0
0
0
0
0
0
0
0
0
0
0
0
0
0
0
0
0
0
0
0
0
0
3
3
2
2
0
0
0
0
0
0
0
0
0
0
0
0
0
0
0
0
0
0
0
0
0
0
0
0
3
3
2
2
0
0
0
0
0
0
0
0
0
0
0
0
0
0
0
0
0
0
0
0
0
0
0
0
3
3
2
2
0
0
0
0
0
0
0
0
0
0
0
0
0
0
0
0
0
0
0
0
0
0
0
0
3
3
2
2
0
0
0
0
0
0
0
0
0
0
0
0
0
0
0
0
0
0
0
0
0
0
0
0
3
3
2
2
0
0
0
0
0
0
0
0
0
0
0
0
0
0
0
0
0
0
0
0
0
0
0
0
3
3
2
2
0
0
0
0
0
0
0
0
0
0
0
0
0
0
0
0
0
0
0
0
0
0
0
0
3
3
2
2
0
0
0
0
0
0
0
0
0
0
0
0
0
0
0
0
0
0
0
0
0
0
0
0
3
3
2
2
0
0
0
0
0
0
0
0
0
0
0
0
0
0
0
0
0
0
0
0
0
0
0
0
3
3
2
2
0
0
0
0
0
0
0
0
0
0
0
0
0
0
0
0
0
0
0
0
0
0
0
0
3
3
2
2
0
0
0
0
0
0
0
0
0
0
0
0
0
0
0
0
0
0
0
0
0
0
0
0
3
3
2
2
0
0
0
0
0
0
0
0
0
0
0
0
0
0
0
0
0
0
0
0
0
0
0
0
3
3
2
2
0
0
0
0
0
0
0
0
0
0
0
0
0
0
0
0
0
0
0
0
0
0
0
0
3
3
2
2
2
2
2
2
2
2
2
2
2
2
2
2
2
2
2
2
2
2
2
2
2
2
2
2
3
3
2
2
2
2
2
2
2
2
2
2
2
2
2
2
2
2
2
2
2
2
2
2
2
2
2
2
3
3
3
3
3
3
3
3
3
3
3
3
3
3
3
3
3
3
3
3
3
3
3
3
3
3
3
3
3
3
3
3
3
3
3
3
3
3
3
3
3
3
3
3
3
3
3
3
3
3
3
3
3
3
3
3
</DataArray>
<DataArray NumberOfComponents='1' type='Float32' Name='Velocity' format='ascii'>
0.000000
0.000000
0.000000
0.000000
0.000000
0.000000
0.000000
0.000000
0.000000
0.000000
0.000000
0.000000
0.000000
0.000000
0.000000
0.000000
0.000000
0.000000
0.000000
0.000000
0.000000
0.000000
0.000000
0.000000
0.000000
0.000000
0.000000
0.000000
0.000000
0.000000
0.000000
0.000000
0.000000
0.000000
0.000000
0.000000
0.000000
0.000000
0.000000
0.000000
0.000000
0.000000
0.000000
0.000000
0.000000
0.000000
0.000000
0.000000
0.000000
0.000000
0.000000
0.000000
0.000000
0.000000
0.000000
0.000000
0.000000
0.000000
0.000000
0.000000
0.000000
0.000000
0.000000
0.000000
0.000000
0.000000
0.000000
0.000000
0.000000
0.000000
0.000000
0.000000
0.000000
0.000000
0.000000
0.000000
0.000000
0.000000
0.000000
0.000000
0.000000
0.000000
0.000000
0.000000
0.000000
0.000000
0.000000
0.000000
0.000000
0.000000
0.000000
0.000000
0.000000
0.000000
0.000000
0.000000
0.000000
0.000000
0.000000
0.000000
0.000000
0.000000
0.000000
0.000000
0.000000
0.000000
0.000000
0.000000
0.000000
0.000000
0.000000
0.000000
0.000000
0.000000
0.000000
0.000000
0.002863
0.005338
0.005571
0.003844
0.005128
0.005608
0.005613
0.005434
0.006624
0.003285
0.004269
0.004271
0.004665
0.007163
0.005052
0.012933
0.006966
0.005553
0.007383
0.013923
0.007186
0.012719
0.013795
0.059919
1.000000
1.000000
1.000000
0.000000
0.000000
0.000000
0.000000
0.001458
0.001803
0.002005
0.002570
0.004190
0.004892
0.003266
0.005301
0.004625
0.003766
0.001594
0.002701
0.004463
0.004739
0.003258
0.004539
0.002016
0.013624
0.004516
0.011101
0.001005
0.001302
0.004408
0.004354
1.000000
1.000000
1.000000
0.000000
0.000000
0.000000
0.000000
0.002370
0.001249
0.000363
0.002341
0.002985
0.002295
0.001596
0.003594
0.002598
0.002123
0.004498
0.001503
0.001752
0.003531
0.009067
0.000905
0.006941
0.012523
0.008363
0.004466
0.014770
0.011129
0.026708
0.017775
1.000000
1.000000
1.000000
0.000000
0.000000
0.000000
0.000000
0.002860
0.001726
0.002561
0.001765
0.000856
0.000815
0.003859
0.004000
0.000845
0.003954
0.005508
0.002971
0.002239
0.002289
0.008954
0.003260
0.005196
0.009947
0.001729
0.003570
0.004296
0.008722
0.007557
0.014588
1.000000
1.000000
1.000000
0.000000
0.000000
0.000000
0.000000
0.002073
0.001551
0.000423
0.001488
0.001837
0.002278
0.003747
0.003835
0.002707
0.004568
0.004898
0.005070
0.007107
0.005629
0.004517
0.001976
0.002982
0.003709
0.005995
0.004923
0.007235
0.009480
0.008096
0.009858
1.000000
1.000000
1.000000
0.000000
0.000000
0.000000
0.000000
0.003299
0.001908
0.001454
0.002095
0.001387
0.001500
0.001551
0.002473
0.005430
0.007300
0.004725
0.002904
0.003857
0.000967
0.004087
0.006637
0.005164
0.000552
0.003974
0.002834
0.001564
0.013761
0.009421
0.008391
1.000000
1.000000
1.000000
0.000000
0.000000
0.000000
0.000000
0.002346
0.000906
0.000790
0.001560
0.000787
0.003153
0.001679
0.003764
0.001957
0.003155
0.005284
0.009496
0.006035
0.007105
0.003644
0.001243
0.002441
0.001884
0.005196
0.002557
0.004652
0.010881
0.002157
0.013491
1.000000
1.000000
1.000000
0.000000
0.000000
0.000000
0.000000
0.001835
0.001468
0.000941
0.002017
0.001912
0.002822
0.002104
0.001222
0.000874
0.002283
0.005462
0.005294
0.004513
0.007729
0.003657
0.005356
0.001832
0.001897
0.001674
0.001659
0.005837
0.010143
0.006782
0.008624
1.000000
1.000000
1.000000
0.000000
0.000000
0.000000
0.000000
0.004428
0.004227
0.004478
0.004350
0.003165
0.003381
0.002078
0.004237
0.002770
0.005755
0.001354
0.004669
0.005378
0.007320
0.005652
0.002884
0.008055
0.002047
0.004061
0.004200
0.008021
0.016212
0.012796
0.023063
1.000000
1.000000
1.000000
0.000000
0.000000
0.000000
0.000000
0.004857
0.004893
0.005220
0.005408
0.003806
0.003993
0.002586
0.002380
0.000705
0.000777
0.001287
0.007129
0.007882
0.008711
0.001644
0.003602
0.008866
0.007292
0.009391
0.006290
0.012463
0.003598
0.008975
0.010061
1.000000
1.000000
1.000000
0.000000
0.000000
0.000000
0.000000
0.001623
0.003578
0.003570
0.003938
0.002709
0.003358
0.001595
0.003078
0.001057
0.004984
0.003133
0.004762
0.004278
0.006128
0.005810
0.006827
0.003882
0.004140
0.008322
0.001512
0.003528
0.006051
0.019029
0.022928
1.000000
1.000000
1.000000
0.000000
0.000000
0.000000
0.000000
0.002340
0.003013
0.003253
0.003969
0.003039
0.003381
0.003178
0.005134
0.004477
0.004394
0.003763
0.006745
0.005108
0.006121
0.012209
0.007429
0.004968
0.002765
0.012078
0.000565
0.015190
0.012783
0.008215
0.025512
1.000000
1.000000
1.000000
0.000000
0.000000
0.000000
0.000000
0.003239
0.004205
0.003925
0.004048
0.002718
0.004817
0.002926
0.004428
0.001675
0.002372
0.001727
0.005961
0.005943
0.014924
0.006699
0.005324
0.019293
0.014353
0.004928
0.013952
0.012679
0.006864
0.017527
0.021806
1.000000
1.000000
1.000000
0.000000
0.000000
0.000000
0.000000
0.001849
0.003396
0.001649
0.002644
0.001802
0.001938
0.002953
0.002152
0.002790
0.002959
0.004455
0.004618
0.005612
0.004401
0.002857
0.013600
0.005115
0.002100
0.014104
0.011870
0.008611
0.011089
0.012791
0.020993
1.000000
1.000000
1.000000
0.000000
0.000000
0.000000
0.000000
0.002002
0.002128
0.000627
0.000734
0.001532
0.001272
0.001126
0.005047
0.001838
0.005823
0.003057
0.009820
0.005323
0.006386
0.007870
0.013854
0.012510
0.007285
0.011132
0.019292
0.012386
0.012145
0.015033
0.025140
1.000000
1.000000
1.000000
0.000000
0.000000
0.000000
0.000000
0.002003
0.001806
0.001267
0.001912
0.001458
0.003695
0.001365
0.001097
0.001118
0.002830
0.005109
0.006780
0.007382
0.011383
0.008238
0.003091
0.016844
0.020734
0.019325
0.021060
0.014159
0.008473
0.003165
0.019803
1.000000
1.000000
1.000000
0.000000
0.000000
0.000000
0.000000
0.002462
0.002050
0.001420
0.000744
0.002373
0.001191
0.002238
0.002598
0.000483
0.002808
0.001273
0.008673
0.005750
0.012594
0.005583
0.006319
0.012349
0.008440
0.004656
0.010310
0.018099
0.013337
0.024646
0.024441
0.000000
0.000000
0.000000
0.000000
0.004819
0.003672
0.005030
0.002679
0.001810
0.003012
0.003247
0.001582
0.001340
0.002004
0.005612
0.007164
0.004864
0.003334
0.004035
0.007538
0.014310
0.023040
0.005141
0.018176
0.013949
0.033703
0.033970
0.007440
0.000000
0.000000
0.000000
0.000000
0.006400
0.004696
0.003832
0.003656
0.001984
0.003090
0.001607
0.001963
0.000659
0.006624
0.001945
0.008816
0.004595
0.012404
0.007870
0.006325
0.023588
0.016778
0.031825
0.018288
0.012970
0.012834
0.006207
0.026074
0.000000
0.000000
0.000000
0.000000
0.002084
0.002634
0.002277
0.002691
0.002068
0.001674
0.002010
0.003614
0.001569
0.002628
0.006789
0.012576
0.009685
0.008519
0.004854
0.008334
0.013807
0.010979
0.008652
0.015093
0.027003
0.020793
0.028470
0.042428
0.000000
0.000000
0.000000
0.000000
0.004755
0.002859
0.003951
0.002123
0.001923
0.005166
0.000736
0.000906
0.001936
0.007509
0.006624
0.014684
0.007145
0.012148
0.005271
0.006825
0.026104
0.005742
0.013884
0.052904
0.039663
0.083571
0.037668
0.027952
0.000000
0.000000
0.000000
0.000000
0.005289
0.002073
0.001870
0.004711
0.001208
0.001661
0.001751
0.003061
0.001863
0.005179
0.006440
0.011227
0.009712
0.007298
0.008112
0.007582
0.021648
0.010429
0.013786
0.006784
0.020662
0.049300
0.042595
0.087323
0.000000
0.000000
0.000000
0.000000
0.003489
0.002875
0.000773
0.002182
0.001548
0.002684
0.000503
0.003069
0.001331
0.004898
0.003110
0.008579
0.005160
0.005657
0.009335
0.009338
0.017432
0.012674
0.017456
0.018303
0.040292
0.046043
0.092625
0.080149
0.000000
0.000000
0.000000
0.000000
0.005244
0.000106
0.001903
0.002236
0.001085
0.002982
0.000668
0.002994
0.000865
0.004284
0.002297
0.004019
0.004789
0.001025
0.007902
0.004548
0.010442
0.017127
0.011074
0.025339
0.017044
0.033600
0.036547
0.149862
0.000000
0.000000
0.000000
0.000000
0.003778
0.001801
0.001535
0.002650
0.001347
0.002312
0.000701
0.003273
0.001383
0.003109
0.002200
0.001993
0.003175
0.005075
0.001455
0.008223
0.001279
0.010711
0.007101
0.011859
0.004798
0.013390
0.022756
0.060801
0.000000
0.000000
0.000000
0.000000
0.003252
0.001658
0.001078
0.001680
0.001810
0.002487
0.001432
0.002624
0.001939
0.002714
0.003036
0.004144
0.001951
0.003659
0.003330
0.003135
0.009070
0.009442
0.011734
0.009030
0.002699
0.013572
0.017612
0.032018
0.000000
0.000000
0.000000
0.000000
0.004840
0.000740
0.001692
0.002280
0.001367
0.002733
0.001778
0.001421
0.002936
0.002493
0.001094
0.003259
0.003577
0.004141
0.004048
0.006116
0.006265
0.011023
0.002181
0.014230
0.004119
0.010251
0.018528
0.034386
0.000000
0.000000
0.000000
0.000000
0.003357
0.001345
0.001310
0.002291
0.001931
0.001761
0.002174
0.002204
0.001414
0.003468
0.002293
0.004616
0.001107
0.005005
0.004119
0.006562
0.002022
0.007555
0.003787
0.006265
0.006089
0.005059
0.014027
0.016559
0.000000
0.000000
0.000000
0.000000
0.004071
0.001439
0.001248
0.001981
0.001765
0.002065
0.001730
0.002833
0.001760
0.002626
0.001205
0.002783
0.004587
0.004096
0.002289
0.006024
0.005932
0.006977
0.003350
0.007724
0.005445
0.009136
0.011444
0.014634
0.000000
0.000000
0.000000
0.000000
0.004377
0.001192
0.001976
0.001700
0.001801
0.002240
0.001877
0.002072
0.001909
0.002562
0.003368
0.003567
0.001422
0.005683
0.003088
0.006353
0.001634
0.007318
0.003155
0.007566
0.002140
0.008129
0.004277
0.006827
0.000000
0.000000
0.000000
0.000000
0.003861
0.001109
0.001958
0.001770
0.001852
0.002362
0.001613
0.002719
0.001693
0.002503
0.000903
0.004358
0.001378
0.004429
0.002005
0.005771
0.004251
0.007138
0.000929
0.006563
0.004311
0.005286
0.004967
0.009392
0.000000
0.000000
0.000000
0.000000
0.004061
0.001410
0.001280
0.002640
0.001854
0.002589
0.001720
0.002284
0.001603
0.003162
0.001483
0.003361
0.002335
0.004277
0.003566
0.005959
0.001349
0.005826
0.003575
0.006414
0.002427
0.005926
0.003673
0.004632
0.000000
0.000000
0.000000
0.000000
0.003266
0.002040
0.001352
0.002304
0.001552
0.002034
0.001891
0.002278
0.001604
0.002565
0.001371
0.002956
0.001949
0.004198
0.000871
0.005024
0.003074
0.007023
0.000094
0.005255
0.002510
0.005112
0.002886
0.006136
0.000000
0.000000
0.000000
0.000000
0.003678
0.001425
0.001781
0.001780
0.001768
0.002278
0.001600
0.002753
0.001451
0.002860
0.001603
0.003233
0.000930
0.004465
0.002314
0.006285
0.002005
0.005151
0.003036
0.006948
0.001590
0.003998
0.002809
0.004479
0.000000
0.000000
0.000000
0.000000
0.004059
0.001342
0.001649
0.002272
0.001580
0.002719
0.001629
0.002659
0.001733
0.002127
0.001243
0.003373
0.001058
0.004262
0.002637
0.004287
0.001486
0.007051
0.001228
0.003824
0.001438
0.005799
0.001829
0.004029
0.000000
0.000000
0.000000
0.000000
0.002997
0.001757
0.001331
0.002397
0.001777
0.002335
0.001963
0.001536
0.001499
0.003227
0.001313
0.002732
0.002683
0.003758
0.000306
0.005668
0.003472
0.004615
0.001318
0.006957
0.001489
0.003428
0.001655
0.004530
0.000000
0.000000
0.000000
0.000000
0.003137
0.001710
0.001343
0.002063
0.001786
0.001389
0.001649
0.003109
0.001907
0.001884
0.002212
0.002603
0.000968
0.003567
0.003464
0.004142
0.000661
0.006207
0.002920
0.003862
0.000785
0.005519
0.000419
0.003074
0.000000
0.000000
0.000000
0.000000
0.003456
0.001305
0.001748
0.001444
0.001629
0.002897
0.002091
0.001648
0.002123
0.001857
0.001476
0.002570
0.002626
0.003442
0.000422
0.004630
0.003604
0.004804
0.001096
0.005420
0.002448
0.003644
0.000714
0.004225
0.000000
0.000000
0.000000
0.000000
0.003451
0.001013
0.001643
0.002470
0.001858
0.001644
0.001991
0.001475
0.001917
0.002348
0.001737
0.002359
0.000755
0.003097
0.002569
0.004671
0.001318
0.005118
0.003222
0.005013
0.000581
0.004220
0.000926
0.002866
0.000000
0.000000
0.000000
0.000000
0.002809
0.001751
0.001451
0.001542
0.002048
0.001320
0.002039
0.002518
0.001646
0.001336
0.001286
0.002366
0.001417
0.003608
0.001488
0.004007
0.002647
0.005478
0.001625
0.003966
0.002245
0.003889
0.000322
0.003738
0.000000
0.000000
0.000000
0.000000
0.002966
0.001014
0.001796
0.001258
0.001750
0.002451
0.001744
0.000861
0.001663
0.002034
0.001263
0.002292
0.001540
0.002688
0.001716
0.004642
0.002437
0.004478
0.002763
0.005692
0.000659
0.003436
0.001420
0.002916
0.000000
0.000000
0.000000
0.000000
0.003606
0.000777
0.001683
0.002153
0.001693
0.001029
0.001903
0.001971
0.001682
0.001256
0.001653
0.001744
0.000760
0.003283
0.002149
0.003937
0.001961
0.005593
0.002168
0.003429
0.002070
0.004026
0.000300
0.003238
0.000000
0.000000
0.000000
0.000000
0.002443
0.001514
0.001483
0.001042
0.001902
0.001724
0.001802
0.001235
0.001688
0.001229
0.001196
0.001948
0.001802
0.002719
0.001442
0.004152
0.003055
0.004177
0.002306
0.005499
0.001526
0.003414
0.001394
0.002999
0.000000
0.000000
0.000000
0.000000
0.002733
0.000740
0.001646
0.001408
0.001778
0.001532
0.001891
0.001151
0.001576
0.001389
0.001533
0.001593
0.000704
0.002755
0.002235
0.004172
0.001791
0.005300
0.002600
0.003635
0.001965
0.003796
0.000783
0.002787
0.000000
0.000000
0.000000
0.000000
0.003243
0.000936
0.001526
0.001587
0.001691
0.001074
0.001724
0.001470
0.001523
0.000978
0.001087
0.001623
0.001481
0.002936
0.001586
0.003695
0.003140
0.004181
0.002260
0.004785
0.001871
0.003439
0.001082
0.003039
0.000000
0.000000
0.000000
0.000000
0.002134
0.001035
0.001528
0.000929
0.001722
0.001590
0.001685
0.000983
0.001567
0.001245
0.001102
0.001630
0.001040
0.002447
0.002015
0.004224
0.002057
0.004943
0.002797
0.004125
0.001729
0.003335
0.001254
0.002442
0.000000
0.000000
0.000000
0.000000
0.002648
0.000715
0.001519
0.001428
0.001615
0.001106
0.001754
0.001147
0.001294
0.000896
0.001230
0.001472
0.001069
0.002844
0.001896
0.003619
0.002933
0.004299
0.002516
0.004057
0.001984
0.003345
0.000786
0.002946
0.000000
0.000000
0.000000
0.000000
0.002723
0.000863
0.001349
0.001120
0.001726
0.001143
0.001554
0.001111
0.001690
0.001013
0.000810
0.001378
0.001289
0.002510
0.001819
0.003912
0.002472
0.004669
0.002754
0.004452
0.001712
0.002999
0.001536
0.002283
0.000000
0.000000
0.000000
0.000000
0.001899
0.000813
0.001616
0.000955
0.001492
0.001265
0.001774
0.000813
0.001165
0.000601
0.001223
0.001558
0.000936
0.002492
0.002159
0.003819
0.002646
0.004277
0.002741
0.003677
0.002112
0.003256
0.000889
0.002672
0.000000
0.000000
0.000000
0.000000
0.002669
0.000478
0.001298
0.001153
0.001722
0.000994
0.001520
0.001031
0.001594
0.001001
0.000913
0.001035
0.001281
0.002657
0.001700
0.003578
0.002827
0.004437
0.002604
0.004330
0.001929
0.002909
0.001580
0.002271
0.000000
0.000000
0.000000
0.000000
0.002256
0.000930
0.001439
0.001004
0.001567
0.000979
0.001636
0.000729
0.001363
0.000339
0.000902
0.001603
0.001107
0.002242
0.002296
0.003805
0.002512
0.004255
0.002968
0.003653
0.002109
0.003058
0.001146
0.002324
0.000000
0.000000
0.000000
0.000000
0.001750
0.000418
0.001476
0.000653
0.001533
0.001022
0.001731
0.000965
0.001249
0.000872
0.001374
0.000920
0.001212
0.002652
0.001690
0.003544
0.002999
0.004101
0.002488
0.004008
0.002127
0.002867
0.001424
0.002231
0.000000
0.000000
0.000000
0.000000
0.003018
0.000386
0.001369
0.001091
0.001794
0.000956
0.001418
0.000465
0.001711
0.000121
0.000549
0.001292
0.001324
0.002168
0.002402
0.003578
0.002729
0.004390
0.003067
0.003580
0.001936
0.002837
0.001418