<?xml version='1.0' encoding='UTF-8'?>
<VTKFile xmlns='VTK' byte_order='LittleEndian' version='0.1' type='UnstructuredGrid'>
<UnstructuredGrid>
<Piece NumberOfCells='2512' NumberOfPoints='2512'>
<Points>
<DataArray NumberOfComponents='3' type='Float32' Name='Position' format='ascii'>
-0.075000 -0.075000 0.000000
-0.075000 -0.050000 0.000000
-0.075000 -0.025000 0.000000
-0.075000 0.000000 0.000000
-0.075000 0.025000 0.000000
-0.075000 0.050000 0.000000
-0.075000 0.075000 0.000000
-0.075000 0.100000 0.000000
-0.075000 0.125000 0.000000
-0.075000 0.150000 0.000000
-0.075000 0.175000 0.000000
-0.075000 0.200000 0.000000
-0.075000 0.225000 0.000000
-0.075000 0.250000 0.000000
-0.075000 0.275000 0.000000
-0.075000 0.300000 0.000000
-0.075000 0.325000 0.000000
-0.075000 0.350000 0.000000
-0.075000 0.375000 0.000000
-0.075000 0.400000 0.000000
-0.075000 0.425000 0.000000
-0.075000 0.450000 0.000000
-0.075000 0.475000 0.000000
-0.075000 0.500000 0.000000
-0.075000 0.525000 0.000000
-0.075000 0.550000 0.000000
-0.075000 0.575000 0.000000
-0.075000 0.600000 0.000000
-0.050000 -0.075000 0.000000
-0.050000 -0.050000 0.000000
-0.050000 -0.025000 0.000000
-0.050000 0.000000 0.000000
-0.050000 0.025000 0.000000
-0.050000 0.050000 0.000000
-0.050000 0.075000 0.000000
-0.050000 0.100000 0.000000
-0.050000 0.125000 0.000000
-0.050000 0.150000 0.000000
-0.050000 0.175000 0.000000
-0.050000 0.200000 0.000000
-0.050000 0.225000 0.000000
-0.050000 0.250000 0.000000
-0.050000 0.275000 0.000000
-0.050000 0.300000 0.000000
-0.050000 0.325000 0.000000
-0.050000 0.350000 0.000000
-0.050000 0.375000 0.000000
-0.050000 0.400000 0.000000
-0.050000 0.425000 0.000000
-0.050000 0.450000 0.000000
-0.050000 0.475000 0.000000
-0.050000 0.500000 0.000000
-0.050000 0.525000 0.000000
-0.050000 0.550000 0.000000
-0.050000 0.575000 0.000000
-0.050000 0.600000 0.000000
-0.025000 -0.075000 0.000000
-0.025000 -0.050000 0.000000
-0.025000 -0.025000 0.000000
-0.025000 0.000000 0.000000
-0.025000 0.025000 0.000000
-0.025000 0.050000 0.000000
-0.025000 0.075000 0.000000
-0.025000 0.100000 0.000000
-0.025000 0.125000 0.000000
-0.025000 0.150000 0.000000
-0.025000 0.175000 0.000000
-0.025000 0.200000 0.000000
-0.025000 0.225000 0.000000
-0.025000 0.250000 0.000000
-0.025000 0.275000 0.000000
-0.025000 0.300000 0.000000
-0.025000 0.325000 0.000000
-0.025000 0.350000 0.000000
-0.025000 0.375000 0.000000
-0.025000 0.400000 0.000000
-0.025000 0.425000 0.000000
-0.025000 0.450000 0.000000
-0.025000 0.475000 0.000000
-0.025000 0.500000 0.000000
-0.025000 0.525000 0.000000
-0.025000 0.550000 0.000000
-0.025000 0.575000 0.000000
-0.025000 0.600000 0.000000
0.000000 -0.075000 0.000000
0.000000 -0.050000 0.000000
0.000000 -0.025000 0.000000
0.000000 0.000000 0.000000
0.000000 0.025000 0.000000
0.000000 0.050000 0.000000
0.000000 0.075000 0.000000
0.000000 0.100000 0.000000
0.000000 0.125000 0.000000
0.000000 0.150000 0.000000
0.000000 0.175000 0.000000
0.000000 0.200000 0.000000
0.000000 0.225000 0.000000
0.000000 0.250000 0.000000
0.000000 0.275000 0.000000
0.000000 0.300000 0.000000
0.000000 0.325000 0.000000
0.000000 0.350000 0.000000
0.000000 0.375000 0.000000
0.000000 0.400000 0.000000
0.000000 0.425000 0.000000
0.000000 0.450000 0.000000
0.000000 0.475000 0.000000
0.000000 0.500000 0.000000
0.000000 0.525000 0.000000
0.000000 0.550000 0.000000
0.000000 0.575000 0.000000
0.000000 0.600000 0.000000
0.025000 -0.075000 0.000000
0.025000 -0.050000 0.000000
0.025000 -0.025000 0.000000
0.025000 0.000000 0.000000
0.025004 0.023584 0.000000
0.024397 0.049876 0.000000
0.027163 0.075609 0.000000
0.023945 0.098542 0.000000
0.025580 0.125394 0.000000
0.024706 0.148624 0.000000
0.024469 0.175974 0.000000
0.025878 0.199924 0.000000
0.023966 0.225692 0.000000
0.025299 0.250294 0.000000
0.024615 0.275855 0.000000
0.024851 0.300332 0.000000
0.025403 0.326969 0.000000
0.024487 0.351184 0.000000
0.024944 0.379423 0.000000
0.024267 0.405160 0.000000
0.022912 0.434109 0.000000
0.023061 0.464880 0.000000
0.024641 0.493995 0.000000
0.024587 0.522992 0.000000
0.021687 0.557987 0.000000
0.034679 0.596077 0.000000
0.054475 0.600000 0.000000
0.013628 0.600000 0.000000
0.585000 0.625000 0.000000
0.585000 0.650000 0.000000
0.585000 0.675000 0.000000
0.050000 -0.075000 0.000000
0.050000 -0.050000 0.000000
0.050000 -0.025000 0.000000
0.050000 0.000000 0.000000
0.054602 0.024109 0.000000
0.045699 0.048285 0.000000
0.050447 0.080300 0.000000
0.049248 0.103923 0.000000
0.048258 0.136375 0.000000
0.049222 0.162066 0.000000
0.049399 0.189671 0.000000
0.050679 0.213912 0.000000
0.050597 0.238995 0.000000
0.049970 0.262940 0.000000
0.049734 0.287175 0.000000
0.048814 0.314646 0.000000
0.048886 0.338839 0.000000
0.047932 0.364912 0.000000
0.047326 0.390349 0.000000
0.047336 0.416573 0.000000
0.045401 0.441010 0.000000
0.044987 0.468379 0.000000
0.045599 0.491640 0.000000
0.045894 0.519085 0.000000
0.037175 0.546966 0.000000
0.051413 0.579326 0.000000
0.073877 0.568552 0.000000
0.070769 0.600000 0.000000
0.610000 0.625000 0.000000
0.610000 0.650000 0.000000
0.610000 0.675000 0.000000
0.075000 -0.075000 0.000000
0.075000 -0.050000 0.000000
0.075000 -0.025000 0.000000
0.075000 0.000000 0.000000
0.082073 0.025098 0.000000
0.068986 0.043233 0.000000
0.073932 0.074135 0.000000
0.073784 0.099310 0.000000
0.067542 0.123623 0.000000
0.078500 0.148241 0.000000
0.068275 0.172930 0.000000
0.079523 0.200200 0.000000
0.071962 0.224259 0.000000
0.077538 0.251891 0.000000
0.075569 0.275485 0.000000
0.071549 0.302046 0.000000
0.076252 0.325275 0.000000
0.072974 0.353570 0.000000
0.071867 0.377214 0.000000
0.073396 0.404738 0.000000
0.069919 0.428098 0.000000
0.069820 0.455037 0.000000
0.075885 0.476905 0.000000
0.076182 0.499044 0.000000
0.068179 0.524492 0.000000
0.062453 0.547222 0.000000
0.098152 0.563461 0.000000
0.091656 0.600000 0.000000
0.635000 0.625000 0.000000
0.635000 0.650000 0.000000
0.635000 0.675000 0.000000
0.100000 -0.075000 0.000000
0.100000 -0.050000 0.000000
0.100000 -0.025000 0.000000
0.100000 0.000000 0.000000
0.109249 0.023484 0.000000
0.091211 0.059634 0.000000
0.100789 0.082632 0.000000
0.099714 0.107241 0.000000
0.094156 0.132415 0.000000
0.100615 0.159528 0.000000
0.095179 0.182906 0.000000
0.100823 0.209887 0.000000
0.098381 0.234421 0.000000
0.100106 0.261942 0.000000
0.098288 0.288885 0.000000
0.098213 0.314861 0.000000
0.097726 0.339778 0.000000
0.096731 0.367146 0.000000
0.096509 0.389190 0.000000
0.098619 0.418554 0.000000
0.094648 0.438671 0.000000
0.096760 0.467456 0.000000
0.103802 0.491245 0.000000
0.097016 0.516276 0.000000
0.088755 0.540219 0.000000
0.114060 0.550172 0.000000
0.118457 0.581975 0.000000
0.106192 0.600000 0.000000
0.660000 0.625000 0.000000
0.660000 0.650000 0.000000
0.660000 0.675000 0.000000
0.125000 -0.075000 0.000000
0.125000 -0.050000 0.000000
0.125000 -0.025000 0.000000
0.125000 0.000000 0.000000
0.134534 0.027435 0.000000
0.111377 0.045773 0.000000
0.122428 0.072967 0.000000
0.127216 0.098262 0.000000
0.117811 0.121949 0.000000
0.128145 0.148184 0.000000
0.119484 0.171751 0.000000
0.127085 0.198129 0.000000
0.123045 0.223456 0.000000
0.122755 0.247717 0.000000
0.123207 0.273601 0.000000
0.120801 0.300591 0.000000
0.125814 0.323366 0.000000
0.119033 0.354063 0.000000
0.127893 0.373534 0.000000
0.117851 0.403678 0.000000
0.129371 0.421923 0.000000
0.118537 0.451431 0.000000
0.128401 0.469958 0.000000
0.118547 0.510815 0.000000
0.130143 0.535002 0.000000
0.142127 0.554334 0.000000
0.152935 0.578133 0.000000
0.133421 0.600000 0.000000
0.685000 0.625000 0.000000
0.685000 0.650000 0.000000
0.685000 0.675000 0.000000
0.150000 -0.075000 0.000000
0.150000 -0.050000 0.000000
0.150000 -0.025000 0.000000
0.150000 0.000000 0.000000
0.158228 0.023646 0.000000
0.137200 0.052970 0.000000
0.150282 0.081836 0.000000
0.150609 0.103769 0.000000
0.142940 0.132511 0.000000
0.152823 0.155553 0.000000
0.145116 0.184586 0.000000
0.150835 0.207177 0.000000
0.147521 0.237518 0.000000
0.148946 0.260681 0.000000
0.145353 0.287998 0.000000
0.150665 0.310473 0.000000
0.141137 0.340412 0.000000
0.154614 0.358936 0.000000
0.142469 0.391003 0.000000
0.155672 0.411814 0.000000
0.142340 0.441844 0.000000
0.158369 0.462687 0.000000
0.134360 0.490675 0.000000
0.157652 0.499596 0.000000
0.151562 0.518097 0.000000
0.162965 0.546028 0.000000
0.173231 0.597802 0.000000
0.147802 0.600000 0.000000
0.710000 0.625000 0.000000
0.710000 0.650000 0.000000
0.710000 0.675000 0.000000
0.175000 -0.075000 0.000000
0.175000 -0.050000 0.000000
0.175000 -0.025000 0.000000
0.175000 0.000000 0.000000
0.185905 0.024838 0.000000
0.160036 0.048754 0.000000
0.172069 0.071942 0.000000
0.178471 0.096731 0.000000
0.167071 0.122157 0.000000
0.179389 0.147826 0.000000
0.167483 0.171741 0.000000
0.178881 0.199343 0.000000
0.168468 0.222736 0.000000
0.175090 0.249005 0.000000
0.168962 0.275006 0.000000
0.175053 0.302631 0.000000
0.167579 0.328367 0.000000
0.177616 0.354384 0.000000
0.165129 0.383836 0.000000
0.179771 0.402617 0.000000
0.164696 0.435711 0.000000
0.184794 0.447265 0.000000
0.171519 0.478759 0.000000
0.191272 0.496004 0.000000
0.175466 0.524024 0.000000
0.194182 0.549468 0.000000
0.175183 0.567043 0.000000
0.188273 0.600000 0.000000
0.735000 0.625000 0.000000
0.735000 0.650000 0.000000
0.735000 0.675000 0.000000
0.200000 -0.075000 0.000000
0.200000 -0.050000 0.000000
0.200000 -0.025000 0.000000
0.200000 0.000000 0.000000
0.209853 0.024597 0.000000
0.185329 0.049229 0.000000
0.199627 0.076680 0.000000
0.201351 0.100703 0.000000
0.191309 0.127088 0.000000
0.202587 0.151603 0.000000
0.192560 0.180213 0.000000
0.201852 0.203087 0.000000
0.192322 0.233788 0.000000
0.202211 0.255949 0.000000
0.191352 0.281855 0.000000
0.200341 0.304725 0.000000
0.190597 0.329170 0.000000
0.204317 0.353666 0.000000
0.189848 0.375212 0.000000
0.211297 0.400817 0.000000
0.192757 0.420530 0.000000
0.214615 0.451364 0.000000
0.196307 0.467763 0.000000
0.208168 0.502422 0.000000
0.198809 0.529768 0.000000
0.217902 0.549839 0.000000
[...]
<PointData>
<DataArray NumberOfComponents='1' type='Int32' Name='ParticleType' format='ascii'>
3
3
3
3
3
3
3
3
3
3
3
3
3
3
3
3
3
3
3
3
3
3
3
3
3
3
3
3
3
3
3
3
3
3
3
3
3
3
3
3
3
3
3
3
3
3
3
3
3
3
3
3
3
3
3
3
3
3
2
2
2
2
2
2
2
2
2
2
2
2
2
2
2
2
2
2
2
2
2
2
2
2
2
2
3
3
2
2
2
2
2
2
2
2
2
2
2
2
2
2
2
2
2
2
2
2
2
2
2
2
2
2
3
3
2
2
0
0
0
0
0
0
0
0
0
0
0
0
0
0
0
0
0
0
0
0
0
0
0
0
1
1
1
3
3
2
2
0
0
0
0
0
0
0
0
0
0
0
0
0
0
0
0
0
0
0
0
0
0
0
0
1
1
1
3
3
2
2
0
0
0
0
0
0
0
0
0
0
0
0
0
0
0
0
0
0
0
0
0
0
0
0
1
1
1
3
3
2
2
0
0
0
0
0
0
0
0
0
0
0
0
0
0
0
0
0
0
0
0
0
0
0
0
1
1
1
3
3
2
2
0
0
0
0
0
0
0
0
0
0
0
0
0
0
0
0
0
0
0
0
0
0
0
0
1
1
1
3
3
2
2
0
0
0
0
0
0
0
0
0
0
0
0
0
0
0
0
0
0
0
0
0
0
0
0
1
1
1
3
3
2
2
0
0
0
0
0
0
0
0
0
0
0
0
0
0
0
0
0
0
0
0
0
0
0
0
1
1
1
3
3
2
2
0
0
0
0
0
0
0
0
0
0
0
0
0
0
0
0
0
0
0
0
0
0
0
0
1
1
1
3
3
2
2
0
0
0
0
0
0
0
0
0
0
0
0
0
0
0
0
0
0
0
0
0
0
0
0
1
1
1
3
3
2
2
0
0
0
0
0
0
0
0
0
0
0
0
0
0
0
0
0
0
0
0
0
0
0
0
1
1
1
3
3
2
2
0
0
0
0
0
0
0
0
0
0
0
0
0
0
0
0
0
0
0
0
0
0
0
0
1
1
1
3
3
2
2
0
0
0
0
0
0
0
0
0
0
0
0
0
0
0
0
0
0
0
0
0
0
0
0
1
1
1
3
3
2
2
0
0
0
0
0
0
0
0
0
0
0
0
0
0
0
0
0
0
0
0
0
0
0
0
1
1
1
3
3
2
2
0
0
0
0
0
0
0
0
0
0
0
0
0
0
0
0
0
0
0
0
0
0
0
0
1
1
1
3
3
2
2
0
0
0
0
0
0
0
0
0
0
0
0
0
0
0
0
0
0
0
0
0
0
0
0
1
1
1
3
3
2
2
0
0
0
0
0
0
0
0
0
0
0
0
0
0
0
0
0
0
0
0
0
0
0
0
1
1
1
3
3
2
2
0
0
0
0
0
0
0
0
0
0
0
0
0
0
0
0
0
0
0
0
0
0
0
0
3
3
2
2
0
0
0
0
0
0
0
0
0
0
0
0
0
0
0
0
0
0
0
0
0
0
0
0
3
3
2
2
0
0
0
0
0
0
0
0
0
0
0
0
0
0
0
0
0
0
0
0
0
0
0
0
3
3
2
2
0
0
0
0
0
0
0
0
0
0
0
0
0
0
0
0
0
0
0
0
0
0
0
0
3
3
2
2
0
0
0
0
0
0
0
0
0
0
0
0
0
0
0
0
0
0
0
0
0
0
0
0
3
3
2
2
0
0
0
0
0
0
0
0
0
0
0
0
0
0
0
0
0
0
0
0
0
0
0
0
3
3
2
2
0
0
0
0
0
0
0
0
0
0
0
0
0
0
0
0
0
0
0
0
0
0
0
0
3
3
2
2
0
0
0
0
0
0
0
0
0
0
0
0
0
0
0
0
0
0
0
0
0
0
0
0
3
3
2
2
0
0
0
0
0
0
0
0
0
0
0
0
0
0
0
0
0
0
0
0
0
0
0
0
3
3
2
2
0
0
0
0
0
0
0
0
0
0
0
0
0
0
0
0
0
0
0
0
0
0
0
0
3
3
2
2
0
0
0
0
0
0
0
0
0
0
0
0
0
0
0
0
0
0
0
0
0
0
0
0
3
3
2
2
0
0
0
0
0
0
0
0
0
0
0
0
0
0
0
0
0
0
0
0
0
0
0
0
3
3
2
2
0
0
0
0
0
0
0
0
0
0
0
0
0
0
0
0
0
0
0
0
0
0
0
0
3
3
2
2
0
0
0
0
0
0
0
0
0
0
0
0
0
0
0
0
0
0
0
0
0
0
0
0
3
3
2
2
0
0
0
0
0
0
0
0
0
0
0
0
0
0
0
0
0
0
0
0
0
0
0
0
3
3
2
2
0
0
0
0
0
0
0
0
0
0
0
0
0
0
0
0
0
0
0
0
0
0
0
0
3
3
2
2
0
0
0
0
0
0
0
0
0
0
0
0
0
0
0
0
0
0
0
0
0
0
0
0
3
3
2
2
0
0
0
0
0
0
0
0
0
0
0
0
0
0
0
0
0
0
0
0
0
0
0
0
3
3
2
2
0
0
0
0
0
0
0
0
0
0
0
0
0
0
0
0
0
0
0
0
0
0
0
0
3
3
2
2
0
0
0
0
0
0
0
0
0
0
0
0
0
0
0
0
0
0
0
0
0
0
0
0
3
3
2
2
0
0
0
0
0
0
0
0
0
0
0
0
0
0
0
0
0
0
0
0
0
0
0
0
3
3
2
2
0
0
0
0
0
0
0
0
0
0
0
0
0
0
0
0
0
0
0
0
0
0
0
0
3
3
2
2
0
0
0
0
0
0
0
0
0
0
0
0
0
0
0
0
0
0
0
0
0
0
0
0
3
3
2
2
0
0
0
0
0
0
0
0
0
0
0
0
0
0
0
0
0
0
0
0
0
0
0
0
3
3
2
2
0
0
0
0
0
0
0
0
0
0
0
0
0
0
0
0
0
0
0
0
0
0
0
0
3
3
2
2
0
0
0
0
0
0
0
0
0
0
0
0
0
0
0
0
0
0
0
0
0
0
0
0
3
3
2
2
0
0
0
0
0
0
0
0
0
0
0
0
0
0
0
0
0
0
0
0
0
0
0
0
3
3
2
2
0
0
0
0
0
0
0
0
0
0
0
0
0
0
0
0
0
0
0
0
0
0
0
0
3
3
2
2
0
0
0
0
0
0
0
0
0
0
0
0
0
0
0
0
0
0
0
0
0
0
0
0
3
3
2
2
0
0
0
0
0
0
0
0
0
0
0
0
0
0
0
0
0
0
0
0
0
0
0
0
3
3
2
2
0
0
0
0
0
0
0
0
0
0
0
0
0
0
0
0
0
0
0
0
0
0
0
0
3
3
2
2
0
0
0
0
0
0
0
0
0
0
0
0
0
0
0
0
0
0
0
0
0
0
0
0
3
3
2
2
0
0
0
0
0
0
0
0
0
0
0
0
0
0
0
0
0
0
0
0
0
0
0
0
3
3
2
2
0
0
0
0
0
0
0
0
0
0
0
0
0
0
0
0
0
0
0
0
0
0
0
0
3
3
2
2
0
0
0
0
0
0
0
0
0
0
0
0
0
0
0
0
0
0
0
0
0
0
0
0
3
3
2
2
0
0
0
0
0
0
0
0
0
0
0
0
0
0
0
0
0
0
0
0
0
0
0
0
3
3
2
2
0
0
0
0
0
0
0
0
0
0
0
0
0
0
0
0
0
0
0
0
0
0
0
0
3
3
2
2
0
0
0
0
0
0
0
0
0
0
0
0
0
0
0
0
0
0
0
0
0
0
0
0
3
3
2
2
0
0
0
0
0
0
0
0
0
0
0
0
0
0
0
0
0
0
0
0
0
0
0
0
3
3
2
2
0
0
0
0
0
0
0
0
0
0
0
0
0
0
0
0
0
0
0
0
0
0
0
0
3
3
2
2
0
0
0
0
0
0
0
0
0
0
0
0
0
0
0
0
0
0
0
0
0
0
0
0
3
3
2
2
0
0
0
0
0
0
0
0
0
0
0
0
0
0
0
0
0
0
0
0
0
0
0
0
3
3
2
2
0
0
0
0
0
0
0
0
0
0
0
0
0
0
0
0
0
0
0
0
0
0
0
0
3
3
2
2
0
0
0
0
0
0
0
0
0
0
0
0
0
0
0
0
0
0
0
0
0
0
0
0
3
3
2
2
0
0
0
0
0
0
0
0
0
0
0
0
0
0
0
0
0
0
0
0
0
0
0
0
3
3
2
2
0
0
0
0
0
0
0
0
0
0
0
0
0
0
0
0
0
0
0
0
0
0
0
0
3
3
2
2
0
0
0
0
0
0
0
0
0
0
0
0
0
0
0
0
0
0
0
0
0
0
0
0
3
3
2
2
0
0
0
0
0
0
0
0
0
0
0
0
0
0
0
0
0
0
0
0
0
0
0
0
3
3
2
2
0
0
0
0
0
0
0
0
0
0
0
0
0
0
0
0
0
0
0
0
0
0
0
0
3
3
2
2
0
0
0
0
0
0
0
0
0
0
0
0
0
0
0
0
0
0
0
0
0
0
0
0
3
3
2
2
0
0
0
0
0
0
0
0
0
0
0
0
0
0
0
0
0
0
0
0
0
0
0
0
3
3
2
2
0
0
0
0
0
0
0
0
0
0
0
0
0
0
0
0
0
0
0
0
0
0
0
0
3
3
2
2
0
0
0
0
0
0
0
0
0
0
0
0
0
0
0
0
0
0
0
0
0
0
0
0
3
3
2
2
0
0
0
0
0
0
0
0
0
0
0
0
0
0
0
0
0
0
0
0
0
0
0
0
3
3
2
2
0
0
0
0
0
0
0
0
0
0
0
0
0
0
0
0
0
0
0
0
0
0
0
0
3
3
2
2
0
0
0
0
0
0
0
0
0
0
0
0
0
0
0
0
0
0
0
0
0
0
0
0
3
3
2
2
0
0
0
0
0
0
0
0
0
0
0
0
0
0
0
0
0
0
0
0
0
0
0
0
3
3
2
2
0
0
0
0
0
0
0
0
0
0
0
0
0
0
0
0
0
0
0
0
0
0
0
0
3
3
2
2
0
0
0
0
0
0
0
0
0
0
0
0
0
0
0
0
0
0
0
0
0
0
0
0
3
3
2
2
0
0
0
0
0
0
0
0
0
0
0
0
0
0
0
0
0
0
0
0
0
0
0
0
3
3
2
2
0
0
0
0
0
0
0
0
0
0
0
0
0
0
0
0
0
0
0
0
0
0
0
0
3
3
2
2
0
0
0
0
0
0
0
0
0
0
0
0
0
0
0
0
0
0
0
0
0
0
0
0
3
3
2
2
0
0
0
0
0
0
0
0
0
0
0
0
0
0
0
0
0
0
0
0
0
0
0
0
3
3
2
2
0
0
0
0
0
0
0
0
0
0
0
0
0
0
0
0
0
0
0
0
0
0
0
0
3
3
2
2
2
2
2
2
2
2
2
2
2
2
2
2
2
2
2
2
2
2
2
2
2
2
2
2
3
3
2
2
2
2
2
2
2
2
2
2
2
2
2
2
2
2
2
2
2
2
2
2
2
2
2
2
3
3
3
3
3
3
3
3
3
3
3
3
3
3
3
3
3
3
3
3
3
3
3
3
3
3
3
3
3
3
3
3
3
3
3
3
3
3
3
3
3
3
3
3
3
3
3
3
3
3
3
3
3
3
3
3
</DataArray>
<DataArray NumberOfComponents='1' type='Float32' Name='Velocity' format='ascii'>
0.000000
0.000000
0.000000
0.000000
0.000000
0.000000
0.000000
0.000000
0.000000
0.000000
0.000000
0.000000
0.000000
0.000000
0.000000
0.000000
0.000000
0.000000
0.000000
0.000000
0.000000
0.000000
0.000000
0.000000
0.000000
0.000000
0.000000
0.000000
0.000000
0.000000
0.000000
0.000000
0.000000
0.000000
0.000000
0.000000
0.000000
0.000000
0.000000
0.000000
0.000000
0.000000
0.000000
0.000000
0.000000
0.000000
0.000000
0.000000
0.000000
0.000000
0.000000
0.000000
0.000000
0.000000
0.000000
0.000000
0.000000
0.000000
0.000000
0.000000
0.000000
0.000000
0.000000
0.000000
0.000000
0.000000
0.000000
0.000000
0.000000
0.000000
0.000000
0.000000
0.000000
0.000000
0.000000
0.000000
0.000000
0.000000
0.000000
0.000000
0.000000
0.000000
0.000000
0.000000
0.000000
0.000000
0.000000
0.000000
0.000000
0.000000
0.000000
0.000000
0.000000
0.000000
0.000000
0.000000
0.000000
0.000000
0.000000
0.000000
0.000000
0.000000
0.000000
0.000000
0.000000
0.000000
0.000000
0.000000
0.000000
0.000000
0.000000
0.000000
0.000000
0.000000
0.000000
0.000000
0.040948
0.057834
0.043256
0.022690
0.041642
0.069606
0.045614
0.076760
0.058374
0.028597
0.027060
0.002097
0.016440
0.051659
0.029478
0.095911
0.026886
0.096431
0.056033
0.179469
0.188905
0.527255
0.464124
3.022350
1.000000
1.000000
1.000000
0.000000
0.000000
0.000000
0.000000
0.026586
0.015205
0.118653
0.032592
0.067494
0.132942
0.080295
0.070883
0.039671
0.058427
0.051313
0.114652
0.131828
0.114724
0.136639
0.168592
0.190083
0.222731
0.129162
0.135066
0.241915
0.410820
0.157691
1.552447
1.000000
1.000000
1.000000
0.000000
0.000000
0.000000
0.000000
0.067935
0.182627
0.150650
0.099163
0.082942
0.093701
0.037745
0.107219
0.150038
0.156675
0.119590
0.176958
0.155514
0.149029
0.265813
0.109531
0.224245
0.085118
0.199472
0.083766
0.137671
0.313363
0.211539
0.138866
1.000000
1.000000
1.000000
0.000000
0.000000
0.000000
0.000000
0.133210
0.202120
0.079612
0.134088
0.135582
0.047242
0.036423
0.050537
0.006435
0.043020
0.068097
0.082491
0.031330
0.061058
0.032767
0.046436
0.105758
0.049396
0.064093
0.045403
0.266453
0.127711
0.226141
1.990582
1.000000
1.000000
1.000000
0.000000
0.000000
0.000000
0.000000
0.083822
0.163906
0.094372
0.023860
0.048921
0.074094
0.052053
0.063796
0.106273
0.107875
0.057294
0.155584
0.092835
0.118773
0.053148
0.153711
0.088863
0.074701
0.073110
0.207245
0.211919
0.166375
0.380748
0.977970
1.000000
1.000000
1.000000
0.000000
0.000000
0.000000
0.000000
0.030755
0.097073
0.042465
0.047367
0.106015
0.051081
0.013241
0.025148
0.012944
0.092002
0.063146
0.069639
0.089032
0.111497
0.041276
0.112218
0.025343
0.196973
0.135472
0.157834
0.264816
0.138819
0.388389
1.622013
1.000000
1.000000
1.000000
0.000000
0.000000
0.000000
0.000000
0.102554
0.108961
0.078134
0.056660
0.040589
0.059845
0.037090
0.058389
0.031565
0.115234
0.071201
0.186675
0.147404
0.183917
0.286872
0.065375
0.251300
0.152073
0.149408
0.106301
0.176844
0.243811
0.168050
1.066965
1.000000
1.000000
1.000000
0.000000
0.000000
0.000000
0.000000
0.069718
0.122933
0.002508
0.061017
0.113285
0.044109
0.147919
0.102153
0.204385
0.108758
0.126615
0.074150
0.045982
0.164702
0.067642
0.109722
0.066903
0.033189
0.030350
0.126703
0.173349
0.076266
0.097355
2.239483
1.000000
1.000000
1.000000
0.000000
0.000000
0.000000
0.000000
0.098477
0.170443
0.046131
0.085515
0.081114
0.066468
0.082566
0.061278
0.089699
0.115439
0.035374
0.086665
0.063898
0.101118
0.066120
0.094413
0.035907
0.087964
0.157920
0.119288
0.101900
0.107661
0.270678
0.652777
1.000000
1.000000
1.000000
0.000000
0.000000
0.000000
0.000000
0.087805
0.156734
0.049406
0.023943
0.177511
0.021182
0.093679
0.069523
0.074974
0.038811
0.107962
0.054109
0.131046
0.041071
0.025709
0.073313
0.061930
0.036638
0.121219
0.080562
0.096501
0.139871
0.093695
1.009481
1.000000
1.000000
1.000000
0.000000
0.000000
0.000000
0.000000
0.108658
0.159933
0.054574
0.096413
0.059047
0.044790
0.080456
0.050111
0.100577
0.062193
0.033554
0.062035
0.052043
0.045527
0.059387
0.074129
0.048453
0.016773
0.086532
0.056939
0.082832
0.040578
0.090101
0.578999
1.000000
1.000000
1.000000
0.000000
0.000000
0.000000
0.000000
0.098216
0.104468
0.105139
0.015805
0.124682
0.078113
0.086359
0.094004
0.064774
0.048571
0.105075
0.067162
0.109178
0.107606
0.053877
0.047203
0.101270
0.013494
0.089750
0.031771
0.060042
0.236713
0.298722
0.937364
1.000000
1.000000
1.000000
0.000000
0.000000
0.000000
0.000000
0.090675
0.178143
0.029279
0.079579
0.056968
0.019417
0.119094
0.027000
0.096662
0.049056
0.030952
0.039651
0.012803
0.050418
0.045429
0.063625
0.078444
0.099726
0.018243
0.053034
0.076906
0.130687
0.078854
0.351897
1.000000
1.000000
1.000000
0.000000
0.000000
0.000000
0.000000
0.093751
0.060006
0.120101
0.016148
0.062860
0.090723
0.035350
0.050200
0.060362
0.063847
0.087963
0.058816
0.042079
0.110370
0.006729
0.064468
0.019650
0.034336
0.020942
0.147698
0.124488
0.115027
0.121800
0.608561
1.000000
1.000000
1.000000
0.000000
0.000000
0.000000
0.000000
0.044205
0.086130
0.039391
0.109249
0.081496
0.125818
0.095691
0.090694
0.065555
0.035942
0.011215
0.064279
0.077647
0.150890
0.039201
0.119884
0.033259
0.098198
0.115203
0.152321
0.093389
0.153162
0.128672
1.207487
1.000000
1.000000
1.000000
0.000000
0.000000
0.000000
0.000000
0.050196
0.041401
0.097198
0.051034
0.131615
0.106412
0.070275
0.051849
0.085236
0.079397
0.094681
0.061633
0.091241
0.012417
0.079347
0.156189
0.078203
0.158386
0.073010
0.165804
0.062193
0.028053
0.329158
0.877588
1.000000
1.000000
1.000000
0.000000
0.000000
0.000000
0.000000
0.071788
0.081711
0.003509
0.089776
0.133876
0.104540
0.072341
0.071644
0.082875
0.098934
0.076496
0.149661
0.147815
0.191587
0.187819
0.155778
0.080526
0.100797
0.073544
0.130880
0.137150
0.178815
0.047068
0.999989
0.000000
0.000000
0.000000
0.000000
0.040029
0.039225
0.087653
0.066509
0.121926
0.108584
0.100449
0.060185
0.088820
0.111053
0.116837
0.087044
0.110638
0.118809
0.052259
0.106869
0.118252
0.136502
0.011174
0.087647
0.192142
0.166381
0.180586
2.322864
0.000000
0.000000
0.000000
0.000000
0.103586
0.121419
0.039690
0.028824
0.087670
0.120032
0.103747
0.092396
0.086479
0.111009
0.120681
0.114610
0.167723
0.150421
0.073310
0.044306
0.071083
0.155167
0.019705
0.070000
0.187156
0.138398
0.414412
0.530440
0.000000
0.000000
0.000000
0.000000
0.097787
0.093773
0.103168
0.079133
0.111346
0.104396
0.124118
0.076771
0.052634
0.037844
0.111285
0.009527
0.075930
0.083188
0.079676
0.035218
0.021121
0.181003
0.076176
0.002477
0.213679
0.181354
0.157300
8.608352
0.000000
0.000000
0.000000
0.000000
0.068924
0.090086
0.063804
0.030157
0.079264
0.073345
0.138650
0.056497
0.091901
0.046810
0.107461
0.062643
0.112091
0.139630
0.088162
0.049091
0.082557
0.142045
0.089686
0.094228
0.158061
0.048349
0.245140
0.697553
0.000000
0.000000
0.000000
0.000000
0.079854
0.094030
0.103077
0.076604
0.077741
0.051918
0.124049
0.027944
0.089585
0.040131
0.075632
0.010979
0.016233
0.065188
0.018179
0.028326
0.035351
0.111614
0.175563
0.087036
0.060636
0.180656
0.379095
0.700898
0.000000
0.000000
0.000000
0.000000
0.020587
0.075451
0.037914
0.044166
0.110408
0.029266
0.141917
0.041411
0.103435
0.009917
0.102079
0.017621
0.106400
0.010892
0.169926
0.010604
0.126209
0.015395
0.106110
0.061457
0.074879
0.142352
0.130303
1.028569
0.000000
0.000000
0.000000
0.000000
0.115126
0.081521
0.072286
0.095714
0.048579
0.019239
0.109196
0.028221
0.052467
0.017081
0.075401
0.027945
0.087917
0.024042
0.071858
0.061955
0.006623
0.056584
0.069835
0.043998
0.059775
0.119120
0.039522
0.309237
0.000000
0.000000
0.000000
0.000000
0.017563
0.056946
0.011323
0.015621
0.104925
0.023877
0.090502
0.046544
0.086130
0.028073
0.069318
0.061535
0.071060
0.060806
0.010734
0.036451
0.032242
0.055450
0.077654
0.049852
0.152040
0.036002
0.185722
0.071376
0.000000
0.000000
0.000000
0.000000
0.108923
0.066909
0.039180
0.108509
0.079208
0.032754
0.124418
0.015108
0.086703
0.028528
0.075058
0.027635
0.036556
0.074351
0.046578
0.112863
0.035405
0.028192
0.080529
0.093577
0.158146
0.050885
0.138487
0.072039
0.000000
0.000000
0.000000
0.000000
0.042183
0.055177
0.035696
0.003021
0.120277
0.040233
0.109371
0.045542
0.103846
0.037509
0.099197
0.068365
0.069868
0.085354
0.026712
0.082758
0.047461
0.131138
0.079913
0.062450
0.138733
0.079027
0.065690
0.230839
0.000000
0.000000
0.000000
0.000000
0.078252
0.078886
0.029298
0.067217
0.101673
0.046844
0.087347
0.019023
0.084323
0.043618
0.072298
0.050694
0.057064
0.033404
0.030114
0.054897
0.055251
0.050049
0.071841
0.066082
0.047918
0.084639
0.053444
0.787962
0.000000
0.000000
0.000000
0.000000
0.075181
0.063385
0.035946
0.030329
0.112226
0.060259
0.106764
0.048712
0.100596
0.040054
0.085160
0.012096
0.021999
0.037877
0.049644
0.035540
0.067289
0.016613
0.067451
0.100501
0.088420
0.074427
0.061750
1.091791
0.000000
0.000000
0.000000
0.000000
0.056662
0.072040
0.047874
0.021614
0.115819
0.041259
0.099002
0.027567
0.096096
0.033724
0.078384
0.071151
0.065137
0.042537
0.001464
0.010316
0.007153
0.069372
0.022468
0.037375
0.122743
0.092960
0.048898
0.411336
0.000000
0.000000
0.000000
0.000000
0.093499
0.060650
0.052246
0.037018
0.079078
0.054220
0.100250
0.041987
0.107100
0.051469
0.121578
0.033920
0.102885
0.053936
0.101916
0.061479
0.050081
0.047038
0.040783
0.076174
0.048373
0.120473
0.095485
0.472612
0.000000
0.000000
0.000000
0.000000
0.051464
0.056252
0.063745
0.018807
0.120139
0.051330
0.088065
0.039211
0.088449
0.035577
0.075879
0.044011
0.073102
0.044796
0.044950
0.070662
0.032895
0.146516
0.040064
0.086630
0.099155
0.107457
0.118654
0.287880
0.000000
0.000000
0.000000
0.000000
0.098592
0.048117
0.059299
0.035269
0.073679
0.053917
0.099162
0.040596
0.086233
0.032880
0.072419
0.021969
0.059938
0.035293
0.029618
0.072985
0.044160
0.136881
0.099916
0.135626
0.052882
0.068651
0.091210
0.184219
0.000000
0.000000
0.000000
0.000000
0.062169
0.037271
0.087229
0.022731
0.107050
0.052825
0.076703
0.037605
0.083813
0.035496
0.082378
0.033342
0.038602
0.044823
0.035335
0.034665
0.049474
0.015592
0.092853
0.017809
0.123196
0.024435
0.080278
0.096825
0.000000
0.000000
0.000000
0.000000
0.088899
0.031172
0.064401
0.022110
0.069569
0.060095
0.090722
0.043483
0.087718
0.034372
0.081818
0.037242
0.091359
0.015808
0.051893
0.024000
0.011040
0.031156
0.045750
0.033274
0.031854
0.030005
0.126115
0.047895
0.000000
0.000000
0.000000
0.000000
0.081027
0.020524
0.092429
0.020736
0.098093
0.052753
0.073193
0.038790
0.077831
0.040757
0.090517
0.039283
0.067520
0.040841
0.066181
0.046311
0.038716
0.036996
0.013423
0.028511
0.033974
0.096091
0.084079
0.106258
0.000000
0.000000
0.000000
0.000000
0.083619
0.021313
0.076765
0.010917
0.067986
0.064095
0.085103
0.045646
0.083995
0.044602
0.085439
0.043902
0.089348
0.030306
0.063287
0.024452
0.034306
0.041008
0.058346
0.038861
0.077195
0.060254
0.110935
0.294267
0.000000
0.000000
0.000000
0.000000
0.092430
0.018019
0.093157
0.017697
0.075345
0.048972
0.066960
0.047147
0.077782
0.049236
0.090294
0.046435
0.087081
0.036011
0.066047
0.017849
0.032919
0.019457
0.028498
0.047174
0.082552
0.172461
0.112225
0.842456
0.000000
0.000000
0.000000
0.000000
0.080589
0.013338
0.091962
0.010042
0.054404
0.062749
0.073627
0.049529
0.070205
0.046118
0.082336
0.043245
0.084713
0.015372
0.075188
0.018478
0.033574
0.036049
0.002904
0.034086
0.015299
0.176418
0.383854
1.512856
0.000000
0.000000
0.000000
0.000000
0.095823
0.016295
0.093165
0.013945
0.047284
0.057701
0.060053
0.056757
0.075105
0.058417
0.087036
0.043747
0.092958
0.025367
0.063270
0.032117
0.051715
0.008080
0.026830
0.030062
0.053672
0.071645
0.230935
1.997472
0.000000
0.000000
0.000000
0.000000
0.083903
0.005342
0.091923
0.008056
0.039383
0.062432
0.066024
0.056465
0.062550
0.050992
0.082161
0.047340
0.087539
0.026620
0.090705
0.025537
0.057560
0.041670
0.047408
0.029941
0.042067
0.047505
0.104387
2.351554
0.000000
0.000000
0.000000
0.000000
0.094001
0.012710
0.101140
0.014671
0.018732
0.058486
0.052035
0.057360
0.065254
0.052962
0.079799
0.049522
0.103440
0.033677
0.088635
0.012622
0.063043
0.039936
0.042747
0.022518
0.041632
0.052470
0.029409
2.374296
0.000000
0.000000
0.000000
0.000000
0.098495
0.020320
0.089903
0.007742
0.010367
0.047714
0.033912
0.043029
0.038806
0.049879
0.072487
0.051266
0.094739
0.037180
0.095638
0.032623
0.094086
0.030551
0.060317
0.042709
0.016900
0.038785
0.168028
2.497329
0.000000
0.000000
0.000000
0.000000
0.077102
0.014792
0.098219
0.013531
0.020759
0.047781
0.035677
0.050881
0.046998
0.044004
0.059101
0.035221
0.080238
0.026904
0.093324
0.015050
0.077230
0.013738
0.030663
0.023325
0.011645
0.063465
0.070952
2.407011
0.000000
0.000000
0.000000
0.000000
0.100889
0.022776
0.082743
0.016526
0.015214
0.047013
0.026235
0.050874
0.033341
0.058816
0.059646
0.059037
0.084687
0.059384
0.101842
0.054673
0.098441
0.039246
0.072493
0.021774
0.070012
0.052000
0.127458
2.493179
0.000000
0.000000
0.000000
0.000000
0.070401
0.022086
0.081680
0.013007
0.032877
0.038843
0.029689
0.052216
0.050869
0.049196
0.060278
0.054124
0.084510
0.036996
0.102216
0.047382
0.106600
0.043274
0.024333
0.023735
0.037318
0.084233
0.074715
2.426791
0.000000
0.000000
0.000000
0.000000
0.084327
0.022113
0.072570
0.021244
0.039880
0.040355
0.029772
0.047842
0.042555
0.062259
0.070693
0.062056
0.092679
0.062007
0.111758
0.051828
0.080150
0.023098
0.028067
0.022481
0.051425
0.093223
0.111408
2.495179
0.000000
0.000000
0.000000
0.000000
0.071642
0.029099
0.063740
0.018618
0.045429
0.034578
0.032768
0.038023
0.057110
0.050793
0.069089
0.065733
0.085019
0.071114
0.089678
0.064062
0.020757
0.011380
0.053702
0.040920
0.036543
0.074363
0.084507
2.386014
0.000000
0.000000
0.000000
0.000000
0.072898
0.027618
0.056808
0.024636
0.055789
0.031256
0.031758
0.041353
0.054119
0.054010
0.070278
0.067081
0.099719
0.061615
0.067956
0.028279
0.056359
0.049126
0.059190
0.066233
0.047756
0.114548
0.104073
2.412088
0.000000
0.000000
0.000000
0.000000
0.074732
0.033843
0.057733
0.037478
0.052988
0.030357
0.040365
0.035474
0.061872
0.056023
0.094599
0.078470
0.085967
0.082394
0.039850
0.045658
0.081700
0.041528
0.055172
0.011199
0.052178
0.108205
0.070342
2.310752
0.000000
0.000000
0.000000
0.000000
0.074013
0.041947
0.045460
0.033866
0.052683
0.033053
0.030137
0.038815
0.067194
0.041411
0.075884
0.047562
0.067791
0.028273
0.021947
0.055237
0.094918
0.069619
0.042401
0.043205
0.048356
0.101148
0.093852
2.248964
0.000000
0.000000
0.000000
0.000000
0.070538
0.044610
0.045513
0.045616
0.055139
0.035600
0.038817
0.040562
0.061585
0.057037
0.082935
0.064690
0.044769
0.041863
0.070372
0.037429
0.068581
0.055368
0.042208
0.019060
0.060870
0.106111
0.073895
2.168516
0.000000
0.000000
0.000000
0.000000
0.069393
0.050975
0.038554
0.049056
0.048871
0.031115
0.020897
0.039229
0.065101
0.028311
0.070695
0.027359
0.025639
0.037043
0.057666
0.058306
0.060738
0.030530
0.035695
0.034932
0.056775
0.090633
0.100471