<?xml version='1.0' encoding='UTF-8'?>
<VTKFile xmlns='VTK' byte_order='LittleEndian' version='0.1' type='UnstructuredGrid'>
<UnstructuredGrid>
<Piece NumberOfCells='2512' NumberOfPoints='2512'>
<Points>
<DataArray NumberOfComponents='3' type='Float32' Name='Position' format='ascii'>
-0.075000 -0.075000 0.000000
-0.075000 -0.050000 0.000000
-0.075000 -0.025000 0.000000
-0.075000 0.000000 0.000000
-0.075000 0.025000 0.000000
-0.075000 0.050000 0.000000
-0.075000 0.075000 0.000000
-0.075000 0.100000 0.000000
-0.075000 0.125000 0.000000
-0.075000 0.150000 0.000000
-0.075000 0.175000 0.000000
-0.075000 0.200000 0.000000
-0.075000 0.225000 0.000000
-0.075000 0.250000 0.000000
-0.075000 0.275000 0.000000
-0.075000 0.300000 0.000000
-0.075000 0.325000 0.000000
-0.075000 0.350000 0.000000
-0.075000 0.375000 0.000000
-0.075000 0.400000 0.000000
-0.075000 0.425000 0.000000
-0.075000 0.450000 0.000000
-0.075000 0.475000 0.000000
-0.075000 0.500000 0.000000
-0.075000 0.525000 0.000000
-0.075000 0.550000 0.000000
-0.075000 0.575000 0.000000
-0.075000 0.600000 0.000000
-0.050000 -0.075000 0.000000
-0.050000 -0.050000 0.000000
-0.050000 -0.025000 0.000000
-0.050000 0.000000 0.000000
-0.050000 0.025000 0.000000
-0.050000 0.050000 0.000000
-0.050000 0.075000 0.000000
-0.050000 0.100000 0.000000
-0.050000 0.125000 0.000000
-0.050000 0.150000 0.000000
-0.050000 0.175000 0.000000
-0.050000 0.200000 0.000000
-0.050000 0.225000 0.000000
-0.050000 0.250000 0.000000
-0.050000 0.275000 0.000000
-0.050000 0.300000 0.000000
-0.050000 0.325000 0.000000
-0.050000 0.350000 0.000000
-0.050000 0.375000 0.000000
-0.050000 0.400000 0.000000
-0.050000 0.425000 0.000000
-0.050000 0.450000 0.000000
-0.050000 0.475000 0.000000
-0.050000 0.500000 0.000000
-0.050000 0.525000 0.000000
-0.050000 0.550000 0.000000
-0.050000 0.575000 0.000000
-0.050000 0.600000 0.000000
-0.025000 -0.075000 0.000000
-0.025000 -0.050000 0.000000
-0.025000 -0.025000 0.000000
-0.025000 0.000000 0.000000
-0.025000 0.025000 0.000000
-0.025000 0.050000 0.000000
-0.025000 0.075000 0.000000
-0.025000 0.100000 0.000000
-0.025000 0.125000 0.000000
-0.025000 0.150000 0.000000
-0.025000 0.175000 0.000000
-0.025000 0.200000 0.000000
-0.025000 0.225000 0.000000
-0.025000 0.250000 0.000000
-0.025000 0.275000 0.000000
-0.025000 0.300000 0.000000
-0.025000 0.325000 0.000000
-0.025000 0.350000 0.000000
-0.025000 0.375000 0.000000
-0.025000 0.400000 0.000000
-0.025000 0.425000 0.000000
-0.025000 0.450000 0.000000
-0.025000 0.475000 0.000000
-0.025000 0.500000 0.000000
-0.025000 0.525000 0.000000
-0.025000 0.550000 0.000000
-0.025000 0.575000 0.000000
-0.025000 0.600000 0.000000
0.000000 -0.075000 0.000000
0.000000 -0.050000 0.000000
0.000000 -0.025000 0.000000
0.000000 0.000000 0.000000
0.000000 0.025000 0.000000
0.000000 0.050000 0.000000
0.000000 0.075000 0.000000
0.000000 0.100000 0.000000
0.000000 0.125000 0.000000
0.000000 0.150000 0.000000
0.000000 0.175000 0.000000
0.000000 0.200000 0.000000
0.000000 0.225000 0.000000
0.000000 0.250000 0.000000
0.000000 0.275000 0.000000
0.000000 0.300000 0.000000
0.000000 0.325000 0.000000
0.000000 0.350000 0.000000
0.000000 0.375000 0.000000
0.000000 0.400000 0.000000
0.000000 0.425000 0.000000
0.000000 0.450000 0.000000
0.000000 0.475000 0.000000
0.000000 0.500000 0.000000
0.000000 0.525000 0.000000
0.000000 0.550000 0.000000
0.000000 0.575000 0.000000
0.000000 0.600000 0.000000
0.025000 -0.075000 0.000000
0.025000 -0.050000 0.000000
0.025000 -0.025000 0.000000
0.025000 0.000000 0.000000
0.024900 0.024874 0.000000
0.025079 0.049940 0.000000
0.024937 0.074886 0.000000
0.025037 0.099821 0.000000
0.025042 0.124899 0.000000
0.024930 0.149763 0.000000
0.025036 0.174882 0.000000
0.025053 0.199790 0.000000
0.024917 0.224896 0.000000
0.025023 0.249886 0.000000
0.024992 0.275019 0.000000
0.025055 0.299981 0.000000
0.024855 0.325226 0.000000
0.025105 0.350189 0.000000
0.024938 0.375502 0.000000
0.024966 0.400504 0.000000
0.024959 0.425848 0.000000
0.025037 0.450940 0.000000
0.024835 0.476284 0.000000
0.025075 0.501292 0.000000
0.024918 0.526726 0.000000
0.024837 0.551318 0.000000
0.025428 0.576599 0.000000
0.022221 0.600000 0.000000
0.275000 0.625000 0.000000
0.275000 0.650000 0.000000
0.275000 0.675000 0.000000
0.050000 -0.075000 0.000000
0.050000 -0.050000 0.000000
0.050000 -0.025000 0.000000
0.050000 0.000000 0.000000
0.050040 0.025022 0.000000
0.050030 0.049906 0.000000
0.050036 0.074999 0.000000
0.050042 0.099936 0.000000
0.049963 0.125007 0.000000
0.050080 0.149982 0.000000
0.049934 0.175015 0.000000
0.049952 0.199976 0.000000
0.049932 0.225130 0.000000
0.049921 0.249936 0.000000
0.049822 0.275160 0.000000
0.049863 0.300050 0.000000
0.049794 0.325207 0.000000
0.049767 0.350073 0.000000
0.049641 0.375373 0.000000
0.049758 0.400215 0.000000
0.049532 0.425547 0.000000
0.049660 0.450412 0.000000
0.049566 0.475802 0.000000
0.049676 0.500651 0.000000
0.049757 0.526114 0.000000
0.050435 0.550333 0.000000
0.050704 0.575281 0.000000
0.049722 0.599892 0.000000
0.300000 0.625000 0.000000
0.300000 0.650000 0.000000
0.300000 0.675000 0.000000
0.075000 -0.075000 0.000000
0.075000 -0.050000 0.000000
0.075000 -0.025000 0.000000
0.075000 0.000000 0.000000
0.074985 0.024904 0.000000
0.075061 0.050000 0.000000
0.074990 0.074959 0.000000
0.074989 0.099931 0.000000
0.075007 0.125042 0.000000
0.074988 0.149917 0.000000
0.074964 0.175008 0.000000
0.075053 0.199938 0.000000
0.074909 0.224927 0.000000
0.075001 0.249850 0.000000
0.074958 0.274880 0.000000
0.074986 0.299662 0.000000
0.074869 0.324741 0.000000
0.074996 0.349437 0.000000
0.074782 0.374466 0.000000
0.074945 0.399111 0.000000
0.074659 0.424090 0.000000
0.074881 0.448790 0.000000
0.074646 0.473779 0.000000
0.074739 0.498404 0.000000
0.075126 0.523535 0.000000
0.075604 0.548352 0.000000
0.075986 0.573232 0.000000
0.071386 0.598385 0.000000
0.325000 0.625000 0.000000
0.325000 0.650000 0.000000
0.325000 0.675000 0.000000
0.100000 -0.075000 0.000000
0.100000 -0.050000 0.000000
0.100000 -0.025000 0.000000
0.100000 0.000000 0.000000
0.100035 0.024945 0.000000
0.100047 0.049901 0.000000
0.100015 0.074888 0.000000
0.100000 0.099884 0.000000
0.100010 0.124843 0.000000
0.099994 0.149831 0.000000
0.100012 0.174923 0.000000
0.099944 0.199798 0.000000
0.099978 0.224993 0.000000
0.100002 0.249902 0.000000
0.099868 0.275048 0.000000
0.100042 0.300000 0.000000
0.099855 0.325198 0.000000
0.100054 0.350096 0.000000
0.099801 0.375374 0.000000
0.100046 0.400234 0.000000
0.099701 0.425553 0.000000
0.100001 0.450289 0.000000
0.099565 0.475555 0.000000
0.099974 0.500343 0.000000
0.099560 0.525624 0.000000
0.100771 0.550387 0.000000
0.100097 0.576482 0.000000
0.098756 0.599768 0.000000
0.350000 0.625000 0.000000
0.350000 0.650000 0.000000
0.350000 0.675000 0.000000
0.125000 -0.075000 0.000000
0.125000 -0.050000 0.000000
0.125000 -0.025000 0.000000
0.125000 0.000000 0.000000
0.125094 0.024966 0.000000
0.125075 0.049958 0.000000
0.125059 0.074946 0.000000
0.125022 0.099929 0.000000
0.124988 0.124966 0.000000
0.125046 0.149929 0.000000
0.124928 0.174924 0.000000
0.124991 0.199910 0.000000
0.124928 0.224950 0.000000
0.124907 0.249786 0.000000
0.124930 0.274932 0.000000
0.124904 0.299734 0.000000
0.124834 0.324807 0.000000
0.124892 0.349691 0.000000
0.124671 0.374746 0.000000
0.124935 0.399613 0.000000
0.124530 0.424739 0.000000
0.124964 0.449536 0.000000
0.124589 0.474839 0.000000
0.124938 0.499334 0.000000
0.124648 0.524682 0.000000
0.125717 0.549394 0.000000
0.124923 0.574307 0.000000
0.123620 0.599371 0.000000
0.375000 0.625000 0.000000
0.375000 0.650000 0.000000
0.375000 0.675000 0.000000
0.150000 -0.075000 0.000000
0.150000 -0.050000 0.000000
0.150000 -0.025000 0.000000
0.150000 0.000000 0.000000
0.150059 0.024935 0.000000
0.150104 0.049952 0.000000
0.149979 0.074970 0.000000
0.150017 0.099956 0.000000
0.150014 0.124956 0.000000
0.150010 0.149928 0.000000
0.149962 0.174943 0.000000
0.150062 0.199889 0.000000
0.149907 0.224862 0.000000
0.150065 0.249892 0.000000
0.149939 0.274847 0.000000
0.150037 0.299828 0.000000
0.149902 0.324899 0.000000
0.150093 0.349734 0.000000
0.149801 0.374882 0.000000
0.150068 0.399628 0.000000
0.149686 0.424765 0.000000
0.150031 0.449521 0.000000
0.149605 0.474572 0.000000
0.150052 0.499559 0.000000
0.149666 0.524637 0.000000
0.150647 0.549576 0.000000
0.149934 0.575510 0.000000
0.149230 0.599225 0.000000
0.400000 0.625000 0.000000
0.400000 0.650000 0.000000
0.400000 0.675000 0.000000
0.175000 -0.075000 0.000000
0.175000 -0.050000 0.000000
0.175000 -0.025000 0.000000
0.175000 0.000000 0.000000
0.175139 0.024937 0.000000
0.175081 0.049922 0.000000
0.175053 0.074852 0.000000
0.175044 0.099884 0.000000
0.175023 0.124804 0.000000
0.175059 0.149784 0.000000
0.175031 0.174793 0.000000
0.174979 0.199719 0.000000
0.174987 0.224783 0.000000
0.175011 0.249705 0.000000
0.174824 0.274754 0.000000
0.175083 0.299701 0.000000
0.174785 0.324722 0.000000
0.175025 0.349698 0.000000
0.174719 0.374707 0.000000
0.175093 0.399651 0.000000
0.174613 0.424767 0.000000
0.175141 0.449527 0.000000
0.174519 0.474837 0.000000
0.175167 0.499326 0.000000
0.174236 0.524760 0.000000
0.175504 0.549473 0.000000
0.174516 0.574903 0.000000
0.174227 0.599274 0.000000
0.425000 0.625000 0.000000
0.425000 0.650000 0.000000
0.425000 0.675000 0.000000
0.200000 -0.075000 0.000000
0.200000 -0.050000 0.000000
0.200000 -0.025000 0.000000
0.200000 0.000000 0.000000
0.200171 0.024949 0.000000
0.200117 0.049925 0.000000
0.200030 0.074949 0.000000
0.200075 0.099896 0.000000
0.200040 0.124895 0.000000
0.200075 0.149931 0.000000
0.199957 0.174871 0.000000
0.200100 0.199884 0.000000
0.199938 0.224918 0.000000
0.200006 0.249776 0.000000
0.200030 0.274878 0.000000
0.199991 0.299786 0.000000
0.199924 0.324763 0.000000
0.200127 0.349702 0.000000
0.199775 0.374779 0.000000
0.200134 0.399575 0.000000
0.199643 0.424771 0.000000
0.200183 0.449552 0.000000
0.199582 0.474734 0.000000
0.200202 0.499578 0.000000
0.199513 0.524730 0.000000
0.200459 0.549384 0.000000
[...]
<PointData>
<DataArray NumberOfComponents='1' type='Int32' Name='ParticleType' format='ascii'>
3
3
3
3
3
3
3
3
3
3
3
3
3
3
3
3
3
3
3
3
3
3
3
3
3
3
3
3
3
3
3
3
3
3
3
3
3
3
3
3
3
3
3
3
3
3
3
3
3
3
3
3
3
3
3
3
3
3
2
2
2
2
2
2
2
2
2
2
2
2
2
2
2
2
2
2
2
2
2
2
2
2
2
2
3
3
2
2
2
2
2
2
2
2
2
2
2
2
2
2
2
2
2
2
2
2
2
2
2
2
2
2
3
3
2
2
0
0
0
0
0
0
0
0
0
0
0
0
0
0
0
0
0
0
0
0
0
0
0
0
1
1
1
3
3
2
2
0
0
0
0
0
0
0
0
0
0
0
0
0
0
0
0
0
0
0
0
0
0
0
0
1
1
1
3
3
2
2
0
0
0
0
0
0
0
0
0
0
0
0
0
0
0
0
0
0
0
0
0
0
0
0
1
1
1
3
3
2
2
0
0
0
0
0
0
0
0
0
0
0
0
0
0
0
0
0
0
0
0
0
0
0
0
1
1
1
3
3
2
2
0
0
0
0
0
0
0
0
0
0
0
0
0
0
0
0
0
0
0
0
0
0
0
0
1
1
1
3
3
2
2
0
0
0
0
0
0
0
0
0
0
0
0
0
0
0
0
0
0
0
0
0
0
0
0
1
1
1
3
3
2
2
0
0
0
0
0
0
0
0
0
0
0
0
0
0
0
0
0
0
0
0
0
0
0
0
1
1
1
3
3
2
2
0
0
0
0
0
0
0
0
0
0
0
0
0
0
0
0
0
0
0
0
0
0
0
0
1
1
1
3
3
2
2
0
0
0
0
0
0
0
0
0
0
0
0
0
0
0
0
0
0
0
0
0
0
0
0
1
1
1
3
3
2
2
0
0
0
0
0
0
0
0
0
0
0
0
0
0
0
0
0
0
0
0
0
0
0
0
1
1
1
3
3
2
2
0
0
0
0
0
0
0
0
0
0
0
0
0
0
0
0
0
0
0
0
0
0
0
0
1
1
1
3
3
2
2
0
0
0
0
0
0
0
0
0
0
0
0
0
0
0
0
0
0
0
0
0
0
0
0
1
1
1
3
3
2
2
0
0
0
0
0
0
0
0
0
0
0
0
0
0
0
0
0
0
0
0
0
0
0
0
1
1
1
3
3
2
2
0
0
0
0
0
0
0
0
0
0
0
0
0
0
0
0
0
0
0
0
0
0
0
0
1
1
1
3
3
2
2
0
0
0
0
0
0
0
0
0
0
0
0
0
0
0
0
0
0
0
0
0
0
0
0
1
1
1
3
3
2
2
0
0
0
0
0
0
0
0
0
0
0
0
0
0
0
0
0
0
0
0
0
0
0
0
1
1
1
3
3
2
2
0
0
0
0
0
0
0
0
0
0
0
0
0
0
0
0
0
0
0
0
0
0
0
0
3
3
2
2
0
0
0
0
0
0
0
0
0
0
0
0
0
0
0
0
0
0
0
0
0
0
0
0
3
3
2
2
0
0
0
0
0
0
0
0
0
0
0
0
0
0
0
0
0
0
0
0
0
0
0
0
3
3
2
2
0
0
0
0
0
0
0
0
0
0
0
0
0
0
0
0
0
0
0
0
0
0
0
0
3
3
2
2
0
0
0
0
0
0
0
0
0
0
0
0
0
0
0
0
0
0
0
0
0
0
0
0
3
3
2
2
0
0
0
0
0
0
0
0
0
0
0
0
0
0
0
0
0
0
0
0
0
0
0
0
3
3
2
2
0
0
0
0
0
0
0
0
0
0
0
0
0
0
0
0
0
0
0
0
0
0
0
0
3
3
2
2
0
0
0
0
0
0
0
0
0
0
0
0
0
0
0
0
0
0
0
0
0
0
0
0
3
3
2
2
0
0
0
0
0
0
0
0
0
0
0
0
0
0
0
0
0
0
0
0
0
0
0
0
3
3
2
2
0
0
0
0
0
0
0
0
0
0
0
0
0
0
0
0
0
0
0
0
0
0
0
0
3
3
2
2
0
0
0
0
0
0
0
0
0
0
0
0
0
0
0
0
0
0
0
0
0
0
0
0
3
3
2
2
0
0
0
0
0
0
0
0
0
0
0
0
0
0
0
0
0
0
0
0
0
0
0
0
3
3
2
2
0
0
0
0
0
0
0
0
0
0
0
0
0
0
0
0
0
0
0
0
0
0
0
0
3
3
2
2
0
0
0
0
0
0
0
0
0
0
0
0
0
0
0
0
0
0
0
0
0
0
0
0
3
3
2
2
0
0
0
0
0
0
0
0
0
0
0
0
0
0
0
0
0
0
0
0
0
0
0
0
3
3
2
2
0
0
0
0
0
0
0
0
0
0
0
0
0
0
0
0
0
0
0
0
0
0
0
0
3
3
2
2
0
0
0
0
0
0
0
0
0
0
0
0
0
0
0
0
0
0
0
0
0
0
0
0
3
3
2
2
0
0
0
0
0
0
0
0
0
0
0
0
0
0
0
0
0
0
0
0
0
0
0
0
3
3
2
2
0
0
0
0
0
0
0
0
0
0
0
0
0
0
0
0
0
0
0
0
0
0
0
0
3
3
2
2
0
0
0
0
0
0
0
0
0
0
0
0
0
0
0
0
0
0
0
0
0
0
0
0
3
3
2
2
0
0
0
0
0
0
0
0
0
0
0
0
0
0
0
0
0
0
0
0
0
0
0
0
3
3
2
2
0
0
0
0
0
0
0
0
0
0
0
0
0
0
0
0
0
0
0
0
0
0
0
0
3
3
2
2
0
0
0
0
0
0
0
0
0
0
0
0
0
0
0
0
0
0
0
0
0
0
0
0
3
3
2
2
0
0
0
0
0
0
0
0
0
0
0
0
0
0
0
0
0
0
0
0
0
0
0
0
3
3
2
2
0
0
0
0
0
0
0
0
0
0
0
0
0
0
0
0
0
0
0
0
0
0
0
0
3
3
2
2
0
0
0
0
0
0
0
0
0
0
0
0
0
0
0
0
0
0
0
0
0
0
0
0
3
3
2
2
0
0
0
0
0
0
0
0
0
0
0
0
0
0
0
0
0
0
0
0
0
0
0
0
3
3
2
2
0
0
0
0
0
0
0
0
0
0
0
0
0
0
0
0
0
0
0
0
0
0
0
0
3
3
2
2
0
0
0
0
0
0
0
0
0
0
0
0
0
0
0
0
0
0
0
0
0
0
0
0
3
3
2
2
0
0
0
0
0
0
0
0
0
0
0
0
0
0
0
0
0
0
0
0
0
0
0
0
3
3
2
2
0
0
0
0
0
0
0
0
0
0
0
0
0
0
0
0
0
0
0
0
0
0
0
0
3
3
2
2
0
0
0
0
0
0
0
0
0
0
0
0
0
0
0
0
0
0
0
0
0
0
0
0
3
3
2
2
0
0
0
0
0
0
0
0
0
0
0
0
0
0
0
0
0
0
0
0
0
0
0
0
3
3
2
2
0
0
0
0
0
0
0
0
0
0
0
0
0
0
0
0
0
0
0
0
0
0
0
0
3
3
2
2
0
0
0
0
0
0
0
0
0
0
0
0
0
0
0
0
0
0
0
0
0
0
0
0
3
3
2
2
0
0
0
0
0
0
0
0
0
0
0
0
0
0
0
0
0
0
0
0
0
0
0
0
3
3
2
2
0
0
0
0
0
0
0
0
0
0
0
0
0
0
0
0
0
0
0
0
0
0
0
0
3
3
2
2
0
0
0
0
0
0
0
0
0
0
0
0
0
0
0
0
0
0
0
0
0
0
0
0
3
3
2
2
0
0
0
0
0
0
0
0
0
0
0
0
0
0
0
0
0
0
0
0
0
0
0
0
3
3
2
2
0
0
0
0
0
0
0
0
0
0
0
0
0
0
0
0
0
0
0
0
0
0
0
0
3
3
2
2
0
0
0
0
0
0
0
0
0
0
0
0
0
0
0
0
0
0
0
0
0
0
0
0
3
3
2
2
0
0
0
0
0
0
0
0
0
0
0
0
0
0
0
0
0
0
0
0
0
0
0
0
3
3
2
2
0
0
0
0
0
0
0
0
0
0
0
0
0
0
0
0
0
0
0
0
0
0
0
0
3
3
2
2
0
0
0
0
0
0
0
0
0
0
0
0
0
0
0
0
0
0
0
0
0
0
0
0
3
3
2
2
0
0
0
0
0
0
0
0
0
0
0
0
0
0
0
0
0
0
0
0
0
0
0
0
3
3
2
2
0
0
0
0
0
0
0
0
0
0
0
0
0
0
0
0
0
0
0
0
0
0
0
0
3
3
2
2
0
0
0
0
0
0
0
0
0
0
0
0
0
0
0
0
0
0
0
0
0
0
0
0
3
3
2
2
0
0
0
0
0
0
0
0
0
0
0
0
0
0
0
0
0
0
0
0
0
0
0
0
3
3
2
2
0
0
0
0
0
0
0
0
0
0
0
0
0
0
0
0
0
0
0
0
0
0
0
0
3
3
2
2
0
0
0
0
0
0
0
0
0
0
0
0
0
0
0
0
0
0
0
0
0
0
0
0
3
3
2
2
0
0
0
0
0
0
0
0
0
0
0
0
0
0
0
0
0
0
0
0
0
0
0
0
3
3
2
2
0
0
0
0
0
0
0
0
0
0
0
0
0
0
0
0
0
0
0
0
0
0
0
0
3
3
2
2
0
0
0
0
0
0
0
0
0
0
0
0
0
0
0
0
0
0
0
0
0
0
0
0
3
3
2
2
0
0
0
0
0
0
0
0
0
0
0
0
0
0
0
0
0
0
0
0
0
0
0
0
3
3
2
2
0
0
0
0
0
0
0
0
0
0
0
0
0
0
0
0
0
0
0
0
0
0
0
0
3
3
2
2
0
0
0
0
0
0
0
0
0
0
0
0
0
0
0
0
0
0
0
0
0
0
0
0
3
3
2
2
0
0
0
0
0
0
0
0
0
0
0
0
0
0
0
0
0
0
0
0
0
0
0
0
3
3
2
2
0
0
0
0
0
0
0
0
0
0
0
0
0
0
0
0
0
0
0
0
0
0
0
0
3
3
2
2
0
0
0
0
0
0
0
0
0
0
0
0
0
0
0
0
0
0
0
0
0
0
0
0
3
3
2
2
0
0
0
0
0
0
0
0
0
0
0
0
0
0
0
0
0
0
0
0
0
0
0
0
3
3
2
2
0
0
0
0
0
0
0
0
0
0
0
0
0
0
0
0
0
0
0
0
0
0
0
0
3
3
2
2
0
0
0
0
0
0
0
0
0
0
0
0
0
0
0
0
0
0
0
0
0
0
0
0
3
3
2
2
0
0
0
0
0
0
0
0
0
0
0
0
0
0
0
0
0
0
0
0
0
0
0
0
3
3
2
2
0
0
0
0
0
0
0
0
0
0
0
0
0
0
0
0
0
0
0
0
0
0
0
0
3
3
2
2
2
2
2
2
2
2
2
2
2
2
2
2
2
2
2
2
2
2
2
2
2
2
2
2
3
3
2
2
2
2
2
2
2
2
2
2
2
2
2
2
2
2
2
2
2
2
2
2
2
2
2
2
3
3
3
3
3
3
3
3
3
3
3
3
3
3
3
3
3
3
3
3
3
3
3
3
3
3
3
3
3
3
3
3
3
3
3
3
3
3
3
3
3
3
3
3
3
3
3
3
3
3
3
3
3
3
3
3
</DataArray>
<DataArray NumberOfComponents='1' type='Float32' Name='Velocity' format='ascii'>
0.000000
0.000000
0.000000
0.000000
0.000000
0.000000
0.000000
0.000000
0.000000
0.000000
0.000000
0.000000
0.000000
0.000000
0.000000
0.000000
0.000000
0.000000
0.000000
0.000000
0.000000
0.000000
0.000000
0.000000
0.000000
0.000000
0.000000
0.000000
0.000000
0.000000
0.000000
0.000000
0.000000
0.000000
0.000000
0.000000
0.000000
0.000000
0.000000
0.000000
0.000000
0.000000
0.000000
0.000000
0.000000
0.000000
0.000000
0.000000
0.000000
0.000000
0.000000
0.000000
0.000000
0.000000
0.000000
0.000000
0.000000
0.000000
0.000000
0.000000
0.000000
0.000000
0.000000
0.000000
0.000000
0.000000
0.000000
0.000000
0.000000
0.000000
0.000000
0.000000
0.000000
0.000000
0.000000
0.000000
0.000000
0.000000
0.000000
0.000000
0.000000
0.000000
0.000000
0.000000
0.000000
0.000000
0.000000
0.000000
0.000000
0.000000
0.000000
0.000000
0.000000
0.000000
0.000000
0.000000
0.000000
0.000000
0.000000
0.000000
0.000000
0.000000
0.000000
0.000000
0.000000
0.000000
0.000000
0.000000
0.000000
0.000000
0.000000
0.000000
0.000000
0.000000
0.000000
0.000000
0.004854
0.007554
0.003695
0.006126
0.006515
0.003437
0.006711
0.006749
0.001336
0.002592
0.004917
0.006945
0.005113
0.005531
0.009664
0.006987
0.008211
0.011997
0.013545
0.012293
0.015687
0.014770
0.018667
0.085610
1.000000
1.000000
1.000000
0.000000
0.000000
0.000000
0.000000
0.001393
0.000854
0.002441
0.004007
0.004172
0.001235
0.005334
0.004692
0.007328
0.001215
0.002648
0.005150
0.008444
0.001693
0.011123
0.000912
0.012105
0.005389
0.012115
0.004219
0.009660
0.002046
0.010805
0.014176
1.000000
1.000000
1.000000
0.000000
0.000000
0.000000
0.000000
0.002367
0.001490
0.001293
0.002916
0.001046
0.001551
0.004934
0.002643
0.001193
0.004950
0.002054
0.005320
0.001832
0.008440
0.004587
0.006972
0.011694
0.015577
0.008542
0.020831
0.016059
0.027564
0.035841
0.031160
1.000000
1.000000
1.000000
0.000000
0.000000
0.000000
0.000000
0.004239
0.001218
0.000840
0.000973
0.001437
0.003226
0.002700
0.001021
0.005200
0.006693
0.004095
0.004065
0.006543
0.007404
0.010292
0.004179
0.016884
0.009938
0.014303
0.013633
0.020683
0.015587
0.026767
0.019063
1.000000
1.000000
1.000000
0.000000
0.000000
0.000000
0.000000
0.002145
0.002369
0.001784
0.002330
0.002450
0.002681
0.001604
0.003834
0.003617
0.004258
0.004311
0.004162
0.005004
0.000988
0.006320
0.001084
0.003767
0.005108
0.007245
0.003502
0.008044
0.015473
0.009505
0.009494
1.000000
1.000000
1.000000
0.000000
0.000000
0.000000
0.000000
0.000594
0.000338
0.000959
0.003377
0.000393
0.002337
0.003531
0.006235
0.003071
0.003591
0.004090
0.002006
0.003158
0.002636
0.001346
0.002582
0.005567
0.004794
0.004240
0.004051
0.006785
0.010050
0.007085
0.009489
1.000000
1.000000
1.000000
0.000000
0.000000
0.000000
0.000000
0.003108
0.001161
0.002058
0.001204
0.000666
0.002490
0.001494
0.001102
0.007171
0.005967
0.008595
0.004939
0.002888
0.005121
0.003801
0.000657
0.004624
0.001518
0.011253
0.006160
0.011517
0.013342
0.005097
0.013598
1.000000
1.000000
1.000000
0.000000
0.000000
0.000000
0.000000
0.000582
0.001198
0.002017
0.002508
0.001794
0.001753
0.003548
0.001703
0.003977
0.008270
0.005048
0.008795
0.008054
0.003265
0.004870
0.001259
0.007466
0.003609
0.001993
0.001382
0.006826
0.016693
0.008345
0.009726
1.000000
1.000000
1.000000
0.000000
0.000000
0.000000
0.000000
0.002892
0.002221
0.003579
0.000421
0.001912
0.001163
0.004226
0.005529
0.009466
0.003185
0.000687
0.009973
0.003105
0.003196
0.008040
0.002069
0.006181
0.003807
0.008819
0.001176
0.009807
0.004496
0.010322
0.016534
1.000000
1.000000
1.000000
0.000000
0.000000
0.000000
0.000000
0.004063
0.001910
0.000690
0.001708
0.000883
0.001905
0.003048
0.002515
0.004459
0.009429
0.017054
0.011079
0.003619
0.012731
0.007915
0.002383
0.007663
0.001465
0.005815
0.003578
0.015043
0.007846
0.016862
0.000422
1.000000
1.000000
1.000000
0.000000
0.000000
0.000000
0.000000
0.001573
0.000791
0.003403
0.000554
0.001371
0.004274
0.000629
0.004098
0.007045
0.006148
0.000940
0.000573
0.013123
0.012892
0.013389
0.002500
0.004125
0.007776
0.006607
0.008380
0.018966
0.015864
0.021780
0.016866
1.000000
1.000000
1.000000
0.000000
0.000000
0.000000
0.000000
0.003081
0.001889
0.002768
0.002669
0.002123
0.004311
0.002364
0.003131
0.004549
0.007588
0.007821
0.009363
0.014929
0.016579
0.007531
0.019032
0.021788
0.005412
0.007872
0.012145
0.027575
0.012582
0.008448
0.003395
1.000000
1.000000
1.000000
0.000000
0.000000
0.000000
0.000000
0.003276
0.001123
0.004042
0.002106
0.003915
0.001801
0.004269
0.002426
0.008754
0.004369
0.010774
0.006372
0.010440
0.008750
0.013424
0.017575
0.010296
0.016451
0.016188
0.017746
0.011260
0.011157
0.018409
0.024886
1.000000
1.000000
1.000000
0.000000
0.000000
0.000000
0.000000
0.003466
0.002861
0.002320
0.001599
0.001628
0.000729
0.001069
0.003826
0.005400
0.007553
0.004196
0.002552
0.008395
0.010533
0.024853
0.009561
0.008727
0.014304
0.004613
0.016152
0.026844
0.006757
0.028775
0.019278
1.000000
1.000000
1.000000
0.000000
0.000000
0.000000
0.000000
0.004354
0.002735
0.005717
0.002232
0.004393
0.002205
0.003157
0.001940
0.009626
0.005907
0.008658
0.004229
0.006344
0.016024
0.005936
0.013387
0.036421
0.028104
0.011734
0.035119
0.016697
0.006538
0.004684
0.012834
1.000000
1.000000
1.000000
0.000000
0.000000
0.000000
0.000000
0.004575
0.005704
0.006231
0.006167
0.003771
0.002776
0.002153
0.004222
0.005466
0.006398
0.007366
0.004016
0.009745
0.002861
0.002775
0.016850
0.006307
0.006625
0.029084
0.019627
0.016340
0.008124
0.029434
0.008797
1.000000
1.000000
1.000000
0.000000
0.000000
0.000000
0.000000
0.005451
0.003123
0.006745
0.003813
0.006100
0.001688
0.006551
0.001619
0.008734
0.001637
0.005457
0.009856
0.007550
0.009641
0.023869
0.016946
0.023387
0.014083
0.012921
0.038241
0.022677
0.024585
0.030180
0.010962
0.000000
0.000000
0.000000
0.000000
0.003838
0.003915
0.004479
0.005933
0.004238
0.004131
0.002613
0.004516
0.003722
0.004153
0.001278
0.001997
0.011601
0.007383
0.018547
0.005258
0.021231
0.035133
0.031977
0.031707
0.022020
0.012807
0.017826
0.017585
0.000000
0.000000
0.000000
0.000000
0.007954
0.006487
0.009576
0.004379
0.005596
0.001495
0.004283
0.001770
0.008551
0.001477
0.005780
0.013190
0.002626
0.018720
0.006968
0.016972
0.009701
0.027841
0.015383
0.017982
0.032505
0.011317
0.035697
0.015353
0.000000
0.000000
0.000000
0.000000
0.008809
0.007370
0.006660
0.005239
0.001682
0.001658
0.001452
0.003028
0.004629
0.006068
0.004382
0.002927
0.004187
0.003445
0.001779
0.009954
0.016780
0.016654
0.017020
0.033555
0.010363
0.040603
0.021980
0.033622
0.000000
0.000000
0.000000
0.000000
0.005846
0.004912
0.008402
0.003273
0.003863
0.003978
0.001161
0.003377
0.006634
0.003292
0.010232
0.004390
0.007825
0.012786
0.012598
0.005820
0.035630
0.027190
0.062865
0.016756
0.010239
0.044833
0.005034
0.043887
0.000000
0.000000
0.000000
0.000000
0.010105
0.008474
0.007505
0.005421
0.001050
0.001812
0.002328
0.002427
0.002400
0.003050
0.003888
0.007288
0.005739
0.009143
0.005100
0.007490
0.003713
0.007840
0.018401
0.030387
0.069595
0.019004
0.009114
0.067929
0.000000
0.000000
0.000000
0.000000
0.006944
0.004379
0.007584
0.004818
0.004739
0.004159
0.001546
0.001618
0.005043
0.003511
0.001308
0.009133
0.001978
0.007656
0.006285
0.000508
0.012120
0.016286
0.023314
0.078715
0.055817
0.067905
0.061422
0.039204
0.000000
0.000000
0.000000
0.000000
0.007663
0.003759
0.003901
0.005621
0.002934
0.004040
0.003245
0.002496
0.000696
0.003094
0.001983
0.005963
0.002590
0.003418
0.011527
0.002239
0.010917
0.012643
0.009304
0.027491
0.037626
0.073188
0.045116
0.098714
0.000000
0.000000
0.000000
0.000000
0.007583
0.001675
0.003016
0.002402
0.005010
0.002267
0.003377
0.003071
0.004480
0.003346
0.000926
0.007552
0.005293
0.002935
0.009648
0.005006
0.014911
0.011155
0.021668
0.025199
0.037864
0.071474
0.086296
0.133483
0.000000
0.000000
0.000000
0.000000
0.006152
0.001564
0.003289
0.004851
0.002300
0.003945
0.002628
0.003420
0.001487
0.005091
0.002987
0.002248
0.003932
0.005807
0.004218
0.011059
0.007242
0.021451
0.015116
0.032839
0.030036
0.057757
0.087130
0.223494
0.000000
0.000000
0.000000
0.000000
0.009314
0.001117
0.001172
0.003165
0.003275
0.003756
0.002810
0.004959
0.003360
0.003350
0.004524
0.005797
0.001547
0.008458
0.002950
0.010054
0.007882
0.011834
0.016041
0.019190
0.005556
0.040881
0.047225
0.124807
0.000000
0.000000
0.000000
0.000000
0.005181
0.000995
0.001057
0.001902
0.001451
0.004005
0.001470
0.004099
0.004402
0.003971
0.004075
0.003850
0.004719
0.005207
0.005448
0.008093
0.010435
0.012658
0.004866
0.033237
0.004009
0.021433
0.039349
0.058342
0.000000
0.000000
0.000000
0.000000
0.006978
0.000585
0.001225
0.003758
0.000657
0.002510
0.002787
0.002406
0.004291
0.004341
0.005152
0.006176
0.001965
0.009477
0.001750
0.010443
0.003568
0.021193
0.008250
0.019696
0.008963
0.020014
0.023944
0.060322
0.000000
0.000000
0.000000
0.000000
0.007595
0.001300
0.001614
0.003128
0.001730
0.003232
0.002764
0.003070
0.002844
0.005219
0.001258
0.007533
0.001166
0.006541
0.004813
0.009279
0.001671
0.010131
0.007509
0.010226
0.006917
0.012908
0.025219
0.038696
0.000000
0.000000
0.000000
0.000000
0.005352
0.000930
0.001367
0.001926
0.002154
0.002379
0.001736
0.004602
0.001233
0.004566
0.004176
0.003853
0.007638
0.004453
0.001637
0.008340
0.003180
0.008879
0.005001
0.015359
0.013719
0.013016
0.023037
0.030318
0.000000
0.000000
0.000000
0.000000
0.007771
0.000720
0.001975
0.003367
0.001596
0.003544
0.001957
0.002838
0.003914
0.003451
0.005517
0.004990
0.000587
0.009581
0.001187
0.009117
0.003276
0.011372
0.004804
0.008835
0.008955
0.002889
0.017501
0.019874
0.000000
0.000000
0.000000
0.000000
0.006890
0.000170
0.001660
0.002903
0.001160
0.003176
0.002624
0.003360
0.003157
0.004645
0.001146
0.007419
0.001822
0.005507
0.002514
0.006242
0.002841
0.005442
0.006598
0.007393
0.013270
0.010415
0.022114
0.013808
0.000000
0.000000
0.000000
0.000000
0.006543
0.001338
0.001751
0.002664
0.002533
0.002863
0.002220
0.003635
0.002429
0.004426
0.002875
0.004281
0.004811
0.005566
0.002531
0.006434
0.003931
0.008287
0.006578
0.006599
0.010817
0.002282
0.015078
0.006054
0.000000
0.000000
0.000000
0.000000
0.006721
0.000606
0.002019
0.002588
0.001869
0.002478
0.002715
0.003519
0.002225
0.004667
0.004289
0.005803
0.000979
0.006105
0.000943
0.006593
0.002463
0.005161
0.006096
0.006312
0.010072
0.005287
0.016110
0.005456
0.000000
0.000000
0.000000
0.000000
0.006849
0.000937
0.002088
0.002842
0.002147
0.003733
0.001229
0.003576
0.003084
0.004015
0.001214
0.005055
0.002836
0.005416
0.001835
0.005520
0.003672
0.006364
0.006899
0.004076
0.010837
0.003752
0.012692
0.001176
0.000000
0.000000
0.000000
0.000000
0.006494
0.000644
0.001955
0.002839
0.001247
0.002973
0.002741
0.003726
0.001964
0.004510
0.003600
0.005009
0.002053
0.005183
0.001886
0.004880
0.003191
0.003333
0.005797
0.005073
0.009050
0.001151
0.013550
0.001029
0.000000
0.000000
0.000000
0.000000
0.006474
0.001158
0.002073
0.002555
0.002558
0.002993
0.001852
0.003587
0.002478
0.004253
0.001480
0.004443
0.002370
0.004599
0.001359
0.004804
0.003085
0.005357
0.006838
0.003509
0.009864
0.004628
0.011759
0.001290
0.000000
0.000000
0.000000
0.000000
0.005869
0.001131
0.001896
0.002742
0.001569
0.003011
0.001869
0.003551
0.001749
0.004324
0.002908
0.005114
0.001344
0.004897
0.002360
0.003783
0.003813
0.002775
0.005354
0.003510
0.009082
0.001755
0.011572
0.001434
0.000000
0.000000
0.000000
0.000000
0.006097
0.001107
0.001901
0.002986
0.001754
0.003192
0.001711
0.003371
0.002340
0.003898
0.001549
0.003977
0.002320
0.003814
0.001296
0.003755
0.003056
0.003057
0.006669
0.003139
0.008716
0.004045
0.011329
0.001833
0.000000
0.000000
0.000000
0.000000
0.005922
0.000945
0.002177
0.002358
0.001649
0.002997
0.001979
0.003251
0.001877
0.003987
0.002358
0.004439
0.001513
0.004381
0.002075
0.003172
0.003671
0.003169
0.005383
0.002299
0.008985
0.002902
0.010170
0.002659
0.000000
0.000000
0.000000
0.000000
0.005729
0.001164
0.001834
0.002688
0.001989
0.002496
0.001780
0.003483
0.001597
0.003734
0.001905
0.003752
0.001607
0.003437
0.001252
0.003150
0.002935
0.001513
0.005993
0.003551
0.007778
0.003081
0.010783
0.002439
0.000000
0.000000
0.000000
0.000000
0.005132
0.001217
0.001916
0.002235
0.001849
0.002835
0.001591
0.002667
0.002523
0.003592
0.001814
0.003925
0.002150
0.003627
0.001801
0.002582
0.003171
0.003024
0.005484
0.001774
0.008488
0.003861
0.009531
0.003168
0.000000
0.000000
0.000000
0.000000
0.005992
0.000628
0.002418
0.002544
0.001510
0.002312
0.002346
0.002895
0.001408
0.003215
0.002493
0.003372
0.001064
0.003058
0.001755
0.002411
0.003168
0.000995
0.005342
0.003717
0.007431
0.003073
0.010089
0.003022
0.000000
0.000000
0.000000
0.000000
0.005313
0.000885
0.002025
0.001638
0.002388
0.002334
0.001547
0.002496
0.002799
0.003050
0.001573
0.003379
0.002650
0.002877
0.001834
0.001957
0.002826
0.002308
0.005470
0.001972
0.007918
0.004180
0.009292
0.003450
0.000000
0.000000
0.000000
0.000000
0.004899
0.000789
0.002526
0.001750
0.002037
0.001792
0.002272
0.002595
0.001491
0.002944
0.002696
0.003066
0.001411
0.002644
0.002111
0.001609
0.003317
0.001099
0.005059
0.003399
0.007379
0.003620
0.009456
0.003437
0.000000
0.000000
0.000000
0.000000
0.005763
0.000590
0.002317
0.001844
0.001941
0.001875
0.002190
0.002034
0.002800
0.002846
0.002056
0.003051
0.002272
0.002492
0.001834
0.001433
0.002620
0.001433
0.005246
0.002662
0.007452
0.004165
0.009235
0.003657
0.000000
0.000000
0.000000
0.000000
0.004993
0.000574
0.002436
0.000983
0.002456
0.001779
0.002104
0.002310
0.002106
0.002569
0.002041
0.002995
0.002054
0.002397
0.002296
0.000965
0.003318
0.001590
0.005100
0.002904
0.007353
0.004090
0.008966
0.003820
0.000000
0.000000
0.000000
0.000000
0.004615
0.000708
0.002457
0.001370
0.002256
0.001182
0.002430
0.002182
0.002130
0.002429
0.002951
0.002725
0.002138
0.002481
0.001594
0.001092
0.002703
0.001217
0.004941
0.003349
0.007040
0.004154
0.009222
0.003742
0.000000
0.000000
0.000000
0.000000
0.005670
0.000412
0.002554
0.000996
0.002191
0.001620
0.001948
0.001848
0.002806
0.002977
0.002020
0.002611
0.002379
0.001836
0.002381
0.000740
0.002996
0.001657
0.005162
0.002677
0.007448
0.004388
0.008725
0.004184
0.000000
0.000000
0.000000
0.000000
0.004174
0.000339
0.002300
0.001007
0.002364
0.001188
0.003002
0.002088
0.002192
0.001734
0.002663
0.002818
0.002076
0.002575
0.001955
0.000715
0.003159
0.001411
0.004637
0.003697
0.006693
0.004302
0.009093
0.003816
0.000000
0.000000
0.000000
0.000000
0.004660
0.000574
0.002756
0.000709
0.002684
0.001397
0.001848
0.001377
0.002241
0.003011
0.002566
0.002599
0.002892
0.001856
0.002228
0.000546
0.002868
0.001537
0.005444
0.002728
0.007479
0.004351
0.008641
0.004301
0.000000
0.000000
0.000000
0.000000
0.005054
0.000816
0.002262
0.001155
0.001858
0.000991
0.002369
0.002180
0.002841
0.002086
0.002925
0.002758
0.002148
0.002181
0.002162
0.000998
0.003154
0.001079
0.004287
0.003748
0.006674
0.004726
0.009059