<?xml version='1.0' encoding='UTF-8'?>
<VTKFile xmlns='VTK' byte_order='LittleEndian' version='0.1' type='UnstructuredGrid'>
<UnstructuredGrid>
<Piece NumberOfCells='2512' NumberOfPoints='2512'>
<Points>
<DataArray NumberOfComponents='3' type='Float32' Name='Position' format='ascii'>
-0.075000 -0.075000 0.000000
-0.075000 -0.050000 0.000000
-0.075000 -0.025000 0.000000
-0.075000 0.000000 0.000000
-0.075000 0.025000 0.000000
-0.075000 0.050000 0.000000
-0.075000 0.075000 0.000000
-0.075000 0.100000 0.000000
-0.075000 0.125000 0.000000
-0.075000 0.150000 0.000000
-0.075000 0.175000 0.000000
-0.075000 0.200000 0.000000
-0.075000 0.225000 0.000000
-0.075000 0.250000 0.000000
-0.075000 0.275000 0.000000
-0.075000 0.300000 0.000000
-0.075000 0.325000 0.000000
-0.075000 0.350000 0.000000
-0.075000 0.375000 0.000000
-0.075000 0.400000 0.000000
-0.075000 0.425000 0.000000
-0.075000 0.450000 0.000000
-0.075000 0.475000 0.000000
-0.075000 0.500000 0.000000
-0.075000 0.525000 0.000000
-0.075000 0.550000 0.000000
-0.075000 0.575000 0.000000
-0.075000 0.600000 0.000000
-0.050000 -0.075000 0.000000
-0.050000 -0.050000 0.000000
-0.050000 -0.025000 0.000000
-0.050000 0.000000 0.000000
-0.050000 0.025000 0.000000
-0.050000 0.050000 0.000000
-0.050000 0.075000 0.000000
-0.050000 0.100000 0.000000
-0.050000 0.125000 0.000000
-0.050000 0.150000 0.000000
-0.050000 0.175000 0.000000
-0.050000 0.200000 0.000000
-0.050000 0.225000 0.000000
-0.050000 0.250000 0.000000
-0.050000 0.275000 0.000000
-0.050000 0.300000 0.000000
-0.050000 0.325000 0.000000
-0.050000 0.350000 0.000000
-0.050000 0.375000 0.000000
-0.050000 0.400000 0.000000
-0.050000 0.425000 0.000000
-0.050000 0.450000 0.000000
-0.050000 0.475000 0.000000
-0.050000 0.500000 0.000000
-0.050000 0.525000 0.000000
-0.050000 0.550000 0.000000
-0.050000 0.575000 0.000000
-0.050000 0.600000 0.000000
-0.025000 -0.075000 0.000000
-0.025000 -0.050000 0.000000
-0.025000 -0.025000 0.000000
-0.025000 0.000000 0.000000
-0.025000 0.025000 0.000000
-0.025000 0.050000 0.000000
-0.025000 0.075000 0.000000
-0.025000 0.100000 0.000000
-0.025000 0.125000 0.000000
-0.025000 0.150000 0.000000
-0.025000 0.175000 0.000000
-0.025000 0.200000 0.000000
-0.025000 0.225000 0.000000
-0.025000 0.250000 0.000000
-0.025000 0.275000 0.000000
-0.025000 0.300000 0.000000
-0.025000 0.325000 0.000000
-0.025000 0.350000 0.000000
-0.025000 0.375000 0.000000
-0.025000 0.400000 0.000000
-0.025000 0.425000 0.000000
-0.025000 0.450000 0.000000
-0.025000 0.475000 0.000000
-0.025000 0.500000 0.000000
-0.025000 0.525000 0.000000
-0.025000 0.550000 0.000000
-0.025000 0.575000 0.000000
-0.025000 0.600000 0.000000
0.000000 -0.075000 0.000000
0.000000 -0.050000 0.000000
0.000000 -0.025000 0.000000
0.000000 0.000000 0.000000
0.000000 0.025000 0.000000
0.000000 0.050000 0.000000
0.000000 0.075000 0.000000
0.000000 0.100000 0.000000
0.000000 0.125000 0.000000
0.000000 0.150000 0.000000
0.000000 0.175000 0.000000
0.000000 0.200000 0.000000
0.000000 0.225000 0.000000
0.000000 0.250000 0.000000
0.000000 0.275000 0.000000
0.000000 0.300000 0.000000
0.000000 0.325000 0.000000
0.000000 0.350000 0.000000
0.000000 0.375000 0.000000
0.000000 0.400000 0.000000
0.000000 0.425000 0.000000
0.000000 0.450000 0.000000
0.000000 0.475000 0.000000
0.000000 0.500000 0.000000
0.000000 0.525000 0.000000
0.000000 0.550000 0.000000
0.000000 0.575000 0.000000
0.000000 0.600000 0.000000
0.025000 -0.075000 0.000000
0.025000 -0.050000 0.000000
0.025000 -0.025000 0.000000
0.025000 0.000000 0.000000
-1.224021 0.600000 0.000000
2.781584 -4.263557 0.000000
-0.827886 -1.332395 0.000000
0.669847 -1.319374 0.000000
0.096122 0.059541 0.000000
-953568.572255 0.600000 0.000000
0.416521 -2.525362 0.000000
1.028546 -1.671780 0.000000
-1.733222 -0.002049 0.000000
0.735656 0.087704 0.000000
20.688797 -71.062621 0.000000
1.440944 -9.014396 0.000000
1597.692173 0.600000 0.000000
-668.275951 0.600000 0.000000
0.936058 0.243129 0.000000
-10.794810 -20.272749 0.000000
-3.101919 -2.558772 0.000000
26.035604 -35.797565 0.000000
1.576953 -1.105253 0.000000
-35.923840 0.600000 0.000000
11.933347 -24.846390 0.000000
-28.262763 0.600000 0.000000
-65.661215 0.600000 0.000000
2159289.245995 0.600000 0.000000
1.025000 0.625000 0.000000
1.025000 0.650000 0.000000
1.025000 0.675000 0.000000
0.050000 -0.075000 0.000000
0.050000 -0.050000 0.000000
0.050000 -0.025000 0.000000
0.050000 0.000000 0.000000
-3.247007 0.253833 0.000000
-2.078662 -0.186250 0.000000
21.781384 0.600000 0.000000
0.432485 0.374387 0.000000
59.962860 0.600000 0.000000
-0.453191 -0.232095 0.000000
-0.752946 -1.252336 0.000000
-1.233189 0.368410 0.000000
-559.618415 -1041.976188 0.000000
543.639390 0.600000 0.000000
0.273673 -2.816229 0.000000
1.579842 -0.868927 0.000000
-6.955491 -2.280107 0.000000
2.550550 0.421079 0.000000
187.072008 0.600000 0.000000
-23.253192 0.600000 0.000000
-3.524641 -1.252243 0.000000
-4.697100 0.600000 0.000000
37.407173 0.600000 0.000000
-6.315343 -8.037727 0.000000
30.091043 0.600000 0.000000
663.523946 -137.852955 0.000000
7.728529 -30.850387 0.000000
78.188701 0.600000 0.000000
1.050000 0.625000 0.000000
1.050000 0.650000 0.000000
1.050000 0.675000 0.000000
0.075000 -0.075000 0.000000
0.075000 -0.050000 0.000000
0.075000 -0.025000 0.000000
0.075000 0.000000 0.000000
-2.119104 -2.090407 0.000000
-6.987323 0.600000 0.000000
0.490672 0.103744 0.000000
-52.051072 0.600000 0.000000
-1.778785 -1.094882 0.000000
1.883618 0.600000 0.000000
0.794350 -1.701350 0.000000
128.214382 0.600000 0.000000
25.115079 0.600000 0.000000
0.891121 -5.084808 0.000000
4.142094 -3.641597 0.000000
-27.385819 0.600000 0.000000
-11.300216 0.600000 0.000000
31.316669 -20.254403 0.000000
14.290207 0.600000 0.000000
1.247355 0.018467 0.000000
100.259417 -39.757962 0.000000
0.350314 0.439034 0.000000
7.706260 -5.614093 0.000000
2.061692 -2.296361 0.000000
164.769563 0.600000 0.000000
-3.098423 -8.034569 0.000000
-234.758578 0.600000 0.000000
-45.850739 0.600000 0.000000
1.075000 0.625000 0.000000
1.075000 0.650000 0.000000
1.075000 0.675000 0.000000
0.100000 -0.075000 0.000000
0.100000 -0.050000 0.000000
0.100000 -0.025000 0.000000
0.100000 0.000000 0.000000
0.083758 0.439941 0.000000
-1.226759 0.600000 0.000000
-26.316015 -24.911405 0.000000
140.587708 0.600000 0.000000
-234.301613 0.600000 0.000000
-3.951824 0.600000 0.000000
-2509.301159 0.600000 0.000000
3.896102 0.254423 0.000000
0.792572 -0.621562 0.000000
2.784828 -0.147653 0.000000
-0.804870 -1.364322 0.000000
-58.484531 0.600000 0.000000
-0.387721 0.479973 0.000000
8.501049 -1.472843 0.000000
-2.285462 0.600000 0.000000
-3.962480 -3.397933 0.000000
0.318545 0.157585 0.000000
-30.398036 0.600000 0.000000
1.238446 0.333400 0.000000
1.179450 0.461803 0.000000
0.177580 0.114819 0.000000
3.572714 -4.560306 0.000000
79.842744 0.600000 0.000000
-1078.221449 0.600000 0.000000
1.100000 0.625000 0.000000
1.100000 0.650000 0.000000
1.100000 0.675000 0.000000
0.125000 -0.075000 0.000000
0.125000 -0.050000 0.000000
0.125000 -0.025000 0.000000
0.125000 0.000000 0.000000
-17.001844 0.600000 0.000000
65.587609 0.600000 0.000000
-33.138086 0.600000 0.000000
-12.569123 0.600000 0.000000
0.504764 -1.017281 0.000000
5.429543 -3.545634 0.000000
-28.000587 0.600000 0.000000
-0.324412 -2.834384 0.000000
1138.489252 0.600000 0.000000
-11.716911 -38.730805 0.000000
-10.698918 0.600000 0.000000
-5.866822 0.600000 0.000000
0.492902 0.545305 0.000000
-3.813901 0.053166 0.000000
-13.622865 0.600000 0.000000
-15.569922 0.600000 0.000000
217.932704 0.600000 0.000000
39.462308 0.600000 0.000000
-0.888080 -2.665109 0.000000
-7.955573 -4.485227 0.000000
-5.535049 0.544012 0.000000
51.216765 0.600000 0.000000
27957.282580 0.600000 0.000000
-3919.381279 0.600000 0.000000
1.125000 0.625000 0.000000
1.125000 0.650000 0.000000
1.125000 0.675000 0.000000
0.150000 -0.075000 0.000000
0.150000 -0.050000 0.000000
0.150000 -0.025000 0.000000
0.150000 0.000000 0.000000
-2.497856 0.152310 0.000000
-39.528561 0.600000 0.000000
-0.005903 -1.558223 0.000000
-5.115015 -3.020843 0.000000
1.491028 0.600000 0.000000
0.528433 0.294831 0.000000
-1.776651 0.600000 0.000000
0.276509 -0.508580 0.000000
2.010934 0.353017 0.000000
-95.707320 0.600000 0.000000
-18.981909 -8.234188 0.000000
1.145769 -1.965777 0.000000
-1.656944 -1.541593 0.000000
-1028.609576 0.600000 0.000000
-270.704032 0.600000 0.000000
-6.054835 -2.036665 0.000000
26.535549 0.600000 0.000000
0.526243 -160.391983 0.000000
282.026430 0.600000 0.000000
167.912922 0.600000 0.000000
-246.444170 0.600000 0.000000
6.385480 -13.786476 0.000000
147.280133 0.600000 0.000000
55.892286 0.600000 0.000000
1.150000 0.625000 0.000000
1.150000 0.650000 0.000000
1.150000 0.675000 0.000000
0.175000 -0.075000 0.000000
0.175000 -0.050000 0.000000
0.175000 -0.025000 0.000000
0.175000 0.000000 0.000000
-5.266303 0.600000 0.000000
-6.690399 0.600000 0.000000
0.503152 -1.215050 0.000000
1709.181371 0.600000 0.000000
22.871446 0.600000 0.000000
-6.534779 -4.922893 0.000000
0.898701 -6.049723 0.000000
6.093039 0.600000 0.000000
-53.198905 0.600000 0.000000
-36.004999 -18.388738 0.000000
32.247286 0.600000 0.000000
6.659833 0.600000 0.000000
116.067044 0.600000 0.000000
183.404767 0.600000 0.000000
50.123915 -23.584627 0.000000
-5.469790 0.600000 0.000000
-190.490941 -425.168086 0.000000
99.723945 0.600000 0.000000
677543.386290 0.600000 0.000000
27.739030 0.600000 0.000000
338.287199 0.600000 0.000000
-27.584646 -12.202369 0.000000
-4.092936 -25.928215 0.000000
68.517360 0.600000 0.000000
1.175000 0.625000 0.000000
1.175000 0.650000 0.000000
1.175000 0.675000 0.000000
0.200000 -0.075000 0.000000
0.200000 -0.050000 0.000000
0.200000 -0.025000 0.000000
0.200000 0.000000 0.000000
-19.316719 0.600000 0.000000
-37.239365 0.600000 0.000000
13.827379 -0.202514 0.000000
1.229035 -23.283313 0.000000
-50.221176 0.600000 0.000000
-2.343930 -1.316571 0.000000
363.078239 0.600000 0.000000
6901.430660 0.600000 0.000000
-7.742374 -36.700301 0.000000
1.164703 0.599511 0.000000
[...]
<PointData>
<DataArray NumberOfComponents='1' type='Int32' Name='ParticleType' format='ascii'>
3
3
3
3
3
3
3
3
3
3
3
3
3
3
3
3
3
3
3
3
3
3
3
3
3
3
3
3
3
3
3
3
3
3
3
3
3
3
3
3
3
3
3
3
3
3
3
3
3
3
3
3
3
3
3
3
3
3
2
2
2
2
2
2
2
2
2
2
2
2
2
2
2
2
2
2
2
2
2
2
2
2
2
2
3
3
2
2
2
2
2
2
2
2
2
2
2
2
2
2
2
2
2
2
2
2
2
2
2
2
2
2
3
3
2
2
0
0
0
0
0
0
0
0
0
0
0
0
0
0
0
0
0
0
0
0
0
0
0
0
1
1
1
3
3
2
2
0
0
0
0
0
0
0
0
0
0
0
0
0
0
0
0
0
0
0
0
0
0
0
0
1
1
1
3
3
2
2
0
0
0
0
0
0
0
0
0
0
0
0
0
0
0
0
0
0
0
0
0
0
0
0
1
1
1
3
3
2
2
0
0
0
0
0
0
0
0
0
0
0
0
0
0
0
0
0
0
0
0
0
0
0
0
1
1
1
3
3
2
2
0
0
0
0
0
0
0
0
0
0
0
0
0
0
0
0
0
0
0
0
0
0
0
0
1
1
1
3
3
2
2
0
0
0
0
0
0
0
0
0
0
0
0
0
0
0
0
0
0
0
0
0
0
0
0
1
1
1
3
3
2
2
0
0
0
0
0
0
0
0
0
0
0
0
0
0
0
0
0
0
0
0
0
0
0
0
1
1
1
3
3
2
2
0
0
0
0
0
0
0
0
0
0
0
0
0
0
0
0
0
0
0
0
0
0
0
0
1
1
1
3
3
2
2
0
0
0
0
0
0
0
0
0
0
0
0
0
0
0
0
0
0
0
0
0
0
0
0
1
1
1
3
3
2
2
0
0
0
0
0
0
0
0
0
0
0
0
0
0
0
0
0
0
0
0
0
0
0
0
1
1
1
3
3
2
2
0
0
0
0
0
0
0
0
0
0
0
0
0
0
0
0
0
0
0
0
0
0
0
0
1
1
1
3
3
2
2
0
0
0
0
0
0
0
0
0
0
0
0
0
0
0
0
0
0
0
0
0
0
0
0
1
1
1
3
3
2
2
0
0
0
0
0
0
0
0
0
0
0
0
0
0
0
0
0
0
0
0
0
0
0
0
1
1
1
3
3
2
2
0
0
0
0
0
0
0
0
0
0
0
0
0
0
0
0
0
0
0
0
0
0
0
0
1
1
1
3
3
2
2
0
0
0
0
0
0
0
0
0
0
0
0
0
0
0
0
0
0
0
0
0
0
0
0
1
1
1
3
3
2
2
0
0
0
0
0
0
0
0
0
0
0
0
0
0
0
0
0
0
0
0
0
0
0
0
1
1
1
3
3
2
2
0
0
0
0
0
0
0
0
0
0
0
0
0
0
0
0
0
0
0
0
0
0
0
0
3
3
2
2
0
0
0
0
0
0
0
0
0
0
0
0
0
0
0
0
0
0
0
0
0
0
0
0
3
3
2
2
0
0
0
0
0
0
0
0
0
0
0
0
0
0
0
0
0
0
0
0
0
0
0
0
3
3
2
2
0
0
0
0
0
0
0
0
0
0
0
0
0
0
0
0
0
0
0
0
0
0
0
0
3
3
2
2
0
0
0
0
0
0
0
0
0
0
0
0
0
0
0
0
0
0
0
0
0
0
0
0
3
3
2
2
0
0
0
0
0
0
0
0
0
0
0
0
0
0
0
0
0
0
0
0
0
0
0
0
3
3
2
2
0
0
0
0
0
0
0
0
0
0
0
0
0
0
0
0
0
0
0
0
0
0
0
0
3
3
2
2
0
0
0
0
0
0
0
0
0
0
0
0
0
0
0
0
0
0
0
0
0
0
0
0
3
3
2
2
0
0
0
0
0
0
0
0
0
0
0
0
0
0
0
0
0
0
0
0
0
0
0
0
3
3
2
2
0
0
0
0
0
0
0
0
0
0
0
0
0
0
0
0
0
0
0
0
0
0
0
0
3
3
2
2
0
0
0
0
0
0
0
0
0
0
0
0
0
0
0
0
0
0
0
0
0
0
0
0
3
3
2
2
0
0
0
0
0
0
0
0
0
0
0
0
0
0
0
0
0
0
0
0
0
0
0
0
3
3
2
2
0
0
0
0
0
0
0
0
0
0
0
0
0
0
0
0
0
0
0
0
0
0
0
0
3
3
2
2
0
0
0
0
0
0
0
0
0
0
0
0
0
0
0
0
0
0
0
0
0
0
0
0
3
3
2
2
0
0
0
0
0
0
0
0
0
0
0
0
0
0
0
0
0
0
0
0
0
0
0
0
3
3
2
2
0
0
0
0
0
0
0
0
0
0
0
0
0
0
0
0
0
0
0
0
0
0
0
0
3
3
2
2
0
0
0
0
0
0
0
0
0
0
0
0
0
0
0
0
0
0
0
0
0
0
0
0
3
3
2
2
0
0
0
0
0
0
0
0
0
0
0
0
0
0
0
0
0
0
0
0
0
0
0
0
3
3
2
2
0
0
0
0
0
0
0
0
0
0
0
0
0
0
0
0
0
0
0
0
0
0
0
0
3
3
2
2
0
0
0
0
0
0
0
0
0
0
0
0
0
0
0
0
0
0
0
0
0
0
0
0
3
3
2
2
0
0
0
0
0
0
0
0
0
0
0
0
0
0
0
0
0
0
0
0
0
0
0
0
3
3
2
2
0
0
0
0
0
0
0
0
0
0
0
0
0
0
0
0
0
0
0
0
0
0
0
0
3
3
2
2
0
0
0
0
0
0
0
0
0
0
0
0
0
0
0
0
0
0
0
0
0
0
0
0
3
3
2
2
0
0
0
0
0
0
0
0
0
0
0
0
0
0
0
0
0
0
0
0
0
0
0
0
3
3
2
2
0
0
0
0
0
0
0
0
0
0
0
0
0
0
0
0
0
0
0
0
0
0
0
0
3
3
2
2
0
0
0
0
0
0
0
0
0
0
0
0
0
0
0
0
0
0
0
0
0
0
0
0
3
3
2
2
0
0
0
0
0
0
0
0
0
0
0
0
0
0
0
0
0
0
0
0
0
0
0
0
3
3
2
2
0
0
0
0
0
0
0
0
0
0
0
0
0
0
0
0
0
0
0
0
0
0
0
0
3
3
2
2
0
0
0
0
0
0
0
0
0
0
0
0
0
0
0
0
0
0
0
0
0
0
0
0
3
3
2
2
0
0
0
0
0
0
0
0
0
0
0
0
0
0
0
0
0
0
0
0
0
0
0
0
3
3
2
2
0
0
0
0
0
0
0
0
0
0
0
0
0
0
0
0
0
0
0
0
0
0
0
0
3
3
2
2
0
0
0
0
0
0
0
0
0
0
0
0
0
0
0
0
0
0
0
0
0
0
0
0
3
3
2
2
0
0
0
0
0
0
0
0
0
0
0
0
0
0
0
0
0
0
0
0
0
0
0
0
3
3
2
2
0
0
0
0
0
0
0
0
0
0
0
0
0
0
0
0
0
0
0
0
0
0
0
0
3
3
2
2
0
0
0
0
0
0
0
0
0
0
0
0
0
0
0
0
0
0
0
0
0
0
0
0
3
3
2
2
0
0
0
0
0
0
0
0
0
0
0
0
0
0
0
0
0
0
0
0
0
0
0
0
3
3
2
2
0
0
0
0
0
0
0
0
0
0
0
0
0
0
0
0
0
0
0
0
0
0
0
0
3
3
2
2
0
0
0
0
0
0
0
0
0
0
0
0
0
0
0
0
0
0
0
0
0
0
0
0
3
3
2
2
0
0
0
0
0
0
0
0
0
0
0
0
0
0
0
0
0
0
0
0
0
0
0
0
3
3
2
2
0
0
0
0
0
0
0
0
0
0
0
0
0
0
0
0
0
0
0
0
0
0
0
0
3
3
2
2
0
0
0
0
0
0
0
0
0
0
0
0
0
0
0
0
0
0
0
0
0
0
0
0
3
3
2
2
0
0
0
0
0
0
0
0
0
0
0
0
0
0
0
0
0
0
0
0
0
0
0
0
3
3
2
2
0
0
0
0
0
0
0
0
0
0
0
0
0
0
0
0
0
0
0
0
0
0
0
0
3
3
2
2
0
0
0
0
0
0
0
0
0
0
0
0
0
0
0
0
0
0
0
0
0
0
0
0
3
3
2
2
0
0
0
0
0
0
0
0
0
0
0
0
0
0
0
0
0
0
0
0
0
0
0
0
3
3
2
2
0
0
0
0
0
0
0
0
0
0
0
0
0
0
0
0
0
0
0
0
0
0
0
0
3
3
2
2
0
0
0
0
0
0
0
0
0
0
0
0
0
0
0
0
0
0
0
0
0
0
0
0
3
3
2
2
0
0
0
0
0
0
0
0
0
0
0
0
0
0
0
0
0
0
0
0
0
0
0
0
3
3
2
2
0
0
0
0
0
0
0
0
0
0
0
0
0
0
0
0
0
0
0
0
0
0
0
0
3
3
2
2
0
0
0
0
0
0
0
0
0
0
0
0
0
0
0
0
0
0
0
0
0
0
0
0
3
3
2
2
0
0
0
0
0
0
0
0
0
0
0
0
0
0
0
0
0
0
0
0
0
0
0
0
3
3
2
2
0
0
0
0
0
0
0
0
0
0
0
0
0
0
0
0
0
0
0
0
0
0
0
0
3
3
2
2
0
0
0
0
0
0
0
0
0
0
0
0
0
0
0
0
0
0
0
0
0
0
0
0
3
3
2
2
0
0
0
0
0
0
0
0
0
0
0
0
0
0
0
0
0
0
0
0
0
0
0
0
3
3
2
2
0
0
0
0
0
0
0
0
0
0
0
0
0
0
0
0
0
0
0
0
0
0
0
0
3
3
2
2
0
0
0
0
0
0
0
0
0
0
0
0
0
0
0
0
0
0
0
0
0
0
0
0
3
3
2
2
0
0
0
0
0
0
0
0
0
0
0
0
0
0
0
0
0
0
0
0
0
0
0
0
3
3
2
2
0
0
0
0
0
0
0
0
0
0
0
0
0
0
0
0
0
0
0
0
0
0
0
0
3
3
2
2
0
0
0
0
0
0
0
0
0
0
0
0
0
0
0
0
0
0
0
0
0
0
0
0
3
3
2
2
0
0
0
0
0
0
0
0
0
0
0
0
0
0
0
0
0
0
0
0
0
0
0
0
3
3
2
2
0
0
0
0
0
0
0
0
0
0
0
0
0
0
0
0
0
0
0
0
0
0
0
0
3
3
2
2
0
0
0
0
0
0
0
0
0
0
0
0
0
0
0
0
0
0
0
0
0
0
0
0
3
3
2
2
0
0
0
0
0
0
0
0
0
0
0
0
0
0
0
0
0
0
0
0
0
0
0
0
3
3
2
2
0
0
0
0
0
0
0
0
0
0
0
0
0
0
0
0
0
0
0
0
0
0
0
0
3
3
2
2
2
2
2
2
2
2
2
2
2
2
2
2
2
2
2
2
2
2
2
2
2
2
2
2
3
3
2
2
2
2
2
2
2
2
2
2
2
2
2
2
2
2
2
2
2
2
2
2
2
2
2
2
3
3
3
3
3
3
3
3
3
3
3
3
3
3
3
3
3
3
3
3
3
3
3
3
3
3
3
3
3
3
3
3
3
3
3
3
3
3
3
3
3
3
3
3
3
3
3
3
3
3
3
3
3
3
3
3
</DataArray>
<DataArray NumberOfComponents='1' type='Float32' Name='Velocity' format='ascii'>
0.000000
0.000000
0.000000
0.000000
0.000000
0.000000
0.000000
0.000000
0.000000
0.000000
0.000000
0.000000
0.000000
0.000000
0.000000
0.000000
0.000000
0.000000
0.000000
0.000000
0.000000
0.000000
0.000000
0.000000
0.000000
0.000000
0.000000
0.000000
0.000000
0.000000
0.000000
0.000000
0.000000
0.000000
0.000000
0.000000
0.000000
0.000000
0.000000
0.000000
0.000000
0.000000
0.000000
0.000000
0.000000
0.000000
0.000000
0.000000
0.000000
0.000000
0.000000
0.000000
0.000000
0.000000
0.000000
0.000000
0.000000
0.000000
0.000000
0.000000
0.000000
0.000000
0.000000
0.000000
0.000000
0.000000
0.000000
0.000000
0.000000
0.000000
0.000000
0.000000
0.000000
0.000000
0.000000
0.000000
0.000000
0.000000
0.000000
0.000000
0.000000
0.000000
0.000000
0.000000
0.000000
0.000000
0.000000
0.000000
0.000000
0.000000
0.000000
0.000000
0.000000
0.000000
0.000000
0.000000
0.000000
0.000000
0.000000
0.000000
0.000000
0.000000
0.000000
0.000000
0.000000
0.000000
0.000000
0.000000
0.000000
0.000000
0.000000
0.000000
0.000000
0.000000
0.000000
0.000000
41.852383
208.248489
68.602364
62.545502
44.490341
95356864.000000
110.874092
92.762146
68.379646
22.819965
2971.471191
364.079987
76158.250000
28430.275391
29.388109
898.312988
166.701523
1785.700806
164.947006
1675.820435
1002.451782
1062.961670
2536.467773
83049576.000000
1.000000
1.000000
1.000000
0.000000
0.000000
0.000000
0.000000
136.764465
129.313202
2605.313965
20.745655
6611.973633
40.951603
67.571602
50.210232
47320.343750
49286.804688
123.984886
151.102203
300.480469
117.526443
23500.089844
1137.553589
147.014862
262.570801
2117.708740
486.000214
1448.546875
28239.814453
1149.144653
2972.133789
1.000000
1.000000
1.000000
0.000000
0.000000
0.000000
0.000000
128.693192
451.797760
22.698223
4535.236816
87.599457
53.396770
237.730820
5149.250977
987.190125
642.039062
238.678619
2216.040283
1100.104004
1560.173828
1125.878662
32.719803
5671.319824
3.436771
455.679108
147.418655
6866.591797
365.896729
9610.190430
1705.532227
1.000000
1.000000
1.000000
0.000000
0.000000
0.000000
0.000000
8.974390
250.560318
1578.440430
135656.203125
10448.541016
251.909851
227129.031250
175.592712
46.531227
122.502617
82.854004
2998.456299
88.767593
366.894684
194.201187
273.583496
9.045177
4323.948730
170.431030
30.999107
14.541038
262.066772
3320.679688
41519.296875
1.000000
1.000000
1.000000
0.000000
0.000000
0.000000
0.000000
972.650574
3411.981934
2796.292725
738.195068
67.422615
248.626999
1546.379761
137.863190
81647.500000
1768.812866
717.859619
324.406128
11.327451
480.214172
736.234985
773.630798
10194.280273
2119.707764
169.352264
414.228546
196.201553
3741.583252
998466.625000
324624.781250
1.000000
1.000000
1.000000
0.000000
0.000000
0.000000
0.000000
109.867554
2240.740234
67.323143
295.479340
31.605595
29.621460
198.267929
38.167114
100.936852
6514.527344
868.338379
96.013206
181.303635
42874.503906
12904.244141
268.670685
1260.921631
6998.108398
13420.538086
9315.311523
12991.109375
555.552185
5252.435547
2126.439209
1.000000
1.000000
1.000000
0.000000
0.000000
0.000000
0.000000
297.307312
6835.279785
58.651230
107051.000000
1226.007568
335.597931
258.335510
319.636719
2508.034424
1694.543335
31802.394531
370.131012
5387.066895
8406.717773
3476.733887
730.636841
17934.873047
6927.473145
37641568.000000
1225.048950
12991.822266
1128.417358
925.754272
3024.854004
1.000000
1.000000
1.000000
0.000000
0.000000
0.000000
0.000000
959.205261
2604.656982
1055.259155
935.144653
2479.829834
115.432846
27921.142578
287566.156250
1580.739380
371.810944
96.234581
123.829681
317.294708
122.292107
1329.488037
15052.442383
1064.468018
1784.081177
1116.423096
4261.553223
17893.681641
2263.002930
1867.479614
2421.553711
1.000000
1.000000
1.000000
0.000000
0.000000
0.000000
0.000000
121.322067
10989698.000000
2048.739990
79.152260
684.440613
190.462189
20260.892578
484.207031
11.942793
361.932037
6485.925293
388.104828
8532.743164
924.366211
152.563004
0.903464
174156.296875
198.139084
262.050842
68543.257812
1487.068726
26142.734375
92.482506
191028.375000
1.000000
1.000000
1.000000
0.000000
0.000000
0.000000
0.000000
43348.957031
291.403961
127.089462
9029.447266
161.964035
668.293762
685.993286
12968.504883
190196.296875
584.477722
161.249161
938.283752
1674.242676
197.903534
91.470642
56.248932
266763.218750
153.577103
10.335112
289706.187500
493.497467
1121.580933
95400.992188
95085.898438
1.000000
1.000000
1.000000
0.000000
0.000000
0.000000
0.000000
62.710434
129.381882
1765.211792
38.003529
81.068634
13.277556
88.533913
156.951233
243.052185
162.987656
857.084717
2961.128174
1358.193115
666.423706
304234.031250
60897.406250
109189544.000000
855.243347
43347.976562
5720.752930
123.458763
1254.337769
3759.842041
4082.146973
1.000000
1.000000
1.000000
0.000000
0.000000
0.000000
0.000000
288.875977
1010911488.000000
272.253143
313831.718750
43311.808594
41954936.000000
8036.635742
9932.443359
326.471313
80.114754
1032.358887
11015329.000000
861.480164
7859819520.000000
26.208418
57765.035156
117242.046875
2048.735352
373.201996
21.615343
7545.508789
6939.798340
161842336.000000
7708.013672
1.000000
1.000000
1.000000
0.000000
0.000000
0.000000
0.000000
820.421570
296.278107
98.806648
88.459892
102.082626
10578.002930
146.064682
162.896484
138.088165
2392.414062
6692.508789
1619.869995
343.619507
58.879818
3222.886230
376.489136
280.839142
33.399551
424.562378
1686.887085
672.282898
68.146637
39987.777344
3991.807373
1.000000
1.000000
1.000000
0.000000
0.000000
0.000000
0.000000
80.495316
256.284973
180.886063
31.652103
235.112930
340.465363
2289.556396
7071.707031
354.395172
1091.899902
20031.585938
70.434700
399.660278
251.098602
243.816803
3780.553711
49153.632812
261.461029
90296.835938
274.348145
6454.479980
1080.606934
4566.451660
998081.687500
1.000000
1.000000
1.000000
0.000000
0.000000
0.000000
0.000000
84.276222
81898.601562
120.614601
20.588650
139.296738
594.157349
24.094383
1508.534058
41956152.000000
79.230804
863.143677
199.604568
339448.062500
593.375610
482.158295
707.210205
1120.320068
221.569565
1202.203979
48.238358
1561.261108
82941672.000000
850.049133
15229.278320
1.000000
1.000000
1.000000
0.000000
0.000000
0.000000
0.000000
1402.043335
44920.707031
317.647552
281.504486
58.439102
909.023010
140.078308
1764.746216
215.332916
2422.743896
17711.582031
445.930206
2870.205566
649.105164
11.799216
48621.339844
93.801575
12590.312500
3792.221191
1771.168579
125.345100
1775.990356
1127.172363
15809.734375
1.000000
1.000000
1.000000
0.000000
0.000000
0.000000
0.000000
238.406876
1096.520142
195.642654
16.792139
792.553711
68.904640
1655.094604
2045.788940
4755.667480
122.534111
612.662170
4968.294434
716.081482
57.043198
276.318024
128.100311
361.804016
287.042633
159659.765625
187.701096
5939.169922
67.897667
98.228500
4415.275879
0.000000
0.000000
0.000000
0.000000
56.367264
39281.597656
2574.103760
149.288330
2674.602539
4871.343750
2315.981445
56.785892
2225.043457
21140.927734
6729.365234
7730.268555
193.287460
98441824.000000
1601.047974
349.105255
112.529648
16.167196
416.552856
552.708252
96046.179688
27242.652344
143.532394
1083.623901
0.000000
0.000000
0.000000
0.000000
1911.838745
203.682678
130.470047
373.514526
295.266693
5024.906250
117.652458
59.733421
37.365295
7906.499512
1303.038574
3710.636719
98599.789062
229.624283
128.343811
156.336014
285.389343
527.753296
4829300.500000
19885750.000000
1329.145630
2053.824219
607.985718
15962.000000
0.000000
0.000000
0.000000
0.000000
49.523979
1362.158813
583.551636
3207.477051
3087.250244
103.793228
13265.662109
465.723633
123.120621
288258.031250
44.710243
1294.204102
522.472961
43177.699219
897.309021
1308.917725
2023.719238
14036.122070
195.907288
49.165470
2958.520508
692.094910
1213.833496
4774220.000000
0.000000
0.000000
0.000000
0.000000
1676.410645
1347.464478
157.028900
3585.919189
43065.179688
674.802795
404.039551
351.153015
681.342957
301.018311
1742.099731
268.447632
418.222809
162.819366
117.789200
98.211151
5530499.500000
209.423431
1237.087402
346.485352
4797.798340
1799.582642
2406.156738
2164.757324
0.000000
0.000000
0.000000
0.000000
122.703461
728.553894
46.531540
1666460.000000
23588.033203
278.117401
59.745014
69.521805
1763.449829
6722.769043
203547328.000000
133.860260
1585.159912
811.047241
272.602356
111.448982
734.561523
301.366333
185.553711
324.157013
1347.580078
307293.531250
341.482056
1153.618286
0.000000
0.000000
0.000000
0.000000
161.108093
1383.099609
262.625153
1452.383423
118.615913
2202.757568
233.532028
39930.316406
93.094688
30677.171875
1209.611206
223.698730
3254.380615
59.012993
3123.079590
102359.648438
1628.186890
151.060013
3864.639648
248.238052
38518.199219
117.008308
517.265747
2748.734863
0.000000
0.000000
0.000000
0.000000
64.998024
14.221779
42.594753
69.850525
20.471226
207.116684
57535692.000000
21699.972656
792.117493
885.483521
18.584049
1935943.625000
136.661972
96.783127
2179.862305
826.448608
1157.464600
1433.834839
4917.854004
1111.862183
203547792.000000
27107.343750
3433.404541
9517.494141
0.000000
0.000000
0.000000
0.000000
118.026657
618.796021
283.198792
8.240122
139931.171875
81.015625
13827.908203
1192.230957
34.133610
335.618561
1028.497192
1854.819580
8204.294922
28250.359375
1557.333740
185.140045
252.779587
305.413055
1240.808960
8.203503
15372175.000000
108.087601
415.637665
1056.275146
0.000000
0.000000
0.000000
0.000000
616.421082
1.162239
3272.825439
904.788330
2118.071777
290.822937
709960.875000
348.527222
445.214386
8979.519531
671.099854
126.932159
40.718098
46.777397
439.373596
8.361147
1013.673340
849.063171
3540.926514
300.421143
3785.406006
12455.862305
5613.187988
4545.331055
0.000000
0.000000
0.000000
0.000000
1065.799072
183.168793
10160.076172
21743.789062
15.342733
43.971985
81155.101562
140147.875000
1931.548584
90.800728
27.461679
324.123047
1270.279907
7.960964
878.524658
44.752766
64.979195
78.036552
210.368668
949.548462
2230.937500
990.660034
154.763779
1799.544312
0.000000
0.000000
0.000000
0.000000
16073.861328
69402.585938
858.018982
68.539925
205149.765625
798.568481
160.223114
73.895470
1243.049438
86.138260
24622.845703
22169.115234
253.597778
10534.199219
365.642029
284.747711
1437.157349
1408.667114
9.782378
27196.623047
234.227921
1034.649292
86.249199
8849.980469
0.000000
0.000000
0.000000
0.000000
16159.625977
112181.335938
799.951355
1518.996460
122.606903
94768.734375
303.247314
3163.252441
3157.217285
128.435837
449.778351
19.603020
1065.964478
5455.564453
12373.746094
87.896538
81594.234375
6.671087
576.817627
960.620239
163329.281250
107688.375000
1083.947144
2094.066406
0.000000
0.000000
0.000000
0.000000
468.648499
71.978355
66.098801
110.023987
107776.703125
3882.250977
1705.202026
234.408401
31.077269
663460.062500
2122.653564
1523.618164
992.076904
23744.496094
48.057877
148.666367
99.455147
104.998611
135.096115
228.176453
222.418640
2275.449219
370.122314
1859.509033
0.000000
0.000000
0.000000
0.000000
12855.010742
57.828773
32.796494
652.226379
257.842682
303.678009
83.106689
96.554420
10.863456
22493.873047
29818181648384.000000
493.314087
201.211136
1072.679443
169.957077
811.534790
299.946899
137.798706
294.435394
32.023884
712.778015
32273.306641
7105.254395
6864.004395
0.000000
0.000000
0.000000
0.000000
1983.780518
11138.599609
1777.333130
152.035324
1716.989014
4642.838867
330.293091
12981.730469
19754.943359
342.325104
2986.000000
331.698181
800.897461
248.050064
66.894096
609.549194
1219.838745
17.643648
81.313469
3668.926758
154.014160
375.342133
1717.802246
20957.822266
0.000000
0.000000
0.000000
0.000000
77.785179
65.317924
3365.043701
203.625458
19576.263672
1301.245361
13.637522
477.219971
34.702576
121.189873
28.497126
68.505524
95.413887
1251777920.000000
3623.207520
151.869156
256.432404
202.612701
125.636421
39096.644531
273.800934
5787.493164
22676.626953
5687.888672
0.000000
0.000000
0.000000
0.000000
109266000.000000
31.928232
1113.346924
90.351334
164.406647
1316.072021
48.268906
95356440.000000
1635.421997
16809.400391
1744.462646
142.069504
27.296968
82.596123
24338.193359
244.637772
4764.644531
827.908752
1144.070068
95.885902
299.319122
2315.644531
11944.709961
4388.050781
0.000000
0.000000
0.000000
0.000000
128181.062500
34.171959
215609.859375
316.113281
90.227539
21.467382
151.212402
386.350433
544.722473
13221.023438
46276.222656
185422.390625
1041.530151
29612.705078
1198.233643
2582.990723
6082527.000000
239.305054
577.588440
46.301651
14900.023438
371.211761
2758.679199
23664962.000000
0.000000
0.000000
0.000000
0.000000
190375.000000
101.569504
552.146790
224.051956
22318.679688
3955.029785
9132.341797
117335.429688
1663.770264
780.778809
69.603294
684.446350
36312.191406
158.784454
40.183804
169.301315
202056.750000
4896.085938
1318.162476
9.277519
1743.798706
447.226562
707.370422
2220.880615
0.000000
0.000000
0.000000
0.000000
66.896637
4.069476
19159504.000000
918.932312
127.910904
406.984436
45.152935
2716.188721
362.509033
15205.987305
341.830383
420.076294
4112.028809
281.343475
327.130554
113043.070312
1572.491333
3447.472412
2616.051025
3027.075684
900.990417
755.138550
39003.500000
9342.838867
0.000000
0.000000
0.000000
0.000000
56.572868
240.822144
483.094971
8088.226074
752.115784
607.490784
2773.281738
167.179794
15410.380859
27.703991
1703.874268
278.339203
112.868790
77766.078125
1206.755615
2774.607422
650.315002
304.126465
3271.708984
1633.133301
528.915283
174255.125000
449.132965
79955.406250
0.000000
0.000000
0.000000
0.000000
27.685446
118.244095
112.682472
810.206421
99.111320
206.004898
74.488998
52.922077
15372272.000000
124.067436
80961.054688
448975.000000
1671.810791
152.071060
282.778046
98099.492188
2749.911621
944355.062500
362.335480
125.999886
21624.722656
66.066185
131.255615
4929.031738
0.000000
0.000000
0.000000
0.000000
83570.070312
170.063965
912.041687
2175.637695
1036.628418
173768.343750
72.516953
600.012329
436.252960
35.217503
205.269287
478.316711
3.292762
3971.671631
2818.573242
59.136177
254.931717
307.287903
214.266678
791.033386
694.599792
111.247421
203.364990
705.916382
0.000000
0.000000
0.000000
0.000000
106.552582
103.693420
169.700134
319320.968750
2211.982666
13.006259
216.855240
3245.344727
401.278687
6084.098633
12.204976
21588.824219
36.221134
425.882904
8697.606445
166.844818
24.458239
128166.570312
17500.730469
4529.978027
7180.472168
196816.921875
141.261230
7760.895020
0.000000
0.000000
0.000000
0.000000
332.780518
150.811020
285.257721
89.041862
12263.668945
2669.343262
3063.306396
38.316795
68835.500000
164.676315
215246224.000000
4244.406738
869.781921
225.434937
97.496124
488973.312500
30.151453
112331.835938
1709.138062
112.861923
2608.359863
2067.387207
85.505821
1156.782471
0.000000
0.000000
0.000000
0.000000
29.285986
1159.951538
448279.656250
8.931032
271.830750
233.052078
169.511490
5260.908691