<?xml version='1.0' encoding='UTF-8'?>
<VTKFile xmlns='VTK' byte_order='LittleEndian' version='0.1' type='UnstructuredGrid'>
<UnstructuredGrid>
<Piece NumberOfCells='2512' NumberOfPoints='2512'>
<Points>
<DataArray NumberOfComponents='3' type='Float32' Name='Position' format='ascii'>
-0.075000 -0.075000 0.000000
-0.075000 -0.050000 0.000000
-0.075000 -0.025000 0.000000
-0.075000 0.000000 0.000000
-0.075000 0.025000 0.000000
-0.075000 0.050000 0.000000
-0.075000 0.075000 0.000000
-0.075000 0.100000 0.000000
-0.075000 0.125000 0.000000
-0.075000 0.150000 0.000000
-0.075000 0.175000 0.000000
-0.075000 0.200000 0.000000
-0.075000 0.225000 0.000000
-0.075000 0.250000 0.000000
-0.075000 0.275000 0.000000
-0.075000 0.300000 0.000000
-0.075000 0.325000 0.000000
-0.075000 0.350000 0.000000
-0.075000 0.375000 0.000000
-0.075000 0.400000 0.000000
-0.075000 0.425000 0.000000
-0.075000 0.450000 0.000000
-0.075000 0.475000 0.000000
-0.075000 0.500000 0.000000
-0.075000 0.525000 0.000000
-0.075000 0.550000 0.000000
-0.075000 0.575000 0.000000
-0.075000 0.600000 0.000000
-0.050000 -0.075000 0.000000
-0.050000 -0.050000 0.000000
-0.050000 -0.025000 0.000000
-0.050000 0.000000 0.000000
-0.050000 0.025000 0.000000
-0.050000 0.050000 0.000000
-0.050000 0.075000 0.000000
-0.050000 0.100000 0.000000
-0.050000 0.125000 0.000000
-0.050000 0.150000 0.000000
-0.050000 0.175000 0.000000
-0.050000 0.200000 0.000000
-0.050000 0.225000 0.000000
-0.050000 0.250000 0.000000
-0.050000 0.275000 0.000000
-0.050000 0.300000 0.000000
-0.050000 0.325000 0.000000
-0.050000 0.350000 0.000000
-0.050000 0.375000 0.000000
-0.050000 0.400000 0.000000
-0.050000 0.425000 0.000000
-0.050000 0.450000 0.000000
-0.050000 0.475000 0.000000
-0.050000 0.500000 0.000000
-0.050000 0.525000 0.000000
-0.050000 0.550000 0.000000
-0.050000 0.575000 0.000000
-0.050000 0.600000 0.000000
-0.025000 -0.075000 0.000000
-0.025000 -0.050000 0.000000
-0.025000 -0.025000 0.000000
-0.025000 0.000000 0.000000
-0.025000 0.025000 0.000000
-0.025000 0.050000 0.000000
-0.025000 0.075000 0.000000
-0.025000 0.100000 0.000000
-0.025000 0.125000 0.000000
-0.025000 0.150000 0.000000
-0.025000 0.175000 0.000000
-0.025000 0.200000 0.000000
-0.025000 0.225000 0.000000
-0.025000 0.250000 0.000000
-0.025000 0.275000 0.000000
-0.025000 0.300000 0.000000
-0.025000 0.325000 0.000000
-0.025000 0.350000 0.000000
-0.025000 0.375000 0.000000
-0.025000 0.400000 0.000000
-0.025000 0.425000 0.000000
-0.025000 0.450000 0.000000
-0.025000 0.475000 0.000000
-0.025000 0.500000 0.000000
-0.025000 0.525000 0.000000
-0.025000 0.550000 0.000000
-0.025000 0.575000 0.000000
-0.025000 0.600000 0.000000
0.000000 -0.075000 0.000000
0.000000 -0.050000 0.000000
0.000000 -0.025000 0.000000
0.000000 0.000000 0.000000
0.000000 0.025000 0.000000
0.000000 0.050000 0.000000
0.000000 0.075000 0.000000
0.000000 0.100000 0.000000
0.000000 0.125000 0.000000
0.000000 0.150000 0.000000
0.000000 0.175000 0.000000
0.000000 0.200000 0.000000
0.000000 0.225000 0.000000
0.000000 0.250000 0.000000
0.000000 0.275000 0.000000
0.000000 0.300000 0.000000
0.000000 0.325000 0.000000
0.000000 0.350000 0.000000
0.000000 0.375000 0.000000
0.000000 0.400000 0.000000
0.000000 0.425000 0.000000
0.000000 0.450000 0.000000
0.000000 0.475000 0.000000
0.000000 0.500000 0.000000
0.000000 0.525000 0.000000
0.000000 0.550000 0.000000
0.000000 0.575000 0.000000
0.000000 0.600000 0.000000
0.025000 -0.075000 0.000000
0.025000 -0.050000 0.000000
0.025000 -0.025000 0.000000
0.025000 0.000000 0.000000
0.024421 0.024326 0.000000
0.025910 0.050268 0.000000
0.025283 0.071399 0.000000
0.024338 0.097875 0.000000
0.021373 0.138113 0.000000
0.025294 0.169810 0.000000
0.025115 0.194167 0.000000
0.023012 0.221284 0.000000
0.025501 0.250796 0.000000
0.026142 0.274264 0.000000
0.023029 0.299691 0.000000
0.027149 0.323548 0.000000
0.025201 0.346511 0.000000
0.025989 0.369704 0.000000
0.024335 0.393298 0.000000
0.023480 0.421462 0.000000
0.023849 0.456396 0.000000
0.025310 0.482894 0.000000
0.024826 0.508211 0.000000
0.026832 0.530737 0.000000
0.026884 0.579697 0.000000
0.036925 0.600000 0.000000
0.054998 0.600000 0.000000
0.015083 0.600000 0.000000
0.775000 0.625000 0.000000
0.775000 0.650000 0.000000
0.775000 0.675000 0.000000
0.050000 -0.075000 0.000000
0.050000 -0.050000 0.000000
0.050000 -0.025000 0.000000
0.050000 0.000000 0.000000
0.048943 0.028270 0.000000
0.055503 0.051272 0.000000
0.050698 0.075709 0.000000
0.035435 0.113895 0.000000
0.041062 0.149077 0.000000
0.049937 0.178668 0.000000
0.047496 0.204006 0.000000
0.045281 0.230230 0.000000
0.049381 0.257925 0.000000
0.053221 0.279476 0.000000
0.050458 0.303615 0.000000
0.052660 0.333845 0.000000
0.052258 0.361039 0.000000
0.053307 0.385586 0.000000
0.046611 0.410554 0.000000
0.040585 0.435210 0.000000
0.045732 0.467144 0.000000
0.048377 0.493949 0.000000
0.055993 0.519124 0.000000
0.057380 0.542172 0.000000
0.024712 0.552257 0.000000
0.066731 0.578822 0.000000
0.098941 0.579055 0.000000
0.074898 0.600000 0.000000
0.800000 0.625000 0.000000
0.800000 0.650000 0.000000
0.800000 0.675000 0.000000
0.075000 -0.075000 0.000000
0.075000 -0.050000 0.000000
0.075000 -0.025000 0.000000
0.075000 0.000000 0.000000
0.094480 0.029786 0.000000
0.071067 0.023589 0.000000
0.065640 0.088747 0.000000
0.059541 0.111109 0.000000
0.060378 0.133036 0.000000
0.065310 0.162170 0.000000
0.077977 0.186860 0.000000
0.071681 0.211556 0.000000
0.068235 0.238182 0.000000
0.081777 0.262116 0.000000
0.078903 0.286028 0.000000
0.066721 0.315591 0.000000
0.071546 0.351099 0.000000
0.079768 0.375791 0.000000
0.070052 0.403004 0.000000
0.076111 0.425567 0.000000
0.064192 0.445689 0.000000
0.070281 0.470989 0.000000
0.073923 0.498042 0.000000
0.080520 0.523207 0.000000
0.080921 0.556223 0.000000
0.047659 0.563188 0.000000
0.094455 0.600000 0.000000
0.114127 0.600000 0.000000
0.825000 0.625000 0.000000
0.825000 0.650000 0.000000
0.825000 0.675000 0.000000
0.100000 -0.075000 0.000000
0.100000 -0.050000 0.000000
0.100000 -0.025000 0.000000
0.100000 0.000000 0.000000
0.116276 0.023190 0.000000
0.078646 0.055548 0.000000
0.090420 0.099295 0.000000
0.085881 0.126140 0.000000
0.086154 0.151796 0.000000
0.109774 0.164637 0.000000
0.097528 0.185451 0.000000
0.089484 0.223864 0.000000
0.099211 0.246593 0.000000
0.103320 0.276867 0.000000
0.093781 0.305011 0.000000
0.091644 0.333005 0.000000
0.101174 0.354876 0.000000
0.103951 0.379543 0.000000
0.098082 0.404035 0.000000
0.108560 0.425129 0.000000
0.090328 0.446333 0.000000
0.091358 0.476653 0.000000
0.112840 0.487913 0.000000
0.100958 0.507932 0.000000
0.096378 0.539535 0.000000
0.112224 0.559990 0.000000
0.133752 0.578993 0.000000
0.132969 0.600000 0.000000
0.850000 0.625000 0.000000
0.850000 0.650000 0.000000
0.850000 0.675000 0.000000
0.125000 -0.075000 0.000000
0.125000 -0.050000 0.000000
0.125000 -0.025000 0.000000
0.125000 0.000000 0.000000
0.140929 0.027241 0.000000
0.103668 0.052948 0.000000
0.093788 0.074382 0.000000
0.110112 0.108965 0.000000
0.107588 0.136292 0.000000
0.128999 0.146090 0.000000
0.124571 0.183964 0.000000
0.112783 0.210084 0.000000
0.124995 0.231555 0.000000
0.121228 0.256067 0.000000
0.115855 0.297430 0.000000
0.136986 0.315894 0.000000
0.112912 0.326414 0.000000
0.122955 0.359814 0.000000
0.140564 0.382379 0.000000
0.121215 0.398736 0.000000
0.134689 0.420594 0.000000
0.112734 0.449222 0.000000
0.127956 0.472416 0.000000
0.128175 0.541354 0.000000
0.145320 0.555446 0.000000
0.165367 0.585851 0.000000
0.189524 0.572950 0.000000
0.151969 0.600000 0.000000
0.875000 0.625000 0.000000
0.875000 0.650000 0.000000
0.875000 0.675000 0.000000
0.150000 -0.075000 0.000000
0.150000 -0.050000 0.000000
0.150000 -0.025000 0.000000
0.150000 0.000000 0.000000
0.160794 0.024478 0.000000
0.124328 0.061603 0.000000
0.120491 0.088985 0.000000
0.148974 0.099152 0.000000
0.136833 0.118603 0.000000
0.149528 0.155078 0.000000
0.146150 0.179510 0.000000
0.136305 0.210779 0.000000
0.150516 0.227830 0.000000
0.141835 0.262839 0.000000
0.139314 0.286922 0.000000
0.159706 0.308513 0.000000
0.138632 0.338523 0.000000
0.152273 0.364229 0.000000
0.153871 0.405468 0.000000
0.156249 0.436796 0.000000
0.136763 0.450192 0.000000
0.153447 0.480299 0.000000
0.121427 0.517034 0.000000
0.143510 0.502920 0.000000
0.149496 0.522925 0.000000
0.167603 0.557954 0.000000
0.196757 0.600000 0.000000
0.178923 0.600000 0.000000
0.900000 0.625000 0.000000
0.900000 0.650000 0.000000
0.900000 0.675000 0.000000
0.175000 -0.075000 0.000000
0.175000 -0.050000 0.000000
0.175000 -0.025000 0.000000
0.175000 0.000000 0.000000
0.189201 0.025772 0.000000
0.147179 0.052735 0.000000
0.143592 0.076472 0.000000
0.173468 0.106618 0.000000
0.157174 0.128119 0.000000
0.173268 0.148365 0.000000
0.179628 0.173183 0.000000
0.163396 0.193833 0.000000
0.172409 0.224074 0.000000
0.164416 0.261611 0.000000
0.163423 0.285431 0.000000
0.181529 0.319572 0.000000
0.161411 0.343508 0.000000
0.185767 0.365951 0.000000
0.171413 0.385264 0.000000
0.175558 0.413537 0.000000
0.164712 0.460095 0.000000
0.190836 0.467079 0.000000
0.174191 0.491733 0.000000
0.182070 0.512887 0.000000
0.170711 0.534182 0.000000
0.196147 0.543264 0.000000
0.213844 0.571562 0.000000
0.215415 0.600000 0.000000
0.925000 0.625000 0.000000
0.925000 0.650000 0.000000
0.925000 0.675000 0.000000
0.200000 -0.075000 0.000000
0.200000 -0.050000 0.000000
0.200000 -0.025000 0.000000
0.200000 0.000000 0.000000
0.212431 0.025394 0.000000
0.170002 0.059322 0.000000
0.179722 0.081182 0.000000
0.198112 0.096904 0.000000
0.187362 0.125834 0.000000
0.200050 0.149939 0.000000
0.185748 0.196644 0.000000
0.199366 0.226455 0.000000
0.179616 0.243758 0.000000
0.195528 0.274114 0.000000
0.191485 0.293856 0.000000
0.210824 0.306790 0.000000
0.186756 0.339478 0.000000
0.207612 0.362566 0.000000
0.193386 0.394897 0.000000
0.201377 0.423853 0.000000
0.182518 0.438632 0.000000
0.207284 0.450987 0.000000
0.199982 0.488993 0.000000
0.219842 0.498630 0.000000
0.203495 0.523935 0.000000
0.222335 0.550065 0.000000
[...]
<PointData>
<DataArray NumberOfComponents='1' type='Int32' Name='ParticleType' format='ascii'>
3
3
3
3
3
3
3
3
3
3
3
3
3
3
3
3
3
3
3
3
3
3
3
3
3
3
3
3
3
3
3
3
3
3
3
3
3
3
3
3
3
3
3
3
3
3
3
3
3
3
3
3
3
3
3
3
3
3
2
2
2
2
2
2
2
2
2
2
2
2
2
2
2
2
2
2
2
2
2
2
2
2
2
2
3
3
2
2
2
2
2
2
2
2
2
2
2
2
2
2
2
2
2
2
2
2
2
2
2
2
2
2
3
3
2
2
0
0
0
0
0
0
0
0
0
0
0
0
0
0
0
0
0
0
0
0
0
0
0
0
1
1
1
3
3
2
2
0
0
0
0
0
0
0
0
0
0
0
0
0
0
0
0
0
0
0
0
0
0
0
0
1
1
1
3
3
2
2
0
0
0
0
0
0
0
0
0
0
0
0
0
0
0
0
0
0
0
0
0
0
0
0
1
1
1
3
3
2
2
0
0
0
0
0
0
0
0
0
0
0
0
0
0
0
0
0
0
0
0
0
0
0
0
1
1
1
3
3
2
2
0
0
0
0
0
0
0
0
0
0
0
0
0
0
0
0
0
0
0
0
0
0
0
0
1
1
1
3
3
2
2
0
0
0
0
0
0
0
0
0
0
0
0
0
0
0
0
0
0
0
0
0
0
0
0
1
1
1
3
3
2
2
0
0
0
0
0
0
0
0
0
0
0
0
0
0
0
0
0
0
0
0
0
0
0
0
1
1
1
3
3
2
2
0
0
0
0
0
0
0
0
0
0
0
0
0
0
0
0
0
0
0
0
0
0
0
0
1
1
1
3
3
2
2
0
0
0
0
0
0
0
0
0
0
0
0
0
0
0
0
0
0
0
0
0
0
0
0
1
1
1
3
3
2
2
0
0
0
0
0
0
0
0
0
0
0
0
0
0
0
0
0
0
0
0
0
0
0
0
1
1
1
3
3
2
2
0
0
0
0
0
0
0
0
0
0
0
0
0
0
0
0
0
0
0
0
0
0
0
0
1
1
1
3
3
2
2
0
0
0
0
0
0
0
0
0
0
0
0
0
0
0
0
0
0
0
0
0
0
0
0
1
1
1
3
3
2
2
0
0
0
0
0
0
0
0
0
0
0
0
0
0
0
0
0
0
0
0
0
0
0
0
1
1
1
3
3
2
2
0
0
0
0
0
0
0
0
0
0
0
0
0
0
0
0
0
0
0
0
0
0
0
0
1
1
1
3
3
2
2
0
0
0
0
0
0
0
0
0
0
0
0
0
0
0
0
0
0
0
0
0
0
0
0
1
1
1
3
3
2
2
0
0
0
0
0
0
0
0
0
0
0
0
0
0
0
0
0
0
0
0
0
0
0
0
1
1
1
3
3
2
2
0
0
0
0
0
0
0
0
0
0
0
0
0
0
0
0
0
0
0
0
0
0
0
0
3
3
2
2
0
0
0
0
0
0
0
0
0
0
0
0
0
0
0
0
0
0
0
0
0
0
0
0
3
3
2
2
0
0
0
0
0
0
0
0
0
0
0
0
0
0
0
0
0
0
0
0
0
0
0
0
3
3
2
2
0
0
0
0
0
0
0
0
0
0
0
0
0
0
0
0
0
0
0
0
0
0
0
0
3
3
2
2
0
0
0
0
0
0
0
0
0
0
0
0
0
0
0
0
0
0
0
0
0
0
0
0
3
3
2
2
0
0
0
0
0
0
0
0
0
0
0
0
0
0
0
0
0
0
0
0
0
0
0
0
3
3
2
2
0
0
0
0
0
0
0
0
0
0
0
0
0
0
0
0
0
0
0
0
0
0
0
0
3
3
2
2
0
0
0
0
0
0
0
0
0
0
0
0
0
0
0
0
0
0
0
0
0
0
0
0
3
3
2
2
0
0
0
0
0
0
0
0
0
0
0
0
0
0
0
0
0
0
0
0
0
0
0
0
3
3
2
2
0
0
0
0
0
0
0
0
0
0
0
0
0
0
0
0
0
0
0
0
0
0
0
0
3
3
2
2
0
0
0
0
0
0
0
0
0
0
0
0
0
0
0
0
0
0
0
0
0
0
0
0
3
3
2
2
0
0
0
0
0
0
0
0
0
0
0
0
0
0
0
0
0
0
0
0
0
0
0
0
3
3
2
2
0
0
0
0
0
0
0
0
0
0
0
0
0
0
0
0
0
0
0
0
0
0
0
0
3
3
2
2
0
0
0
0
0
0
0
0
0
0
0
0
0
0
0
0
0
0
0
0
0
0
0
0
3
3
2
2
0
0
0
0
0
0
0
0
0
0
0
0
0
0
0
0
0
0
0
0
0
0
0
0
3
3
2
2
0
0
0
0
0
0
0
0
0
0
0
0
0
0
0
0
0
0
0
0
0
0
0
0
3
3
2
2
0
0
0
0
0
0
0
0
0
0
0
0
0
0
0
0
0
0
0
0
0
0
0
0
3
3
2
2
0
0
0
0
0
0
0
0
0
0
0
0
0
0
0
0
0
0
0
0
0
0
0
0
3
3
2
2
0
0
0
0
0
0
0
0
0
0
0
0
0
0
0
0
0
0
0
0
0
0
0
0
3
3
2
2
0
0
0
0
0
0
0
0
0
0
0
0
0
0
0
0
0
0
0
0
0
0
0
0
3
3
2
2
0
0
0
0
0
0
0
0
0
0
0
0
0
0
0
0
0
0
0
0
0
0
0
0
3
3
2
2
0
0
0
0
0
0
0
0
0
0
0
0
0
0
0
0
0
0
0
0
0
0
0
0
3
3
2
2
0
0
0
0
0
0
0
0
0
0
0
0
0
0
0
0
0
0
0
0
0
0
0
0
3
3
2
2
0
0
0
0
0
0
0
0
0
0
0
0
0
0
0
0
0
0
0
0
0
0
0
0
3
3
2
2
0
0
0
0
0
0
0
0
0
0
0
0
0
0
0
0
0
0
0
0
0
0
0
0
3
3
2
2
0
0
0
0
0
0
0
0
0
0
0
0
0
0
0
0
0
0
0
0
0
0
0
0
3
3
2
2
0
0
0
0
0
0
0
0
0
0
0
0
0
0
0
0
0
0
0
0
0
0
0
0
3
3
2
2
0
0
0
0
0
0
0
0
0
0
0
0
0
0
0
0
0
0
0
0
0
0
0
0
3
3
2
2
0
0
0
0
0
0
0
0
0
0
0
0
0
0
0
0
0
0
0
0
0
0
0
0
3
3
2
2
0
0
0
0
0
0
0
0
0
0
0
0
0
0
0
0
0
0
0
0
0
0
0
0
3
3
2
2
0
0
0
0
0
0
0
0
0
0
0
0
0
0
0
0
0
0
0
0
0
0
0
0
3
3
2
2
0
0
0
0
0
0
0
0
0
0
0
0
0
0
0
0
0
0
0
0
0
0
0
0
3
3
2
2
0
0
0
0
0
0
0
0
0
0
0
0
0
0
0
0
0
0
0
0
0
0
0
0
3
3
2
2
0
0
0
0
0
0
0
0
0
0
0
0
0
0
0
0
0
0
0
0
0
0
0
0
3
3
2
2
0
0
0
0
0
0
0
0
0
0
0
0
0
0
0
0
0
0
0
0
0
0
0
0
3
3
2
2
0
0
0
0
0
0
0
0
0
0
0
0
0
0
0
0
0
0
0
0
0
0
0
0
3
3
2
2
0
0
0
0
0
0
0
0
0
0
0
0
0
0
0
0
0
0
0
0
0
0
0
0
3
3
2
2
0
0
0
0
0
0
0
0
0
0
0
0
0
0
0
0
0
0
0
0
0
0
0
0
3
3
2
2
0
0
0
0
0
0
0
0
0
0
0
0
0
0
0
0
0
0
0
0
0
0
0
0
3
3
2
2
0
0
0
0
0
0
0
0
0
0
0
0
0
0
0
0
0
0
0
0
0
0
0
0
3
3
2
2
0
0
0
0
0
0
0
0
0
0
0
0
0
0
0
0
0
0
0
0
0
0
0
0
3
3
2
2
0
0
0
0
0
0
0
0
0
0
0
0
0
0
0
0
0
0
0
0
0
0
0
0
3
3
2
2
0
0
0
0
0
0
0
0
0
0
0
0
0
0
0
0
0
0
0
0
0
0
0
0
3
3
2
2
0
0
0
0
0
0
0
0
0
0
0
0
0
0
0
0
0
0
0
0
0
0
0
0
3
3
2
2
0
0
0
0
0
0
0
0
0
0
0
0
0
0
0
0
0
0
0
0
0
0
0
0
3
3
2
2
0
0
0
0
0
0
0
0
0
0
0
0
0
0
0
0
0
0
0
0
0
0
0
0
3
3
2
2
0
0
0
0
0
0
0
0
0
0
0
0
0
0
0
0
0
0
0
0
0
0
0
0
3
3
2
2
0
0
0
0
0
0
0
0
0
0
0
0
0
0
0
0
0
0
0
0
0
0
0
0
3
3
2
2
0
0
0
0
0
0
0
0
0
0
0
0
0
0
0
0
0
0
0
0
0
0
0
0
3
3
2
2
0
0
0
0
0
0
0
0
0
0
0
0
0
0
0
0
0
0
0
0
0
0
0
0
3
3
2
2
0
0
0
0
0
0
0
0
0
0
0
0
0
0
0
0
0
0
0
0
0
0
0
0
3
3
2
2
0
0
0
0
0
0
0
0
0
0
0
0
0
0
0
0
0
0
0
0
0
0
0
0
3
3
2
2
0
0
0
0
0
0
0
0
0
0
0
0
0
0
0
0
0
0
0
0
0
0
0
0
3
3
2
2
0
0
0
0
0
0
0
0
0
0
0
0
0
0
0
0
0
0
0
0
0
0
0
0
3
3
2
2
0
0
0
0
0
0
0
0
0
0
0
0
0
0
0
0
0
0
0
0
0
0
0
0
3
3
2
2
0
0
0
0
0
0
0
0
0
0
0
0
0
0
0
0
0
0
0
0
0
0
0
0
3
3
2
2
0
0
0
0
0
0
0
0
0
0
0
0
0
0
0
0
0
0
0
0
0
0
0
0
3
3
2
2
0
0
0
0
0
0
0
0
0
0
0
0
0
0
0
0
0
0
0
0
0
0
0
0
3
3
2
2
0
0
0
0
0
0
0
0
0
0
0
0
0
0
0
0
0
0
0
0
0
0
0
0
3
3
2
2
0
0
0
0
0
0
0
0
0
0
0
0
0
0
0
0
0
0
0
0
0
0
0
0
3
3
2
2
0
0
0
0
0
0
0
0
0
0
0
0
0
0
0
0
0
0
0
0
0
0
0
0
3
3
2
2
0
0
0
0
0
0
0
0
0
0
0
0
0
0
0
0
0
0
0
0
0
0
0
0
3
3
2
2
0
0
0
0
0
0
0
0
0
0
0
0
0
0
0
0
0
0
0
0
0
0
0
0
3
3
2
2
0
0
0
0
0
0
0
0
0
0
0
0
0
0
0
0
0
0
0
0
0
0
0
0
3
3
2
2
2
2
2
2
2
2
2
2
2
2
2
2
2
2
2
2
2
2
2
2
2
2
2
2
3
3
2
2
2
2
2
2
2
2
2
2
2
2
2
2
2
2
2
2
2
2
2
2
2
2
2
2
3
3
3
3
3
3
3
3
3
3
3
3
3
3
3
3
3
3
3
3
3
3
3
3
3
3
3
3
3
3
3
3
3
3
3
3
3
3
3
3
3
3
3
3
3
3
3
3
3
3
3
3
3
3
3
3
</DataArray>
<DataArray NumberOfComponents='1' type='Float32' Name='Velocity' format='ascii'>
0.000000
0.000000
0.000000
0.000000
0.000000
0.000000
0.000000
0.000000
0.000000
0.000000
0.000000
0.000000
0.000000
0.000000
0.000000
0.000000
0.000000
0.000000
0.000000
0.000000
0.000000
0.000000
0.000000
0.000000
0.000000
0.000000
0.000000
0.000000
0.000000
0.000000
0.000000
0.000000
0.000000
0.000000
0.000000
0.000000
0.000000
0.000000
0.000000
0.000000
0.000000
0.000000
0.000000
0.000000
0.000000
0.000000
0.000000
0.000000
0.000000
0.000000
0.000000
0.000000
0.000000
0.000000
0.000000
0.000000
0.000000
0.000000
0.000000
0.000000
0.000000
0.000000
0.000000
0.000000
0.000000
0.000000
0.000000
0.000000
0.000000
0.000000
0.000000
0.000000
0.000000
0.000000
0.000000
0.000000
0.000000
0.000000
0.000000
0.000000
0.000000
0.000000
0.000000
0.000000
0.000000
0.000000
0.000000
0.000000
0.000000
0.000000
0.000000
0.000000
0.000000
0.000000
0.000000
0.000000
0.000000
0.000000
0.000000
0.000000
0.000000
0.000000
0.000000
0.000000
0.000000
0.000000
0.000000
0.000000
0.000000
0.000000
0.000000
0.000000
0.000000
0.000000
0.000000
0.000000
0.187351
0.073329
0.202014
0.067809
0.041463
0.171092
0.052216
0.011220
0.132994
0.109097
0.253310
0.200101
0.186610
0.102497
0.128037
0.085049
0.213099
0.092118
0.221563
0.238639
0.433056
33.868088
24.545490
35.248981
1.000000
1.000000
1.000000
0.000000
0.000000
0.000000
0.000000
0.107481
0.167863
0.101247
0.204006
0.087265
0.041552
0.233759
0.149048
0.164643
0.057021
0.040490
0.026503
0.221587
0.268999
0.224599
0.150871
0.222341
0.155962
0.067256
0.077276
0.382533
0.459118
0.211287
24.544273
1.000000
1.000000
1.000000
0.000000
0.000000
0.000000
0.000000
0.134542
0.147487
0.238791
0.151596
0.097593
0.051977
0.176590
0.051041
0.127086
0.077522
0.181932
0.117077
0.100923
0.104844
0.023578
0.275441
0.217447
0.271629
0.176256
0.332295
0.414355
0.295313
11.405840
16.548935
1.000000
1.000000
1.000000
0.000000
0.000000
0.000000
0.000000
0.086880
0.209024
0.106125
0.033450
0.158481
0.167246
0.114283
0.096798
0.120971
0.057934
0.219926
0.060946
0.156492
0.129660
0.162844
0.169368
0.253574
0.161505
0.137577
0.129577
0.557458
0.088189
0.641669
17.941835
1.000000
1.000000
1.000000
0.000000
0.000000
0.000000
0.000000
0.170920
0.138743
0.145399
0.169532
0.265715
0.121515
0.260707
0.125803
0.116719
0.060959
0.131231
0.033176
0.009689
0.054232
0.048785
0.257536
0.109402
0.024534
0.348222
0.112854
0.714086
0.727751
0.292987
17.262587
1.000000
1.000000
1.000000
0.000000
0.000000
0.000000
0.000000
0.040755
0.121691
0.159240
0.058290
0.130684
0.072848
0.054235
0.022474
0.025433
0.077998
0.019352
0.110373
0.036843
0.040571
0.060019
0.205635
0.264466
0.197039
0.273500
0.068366
0.085794
0.368780
27.633612
22.040812
1.000000
1.000000
1.000000
0.000000
0.000000
0.000000
0.000000
0.005050
0.225416
0.292515
0.071808
0.277219
0.139800
0.246079
0.031522
0.129781
0.145699
0.206574
0.086562
0.096358
0.120685
0.151570
0.232504
0.056480
0.258418
0.047121
0.531764
0.028165
0.344052
0.200428
16.497757
1.000000
1.000000
1.000000
0.000000
0.000000
0.000000
0.000000
0.175150
0.115029
0.162087
0.242915
0.163908
0.083135
0.117841
0.317138
0.028169
0.182823
0.144497
0.018334
0.061438
0.088055
0.194072
0.139245
0.101659
0.174284
0.204268
0.159116
0.276056
0.166851
0.374032
15.637326
1.000000
1.000000
1.000000
0.000000
0.000000
0.000000
0.000000
0.064099
0.132026
0.064735
0.120278
0.073743
0.129018
0.207529
0.128903
0.150152
0.038404
0.064520
0.128348
0.371391
0.174748
0.201800
0.180779
0.265294
0.064956
0.181015
0.241785
0.116089
0.179764
0.141857
17.632328
1.000000
1.000000
1.000000
0.000000
0.000000
0.000000
0.000000
0.029215
0.051685
0.168588
0.107515
0.036568
0.176238
0.233411
0.079782
0.091246
0.040594
0.177758
0.071015
0.115912
0.025766
0.116513
0.111635
0.045077
0.099018
0.036825
0.235498
0.165982
0.096038
9.328198
20.285883
1.000000
1.000000
1.000000
0.000000
0.000000
0.000000
0.000000
0.103468
0.102893
0.129387
0.033311
0.138005
0.165670
0.128074
0.094728
0.034615
0.125299
0.049350
0.111027
0.046643
0.094686
0.053473
0.269506
0.196814
0.083923
0.224565
0.153384
0.078659
0.487023
0.503158
16.868237
1.000000
1.000000
1.000000
0.000000
0.000000
0.000000
0.000000
0.116162
0.130003
0.088059
0.122849
0.153560
0.069692
0.111298
0.082825
0.025999
0.031158
0.070484
0.135987
0.186002
0.051959
0.193888
0.099385
0.238113
0.160570
0.263597
0.108720
0.503602
0.215632
18.092037
16.477901
1.000000
1.000000
1.000000
0.000000
0.000000
0.000000
0.000000
0.132373
0.020482
0.078119
0.118253
0.022197
0.124600
0.178820
0.044838
0.127578
0.069686
0.131544
0.105289
0.101697
0.049648
0.097595
0.099585
0.048380
0.122065
0.187777
0.283882
0.375772
0.273381
0.675197
14.273200
1.000000
1.000000
1.000000
0.000000
0.000000
0.000000
0.000000
0.088689
0.125904
0.236709
0.061148
0.084553
0.131342
0.082738
0.121216
0.094730
0.028553
0.085375
0.116709
0.067414
0.101428
0.188068
0.072441
0.113004
0.095841
0.249739
0.102713
0.266396
0.322162
0.577141
17.148075
1.000000
1.000000
1.000000
0.000000
0.000000
0.000000
0.000000
0.171766
0.050837
0.174870
0.063138
0.034438
0.079403
0.107484
0.046982
0.083019
0.119521
0.020220
0.164344
0.055543
0.090917
0.010982
0.120852
0.136833
0.200896
0.220849
0.300099
0.206490
0.229170
14.963565
16.415718
1.000000
1.000000
1.000000
0.000000
0.000000
0.000000
0.000000
0.110590
0.166034
0.204528
0.118209
0.030193
0.119947
0.118033
0.032682
0.096195
0.109629
0.146744
0.145928
0.337606
0.247663
0.148799
0.095356
0.169256
0.239643
0.053269
0.196103
0.148998
0.532859
0.405530
16.751669
1.000000
1.000000
1.000000
0.000000
0.000000
0.000000
0.000000
0.142377
0.099151
0.075991
0.098822
0.082994
0.041612
0.060243
0.019756
0.107415
0.021458
0.008308
0.150817
0.170720
0.159472
0.067701
0.183186
0.087795
0.165367
0.204764
0.512871
0.479775
0.418850
0.418938
16.481024
0.000000
0.000000
0.000000
0.000000
0.080615
0.152108
0.028205
0.036993
0.066559
0.176008
0.105694
0.151031
0.063710
0.014142
0.058906
0.172101
0.038028
0.072899
0.088387
0.121158
0.332749
0.084950
0.324694
0.437228
0.196510
0.508241
0.052679
18.921011
0.000000
0.000000
0.000000
0.000000
0.062187
0.067128
0.058425
0.133335
0.046147
0.122984
0.067625
0.075039
0.062872
0.067362
0.076413
0.168336
0.141597
0.108530
0.144344
0.102369
0.104083
0.122762
0.255982
0.176043
0.195809
0.375143
0.409451
14.638542
0.000000
0.000000
0.000000
0.000000
0.103750
0.138483
0.086567
0.111332
0.060927
0.087937
0.071272
0.028765
0.105870
0.085008
0.112736
0.137616
0.101551
0.283541
0.116621
0.060797
0.205098
0.118523
0.194472
0.138569
0.301150
0.610050
16.682562
26.245050
0.000000
0.000000
0.000000
0.000000
0.036442
0.028366
0.139974
0.100190
0.134907
0.072270
0.080766
0.041053
0.044152
0.110390
0.174758
0.075341
0.074579
0.141806
0.067040
0.142620
0.155844
0.044058
0.202982
0.068582
0.425578
0.299221
14.214247
22.136324
0.000000
0.000000
0.000000
0.000000
0.048901
0.033271
0.053334
0.109634
0.077324
0.052997
0.067590
0.032748
0.185723
0.093448
0.120609
0.021323
0.114046
0.132769
0.072012
0.206052
0.180037
0.079548
0.081766
0.127134
0.575472
0.308933
0.231910
31.873104
0.000000
0.000000
0.000000
0.000000
0.015391
0.139310
0.106443
0.039609
0.215011
0.082253
0.098533
0.087494
0.077152
0.088221
0.046011
0.059864
0.131907
0.106248
0.064729
0.147368
0.168305
0.056744
0.058315
0.160966
0.353464
0.160857
28.071348
16.038733
0.000000
0.000000
0.000000
0.000000
0.032930
0.048599
0.029854
0.061442
0.094187
0.060232
0.077825
0.060041
0.106958
0.031023
0.017897
0.097310
0.053037
0.071389
0.237480
0.184060
0.125017
0.063148
0.246811
0.202612
0.027900
0.270644
0.396641
17.147093
0.000000
0.000000
0.000000
0.000000
0.045840
0.144553
0.094791
0.079845
0.135007
0.049639
0.005950
0.086973
0.081882
0.030392
0.106651
0.195903
0.096514
0.016385
0.109853
0.246087
0.115881
0.082564
0.188604
0.255442
0.305655
0.055172
0.496867
24.230833
0.000000
0.000000
0.000000
0.000000
0.077713
0.074084
0.041222
0.090274
0.142144
0.101356
0.063679
0.095687
0.122464
0.019331
0.126828
0.075425
0.087861
0.103910
0.081558
0.015979
0.150068
0.100180
0.062652
0.239928
0.413127
0.443168
0.420155
33.331280
0.000000
0.000000
0.000000
0.000000
0.031711
0.109713
0.090595
0.085816
0.132086
0.151539
0.061556
0.072798
0.056575
0.073886
0.083220
0.055308
0.053119
0.082394
0.123398
0.103119
0.062657
0.091992
0.037595
0.100926
0.222320
0.380106
0.205370
37.096828
0.000000
0.000000
0.000000
0.000000
0.034829
0.073401
0.054132
0.059625
0.159645
0.073944
0.012119
0.015591
0.063581
0.034350
0.042639
0.029083
0.103196
0.087445
0.024504
0.113019
0.027012
0.057385
0.098057
0.155302
0.225424
0.213856
0.315160
23.753428
0.000000
0.000000
0.000000
0.000000
0.020760
0.146170
0.087612
0.093239
0.073768
0.063554
0.047471
0.084191
0.079205
0.074396
0.067559
0.106551
0.032803
0.043124
0.113076
0.023623
0.147995
0.122831
0.196861
0.217976
0.286336
0.344576
0.293545
20.286234
0.000000
0.000000
0.000000
0.000000
0.047864
0.103320
0.135812
0.139737
0.123467
0.154355
0.087496
0.081124
0.045092
0.044339
0.098393
0.037255
0.082342
0.059460
0.066644
0.088310
0.027804
0.136233
0.092459
0.091810
0.257640
0.108639
0.213373
12.841906
0.000000
0.000000
0.000000
0.000000
0.052901
0.031827
0.049973
0.077774
0.040893
0.021230
0.153166
0.055051
0.054356
0.028274
0.055862
0.046566
0.052894
0.070114
0.102225
0.080982
0.119922
0.061450
0.136115
0.142415
0.097480
0.125453
0.235770
9.081675
0.000000
0.000000
0.000000
0.000000
0.041649
0.054901
0.059508
0.020201
0.147194
0.073621
0.081276
0.052795
0.049709
0.060600
0.083384
0.025797
0.099323
0.012997
0.076103
0.054870
0.098428
0.108150
0.103924
0.177167
0.098134
0.276574
0.135558
9.073734
0.000000
0.000000
0.000000
0.000000
0.069899
0.071775
0.044224
0.051954
0.081552
0.076936
0.119521
0.103506
0.074143
0.014218
0.102151
0.031611
0.077199
0.020526
0.086648
0.032240
0.104536
0.009033
0.042656
0.227988
0.042373
0.156806
0.148743
7.759446
0.000000
0.000000
0.000000
0.000000
0.022259
0.044169
0.052755
0.037380
0.066960
0.049716
0.087766
0.046969
0.063898
0.070709
0.072569
0.000558
0.072957
0.032957
0.066282
0.070762
0.111593
0.135582
0.052867
0.138342
0.213449
0.130029
0.056477
6.071240
0.000000
0.000000
0.000000
0.000000
0.075128
0.054906
0.095292
0.027779
0.047653
0.072998
0.031225
0.047620
0.074101
0.036915
0.158320
0.068932
0.064619
0.039241
0.044524
0.095532
0.032022
0.038024
0.076171
0.266112
0.186124
0.091824
0.204759
5.416294
0.000000
0.000000
0.000000
0.000000
0.071572
0.033111
0.062649
0.067902
0.051533
0.059430
0.103983
0.082424
0.067585
0.070279
0.035360
0.019614
0.036051
0.046192
0.051149
0.043799
0.040589
0.200470
0.045497
0.162010
0.085101
0.185253
0.223486
6.443317
0.000000
0.000000
0.000000
0.000000
0.068644
0.078365
0.112742
0.050468
0.061101
0.080022
0.044426
0.046908
0.104177
0.074600
0.141260
0.074498
0.098062
0.035592
0.039558
0.079483
0.043373
0.048516
0.104470
0.097973
0.282453
0.298242
0.388497
5.894959
0.000000
0.000000
0.000000
0.000000
0.022219
0.002653
0.032835
0.098315
0.050600
0.061736
0.067929
0.036236
0.043474
0.055394
0.029084
0.020825
0.052769
0.055628
0.115188
0.072622
0.069200
0.047649
0.054610
0.107156
0.181413
0.287272
0.283880
5.053817
0.000000
0.000000
0.000000
0.000000
0.065652
0.041074
0.089988
0.089571
0.024791
0.078909
0.056814
0.026804
0.075946
0.038326
0.099925
0.045588
0.133067
0.013862
0.027676
0.112166
0.029237
0.176087
0.109528
0.123735
0.070055
0.107593
0.274343
4.952631
0.000000
0.000000
0.000000
0.000000
0.043575
0.032193
0.059978
0.072816
0.048737
0.080370
0.058043
0.021424
0.025383
0.018118
0.032273
0.025039
0.030008
0.015565
0.103001
0.052087
0.119491
0.203828
0.179982
0.109376
0.228662
0.141870
0.446924
6.466066
0.000000
0.000000
0.000000
0.000000
0.086539
0.061377
0.082714
0.131005
0.016092
0.037272
0.052168
0.002695
0.064572
0.024486
0.061046
0.008659
0.180857
0.094647
0.027108
0.013826
0.057219
0.132684
0.081477
0.088553
0.095978
0.263012
0.180864
5.924843
0.000000
0.000000
0.000000
0.000000
0.066587
0.023091
0.107201
0.093037
0.050596
0.088854
0.036727
0.022097
0.054845
0.058115
0.058965
0.093786
0.098816
0.069435
0.081202
0.115429
0.050467
0.047416
0.040016
0.264498
0.232356
0.249580
0.185786
8.275979
0.000000
0.000000
0.000000
0.000000
0.102488
0.069006
0.073699
0.147784
0.031206
0.082931
0.137164
0.054067
0.141503
0.061370
0.062055
0.034929
0.143026
0.062259
0.091243
0.066424
0.109689
0.037646
0.211831
0.149317
0.176911
0.050699
0.304409
18.835340
0.000000
0.000000
0.000000
0.000000
0.043259
0.058361
0.140772
0.090916
0.055125
0.045774
0.036732
0.047695
0.021357
0.040866
0.032673
0.122105
0.142209
0.133548
0.067690
0.078177
0.058235
0.292881
0.126283
0.046993
0.208120
0.135404
0.170266
23.394283
0.000000
0.000000
0.000000
0.000000
0.050063
0.079989
0.091468
0.087571
0.056320
0.037634
0.085303
0.052436
0.063118
0.015605
0.032632
0.043094
0.168977
0.033242
0.164794
0.178148
0.091908
0.123888
0.050310
0.074489
0.126752
0.190396
16.066645
27.837051
0.000000
0.000000
0.000000
0.000000
0.062853
0.021605
0.040943
0.099179
0.156109
0.020016
0.086420
0.132394
0.016194
0.008087
0.027387
0.225333
0.181278
0.152743
0.026391
0.024588
0.201392
0.080242
0.182252
0.024104
0.111775
0.446346
0.546010
30.512043
0.000000
0.000000
0.000000
0.000000
0.050243
0.020833
0.104913
0.075933
0.047698
0.104807
0.026985
0.046428
0.049907
0.089297
0.083308
0.125490
0.227566
0.087558
0.046024
0.195002
0.065488
0.084016
0.107236
0.292889
0.174663
0.100546
0.529175
34.480732
0.000000
0.000000
0.000000
0.000000
0.067505
0.034969
0.017278
0.087089
0.169024
0.097447
0.071354
0.060487
0.039251
0.035005
0.082586
0.105077
0.206576
0.187101
0.138955
0.147870
0.101661
0.265777
0.135434
0.160108
0.161068
0.338043
0.602957
24.994274
0.000000
0.000000
0.000000
0.000000
0.085775
0.030354
0.093374
0.039247
0.107864
0.159315
0.065208
0.010705
0.074895
0.100357
0.097299
0.190045
0.052004
0.123798
0.053755
0.142937
0.171710
0.304183
0.217221
0.163475
0.089734
0.133599
14.715300
22.017063
0.000000
0.000000
0.000000
0.000000
0.043568
0.070378
0.030653
0.057487
0.082433
0.113251
0.076127
0.046489
0.074727
0.061107
0.224342
0.130731
0.113352
0.088748
0.120814
0.180330
0.258092
0.062235
0.081288
0.125900
0.131260
0.141087
0.382464
26.873014
0.000000
0.000000
0.000000
0.000000
0.068880
0.071076
0.029947
0.123445
0.071100
0.158512
0.049844
0.170934
0.013570
0.072338
0.060753
0.048390
0.136832
0.307957
0.131019
0.230284
0.166727
0.053516
0.091953
0.078180
0.284389
0.232414
17.226389
30.084890
0.000000
0.000000
0.000000
0.000000
0.044815
0.026582
0.074998
0.026964
0.081369
0.144488
0.140199
0.110548
0.059472
0.175239
0.051330
0.130025
0.071807
0.051474
0.192272
0.146161
0.080509
0.099229
0.280987
0.170191
0.304695
0.135122
0.472963
28.368116
0.000000
0.000000
0.000000
0.000000
0.109711
0.045808
0.033500
0.044375
0.068397
0.027655
0.229960
0.111940
0.165432
0.043612
0.113066
0.157093
0.121488
0.149858
0.077001
0.051020
0.212399