<?xml version='1.0' encoding='UTF-8'?>
<VTKFile xmlns='VTK' byte_order='LittleEndian' version='0.1' type='UnstructuredGrid'>
<UnstructuredGrid>
<Piece NumberOfCells='2512' NumberOfPoints='2512'>
<Points>
<DataArray NumberOfComponents='3' type='Float32' Name='Position' format='ascii'>
-0.075000 -0.075000 0.000000
-0.075000 -0.050000 0.000000
-0.075000 -0.025000 0.000000
-0.075000 0.000000 0.000000
-0.075000 0.025000 0.000000
-0.075000 0.050000 0.000000
-0.075000 0.075000 0.000000
-0.075000 0.100000 0.000000
-0.075000 0.125000 0.000000
-0.075000 0.150000 0.000000
-0.075000 0.175000 0.000000
-0.075000 0.200000 0.000000
-0.075000 0.225000 0.000000
-0.075000 0.250000 0.000000
-0.075000 0.275000 0.000000
-0.075000 0.300000 0.000000
-0.075000 0.325000 0.000000
-0.075000 0.350000 0.000000
-0.075000 0.375000 0.000000
-0.075000 0.400000 0.000000
-0.075000 0.425000 0.000000
-0.075000 0.450000 0.000000
-0.075000 0.475000 0.000000
-0.075000 0.500000 0.000000
-0.075000 0.525000 0.000000
-0.075000 0.550000 0.000000
-0.075000 0.575000 0.000000
-0.075000 0.600000 0.000000
-0.050000 -0.075000 0.000000
-0.050000 -0.050000 0.000000
-0.050000 -0.025000 0.000000
-0.050000 0.000000 0.000000
-0.050000 0.025000 0.000000
-0.050000 0.050000 0.000000
-0.050000 0.075000 0.000000
-0.050000 0.100000 0.000000
-0.050000 0.125000 0.000000
-0.050000 0.150000 0.000000
-0.050000 0.175000 0.000000
-0.050000 0.200000 0.000000
-0.050000 0.225000 0.000000
-0.050000 0.250000 0.000000
-0.050000 0.275000 0.000000
-0.050000 0.300000 0.000000
-0.050000 0.325000 0.000000
-0.050000 0.350000 0.000000
-0.050000 0.375000 0.000000
-0.050000 0.400000 0.000000
-0.050000 0.425000 0.000000
-0.050000 0.450000 0.000000
-0.050000 0.475000 0.000000
-0.050000 0.500000 0.000000
-0.050000 0.525000 0.000000
-0.050000 0.550000 0.000000
-0.050000 0.575000 0.000000
-0.050000 0.600000 0.000000
-0.025000 -0.075000 0.000000
-0.025000 -0.050000 0.000000
-0.025000 -0.025000 0.000000
-0.025000 0.000000 0.000000
-0.025000 0.025000 0.000000
-0.025000 0.050000 0.000000
-0.025000 0.075000 0.000000
-0.025000 0.100000 0.000000
-0.025000 0.125000 0.000000
-0.025000 0.150000 0.000000
-0.025000 0.175000 0.000000
-0.025000 0.200000 0.000000
-0.025000 0.225000 0.000000
-0.025000 0.250000 0.000000
-0.025000 0.275000 0.000000
-0.025000 0.300000 0.000000
-0.025000 0.325000 0.000000
-0.025000 0.350000 0.000000
-0.025000 0.375000 0.000000
-0.025000 0.400000 0.000000
-0.025000 0.425000 0.000000
-0.025000 0.450000 0.000000
-0.025000 0.475000 0.000000
-0.025000 0.500000 0.000000
-0.025000 0.525000 0.000000
-0.025000 0.550000 0.000000
-0.025000 0.575000 0.000000
-0.025000 0.600000 0.000000
0.000000 -0.075000 0.000000
0.000000 -0.050000 0.000000
0.000000 -0.025000 0.000000
0.000000 0.000000 0.000000
0.000000 0.025000 0.000000
0.000000 0.050000 0.000000
0.000000 0.075000 0.000000
0.000000 0.100000 0.000000
0.000000 0.125000 0.000000
0.000000 0.150000 0.000000
0.000000 0.175000 0.000000
0.000000 0.200000 0.000000
0.000000 0.225000 0.000000
0.000000 0.250000 0.000000
0.000000 0.275000 0.000000
0.000000 0.300000 0.000000
0.000000 0.325000 0.000000
0.000000 0.350000 0.000000
0.000000 0.375000 0.000000
0.000000 0.400000 0.000000
0.000000 0.425000 0.000000
0.000000 0.450000 0.000000
0.000000 0.475000 0.000000
0.000000 0.500000 0.000000
0.000000 0.525000 0.000000
0.000000 0.550000 0.000000
0.000000 0.575000 0.000000
0.000000 0.600000 0.000000
0.025000 -0.075000 0.000000
0.025000 -0.050000 0.000000
0.025000 -0.025000 0.000000
0.025000 0.000000 0.000000
-2062.760934 0.600000 0.000000
54.511897 -93.399796 0.000000
-18.368439 -31.187198 0.000000
13.154313 -30.487476 0.000000
0.182538 0.044962 0.000000
-47678432.025675 0.600000 0.000000
8.034636 -57.495786 0.000000
23.436517 -42.396833 0.000000
-34.849867 -6.274297 0.000000
8.675650 -246.559345 0.000000
425.725183 -1470.791584 0.000000
28.120444 -186.586248 0.000000
38915.045156 0.600000 0.000000
-14310.647369 0.600000 0.000000
-64.573692 0.600000 0.000000
-214.462392 -411.672238 0.000000
-61.751134 -60.592776 0.000000
536.304194 -747.778425 0.000000
54.782658 -63.125514 0.000000
-856.913519 0.600000 0.000000
220.547273 -470.726316 0.000000
-555.191251 0.600000 0.000000
-1307.047318 0.600000 0.000000
42853579.915758 0.600000 0.000000
1.515000 0.625000 0.000000
1.515000 0.650000 0.000000
1.515000 0.675000 0.000000
0.050000 -0.075000 0.000000
0.050000 -0.050000 0.000000
0.050000 -0.025000 0.000000
0.050000 0.000000 0.000000
-70.136470 0.600000 0.000000
-62.840023 -19.336998 0.000000
914.010788 0.600000 0.000000
46.571572 0.600000 0.000000
2676.722979 0.600000 0.000000
-17.158373 -12.528212 0.000000
-16.043117 -31.799396 0.000000
-20.406619 0.585202 0.000000
-11528.876203 -21471.343947 0.000000
11198.294978 0.600000 0.000000
4.991579 -64.564245 0.000000
55.431306 -52.860706 0.000000
-144.451248 -56.120077 0.000000
1305.453844 0.600000 0.000000
11702.107201 0.600000 0.000000
-562.514499 0.600000 0.000000
-68.322081 -33.905911 0.000000
-207.429699 0.600000 0.000000
1074.560260 0.600000 0.000000
-150.570059 -198.692966 0.000000
732.828099 0.600000 0.000000
14209.731000 -2963.379082 0.000000
141.004409 -579.110262 0.000000
1533.963640 0.600000 0.000000
1.540000 0.625000 0.000000
1.540000 0.650000 0.000000
1.540000 0.675000 0.000000
0.075000 -0.075000 0.000000
0.075000 -0.050000 0.000000
0.075000 -0.025000 0.000000
0.075000 0.000000 0.000000
-47.170963 -47.392439 0.000000
17436.955142 0.600000 0.000000
15.541008 0.600000 0.000000
-2246.176045 0.600000 0.000000
-37.341616 -26.309826 0.000000
131.117012 0.600000 0.000000
24.615588 -116.906643 0.000000
2692.661202 0.600000 0.000000
524.920975 0.600000 0.000000
27.115070 -319.767970 0.000000
87.815785 -86.530982 0.000000
-961.693721 0.600000 0.000000
-448.825844 0.600000 0.000000
669.224274 -442.754449 0.000000
483.878506 0.600000 0.000000
17.454142 -1.297474 0.000000
2682.886371 -1066.891514 0.000000
0.208868 0.155876 0.000000
183.457423 -144.512692 0.000000
43.810216 -62.424177 0.000000
3529.089149 0.600000 0.000000
-64.304479 -176.781186 0.000000
-4943.475863 0.600000 0.000000
-1101.122945 0.600000 0.000000
1.565000 0.625000 0.000000
1.565000 0.650000 0.000000
1.565000 0.675000 0.000000
0.100000 -0.075000 0.000000
0.100000 -0.050000 0.000000
0.100000 -0.025000 0.000000
0.100000 0.000000 0.000000
-1452.559012 0.600000 0.000000
80139333.574677 0.600000 0.000000
-587.489026 -558.338170 0.000000
66612.050571 0.600000 0.000000
-5353.984308 0.600000 0.000000
-2.168076 0.600000 0.000000
-113802.517951 0.600000 0.000000
89.934796 -1.470898 0.000000
13.969751 -20.407318 0.000000
57.616934 -25.751824 0.000000
-21.384606 -37.539064 0.000000
-1666.379824 0.600000 0.000000
-103.241134 0.600000 0.000000
183.336567 -44.518331 0.000000
-114.499630 0.600000 0.000000
-106.946079 -90.398532 0.000000
0.022734 0.019444 0.000000
-20.349081 0.600000 0.000000
53.562520 -34.864834 0.000000
-163.646945 0.600000 0.000000
0.972670 0.278684 0.000000
75.672603 -112.000355 0.000000
1703.035342 0.600000 0.000000
-21419.481616 0.600000 0.000000
1.590000 0.625000 0.000000
1.590000 0.650000 0.000000
1.590000 0.675000 0.000000
0.125000 -0.075000 0.000000
0.125000 -0.050000 0.000000
0.125000 -0.025000 0.000000
0.125000 0.000000 0.000000
-481.026240 0.600000 0.000000
1511.240766 0.600000 0.000000
-1399.429381 0.600000 0.000000
-433.138305 0.600000 0.000000
5.780802 -34.809240 0.000000
105.469173 -74.251116 0.000000
-620.374587 0.600000 0.000000
-10.745803 -70.757545 0.000000
41142.790558 0.600000 0.000000
-263.762642 -869.170561 0.000000
-348.565614 0.600000 0.000000
-4856.288153 0.600000 0.000000
-15.914601 -1.667814 0.000000
-234.589227 0.600000 0.000000
-329.090583 0.600000 0.000000
-455.723669 0.600000 0.000000
4857.011905 0.600000 0.000000
1043.109128 0.600000 0.000000
-22.438062 -83.979584 0.000000
-180.762709 -112.131593 0.000000
-101.673301 -0.950412 0.000000
2036.044142 0.600000 0.000000
517205.933186 0.600000 0.000000
-162985.517934 0.600000 0.000000
1.615000 0.625000 0.000000
1.615000 0.650000 0.000000
1.615000 0.675000 0.000000
0.150000 -0.075000 0.000000
0.150000 -0.050000 0.000000
0.150000 -0.025000 0.000000
0.150000 0.000000 0.000000
-34.154806 0.600000 0.000000
-1125.695424 0.600000 0.000000
-1.024626 -35.709723 0.000000
-128.869493 -79.349524 0.000000
-3805.904242 0.600000 0.000000
1.453008 0.028640 0.000000
231.813159 0.600000 0.000000
6.554864 -19.304037 0.000000
-141.626745 0.600000 0.000000
-3287.689097 0.600000 0.000000
-407.314162 -183.298772 0.000000
19.829938 -46.321885 0.000000
-68.042771 -61.756493 0.000000
-22036.732295 0.600000 0.000000
-6609.693461 0.600000 0.000000
-128.349858 -51.952515 0.000000
-164.401337 0.600000 0.000000
8.426359 -3590.634801 0.000000
6854.727247 0.600000 0.000000
4732.259722 0.600000 0.000000
-6612.049209 0.600000 0.000000
110.686704 -266.411787 0.000000
2719.860239 0.600000 0.000000
1096.120259 0.600000 0.000000
1.640000 0.625000 0.000000
1.640000 0.650000 0.000000
1.640000 0.675000 0.000000
0.175000 -0.075000 0.000000
0.175000 -0.050000 0.000000
0.175000 -0.025000 0.000000
0.175000 0.000000 0.000000
-297.958919 0.600000 0.000000
-3321.396232 0.600000 0.000000
7.447165 -30.281515 0.000000
54164.062640 0.600000 0.000000
611.250044 0.600000 0.000000
-137.702043 -105.281660 0.000000
15.844844 -132.927559 0.000000
204.111914 0.600000 0.000000
-1313.933213 0.600000 0.000000
-776.023294 -396.150367 0.000000
15615.418932 0.600000 0.000000
-2397.914491 0.600000 0.000000
2683.011058 0.600000 0.000000
4302.584232 0.600000 0.000000
1585.526132 -762.863470 0.000000
-405.960837 0.600000 0.000000
-3783.466173 -8446.385564 0.000000
3493.347884 0.600000 0.000000
19121912.146728 0.600000 0.000000
633.143684 0.600000 0.000000
6700.067353 0.600000 0.000000
-529.953850 -244.358949 0.000000
-77.180948 -474.799945 0.000000
1893.402018 0.600000 0.000000
1.665000 0.625000 0.000000
1.665000 0.650000 0.000000
1.665000 0.675000 0.000000
0.200000 -0.075000 0.000000
0.200000 -0.050000 0.000000
0.200000 -0.025000 0.000000
[...]
<PointData>
<DataArray NumberOfComponents='1' type='Int32' Name='ParticleType' format='ascii'>
3
3
3
3
3
3
3
3
3
3
3
3
3
3
3
3
3
3
3
3
3
3
3
3
3
3
3
3
3
3
3
3
3
3
3
3
3
3
3
3
3
3
3
3
3
3
3
3
3
3
3
3
3
3
3
3
3
3
2
2
2
2
2
2
2
2
2
2
2
2
2
2
2
2
2
2
2
2
2
2
2
2
2
2
3
3
2
2
2
2
2
2
2
2
2
2
2
2
2
2
2
2
2
2
2
2
2
2
2
2
2
2
3
3
2
2
0
0
0
0
0
0
0
0
0
0
0
0
0
0
0
0
0
0
0
0
0
0
0
0
1
1
1
3
3
2
2
0
0
0
0
0
0
0
0
0
0
0
0
0
0
0
0
0
0
0
0
0
0
0
0
1
1
1
3
3
2
2
0
0
0
0
0
0
0
0
0
0
0
0
0
0
0
0
0
0
0
0
0
0
0
0
1
1
1
3
3
2
2
0
0
0
0
0
0
0
0
0
0
0
0
0
0
0
0
0
0
0
0
0
0
0
0
1
1
1
3
3
2
2
0
0
0
0
0
0
0
0
0
0
0
0
0
0
0
0
0
0
0
0
0
0
0
0
1
1
1
3
3
2
2
0
0
0
0
0
0
0
0
0
0
0
0
0
0
0
0
0
0
0
0
0
0
0
0
1
1
1
3
3
2
2
0
0
0
0
0
0
0
0
0
0
0
0
0
0
0
0
0
0
0
0
0
0
0
0
1
1
1
3
3
2
2
0
0
0
0
0
0
0
0
0
0
0
0
0
0
0
0
0
0
0
0
0
0
0
0
1
1
1
3
3
2
2
0
0
0
0
0
0
0
0
0
0
0
0
0
0
0
0
0
0
0
0
0
0
0
0
1
1
1
3
3
2
2
0
0
0
0
0
0
0
0
0
0
0
0
0
0
0
0
0
0
0
0
0
0
0
0
1
1
1
3
3
2
2
0
0
0
0
0
0
0
0
0
0
0
0
0
0
0
0
0
0
0
0
0
0
0
0
1
1
1
3
3
2
2
0
0
0
0
0
0
0
0
0
0
0
0
0
0
0
0
0
0
0
0
0
0
0
0
1
1
1
3
3
2
2
0
0
0
0
0
0
0
0
0
0
0
0
0
0
0
0
0
0
0
0
0
0
0
0
1
1
1
3
3
2
2
0
0
0
0
0
0
0
0
0
0
0
0
0
0
0
0
0
0
0
0
0
0
0
0
1
1
1
3
3
2
2
0
0
0
0
0
0
0
0
0
0
0
0
0
0
0
0
0
0
0
0
0
0
0
0
1
1
1
3
3
2
2
0
0
0
0
0
0
0
0
0
0
0
0
0
0
0
0
0
0
0
0
0
0
0
0
1
1
1
3
3
2
2
0
0
0
0
0
0
0
0
0
0
0
0
0
0
0
0
0
0
0
0
0
0
0
0
3
3
2
2
0
0
0
0
0
0
0
0
0
0
0
0
0
0
0
0
0
0
0
0
0
0
0
0
3
3
2
2
0
0
0
0
0
0
0
0
0
0
0
0
0
0
0
0
0
0
0
0
0
0
0
0
3
3
2
2
0
0
0
0
0
0
0
0
0
0
0
0
0
0
0
0
0
0
0
0
0
0
0
0
3
3
2
2
0
0
0
0
0
0
0
0
0
0
0
0
0
0
0
0
0
0
0
0
0
0
0
0
3
3
2
2
0
0
0
0
0
0
0
0
0
0
0
0
0
0
0
0
0
0
0
0
0
0
0
0
3
3
2
2
0
0
0
0
0
0
0
0
0
0
0
0
0
0
0
0
0
0
0
0
0
0
0
0
3
3
2
2
0
0
0
0
0
0
0
0
0
0
0
0
0
0
0
0
0
0
0
0
0
0
0
0
3
3
2
2
0
0
0
0
0
0
0
0
0
0
0
0
0
0
0
0
0
0
0
0
0
0
0
0
3
3
2
2
0
0
0
0
0
0
0
0
0
0
0
0
0
0
0
0
0
0
0
0
0
0
0
0
3
3
2
2
0
0
0
0
0
0
0
0
0
0
0
0
0
0
0
0
0
0
0
0
0
0
0
0
3
3
2
2
0
0
0
0
0
0
0
0
0
0
0
0
0
0
0
0
0
0
0
0
0
0
0
0
3
3
2
2
0
0
0
0
0
0
0
0
0
0
0
0
0
0
0
0
0
0
0
0
0
0
0
0
3
3
2
2
0
0
0
0
0
0
0
0
0
0
0
0
0
0
0
0
0
0
0
0
0
0
0
0
3
3
2
2
0
0
0
0
0
0
0
0
0
0
0
0
0
0
0
0
0
0
0
0
0
0
0
0
3
3
2
2
0
0
0
0
0
0
0
0
0
0
0
0
0
0
0
0
0
0
0
0
0
0
0
0
3
3
2
2
0
0
0
0
0
0
0
0
0
0
0
0
0
0
0
0
0
0
0
0
0
0
0
0
3
3
2
2
0
0
0
0
0
0
0
0
0
0
0
0
0
0
0
0
0
0
0
0
0
0
0
0
3
3
2
2
0
0
0
0
0
0
0
0
0
0
0
0
0
0
0
0
0
0
0
0
0
0
0
0
3
3
2
2
0
0
0
0
0
0
0
0
0
0
0
0
0
0
0
0
0
0
0
0
0
0
0
0
3
3
2
2
0
0
0
0
0
0
0
0
0
0
0
0
0
0
0
0
0
0
0
0
0
0
0
0
3
3
2
2
0
0
0
0
0
0
0
0
0
0
0
0
0
0
0
0
0
0
0
0
0
0
0
0
3
3
2
2
0
0
0
0
0
0
0
0
0
0
0
0
0
0
0
0
0
0
0
0
0
0
0
0
3
3
2
2
0
0
0
0
0
0
0
0
0
0
0
0
0
0
0
0
0
0
0
0
0
0
0
0
3
3
2
2
0
0
0
0
0
0
0
0
0
0
0
0
0
0
0
0
0
0
0
0
0
0
0
0
3
3
2
2
0
0
0
0
0
0
0
0
0
0
0
0
0
0
0
0
0
0
0
0
0
0
0
0
3
3
2
2
0
0
0
0
0
0
0
0
0
0
0
0
0
0
0
0
0
0
0
0
0
0
0
0
3
3
2
2
0
0
0
0
0
0
0
0
0
0
0
0
0
0
0
0
0
0
0
0
0
0
0
0
3
3
2
2
0
0
0
0
0
0
0
0
0
0
0
0
0
0
0
0
0
0
0
0
0
0
0
0
3
3
2
2
0
0
0
0
0
0
0
0
0
0
0
0
0
0
0
0
0
0
0
0
0
0
0
0
3
3
2
2
0
0
0
0
0
0
0
0
0
0
0
0
0
0
0
0
0
0
0
0
0
0
0
0
3
3
2
2
0
0
0
0
0
0
0
0
0
0
0
0
0
0
0
0
0
0
0
0
0
0
0
0
3
3
2
2
0
0
0
0
0
0
0
0
0
0
0
0
0
0
0
0
0
0
0
0
0
0
0
0
3
3
2
2
0
0
0
0
0
0
0
0
0
0
0
0
0
0
0
0
0
0
0
0
0
0
0
0
3
3
2
2
0
0
0
0
0
0
0
0
0
0
0
0
0
0
0
0
0
0
0
0
0
0
0
0
3
3
2
2
0
0
0
0
0
0
0
0
0
0
0
0
0
0
0
0
0
0
0
0
0
0
0
0
3
3
2
2
0
0
0
0
0
0
0
0
0
0
0
0
0
0
0
0
0
0
0
0
0
0
0
0
3
3
2
2
0
0
0
0
0
0
0
0
0
0
0
0
0
0
0
0
0
0
0
0
0
0
0
0
3
3
2
2
0
0
0
0
0
0
0
0
0
0
0
0
0
0
0
0
0
0
0
0
0
0
0
0
3
3
2
2
0
0
0
0
0
0
0
0
0
0
0
0
0
0
0
0
0
0
0
0
0
0
0
0
3
3
2
2
0
0
0
0
0
0
0
0
0
0
0
0
0
0
0
0
0
0
0
0
0
0
0
0
3
3
2
2
0
0
0
0
0
0
0
0
0
0
0
0
0
0
0
0
0
0
0
0
0
0
0
0
3
3
2
2
0
0
0
0
0
0
0
0
0
0
0
0
0
0
0
0
0
0
0
0
0
0
0
0
3
3
2
2
0
0
0
0
0
0
0
0
0
0
0
0
0
0
0
0
0
0
0
0
0
0
0
0
3
3
2
2
0
0
0
0
0
0
0
0
0
0
0
0
0
0
0
0
0
0
0
0
0
0
0
0
3
3
2
2
0
0
0
0
0
0
0
0
0
0
0
0
0
0
0
0
0
0
0
0
0
0
0
0
3
3
2
2
0
0
0
0
0
0
0
0
0
0
0
0
0
0
0
0
0
0
0
0
0
0
0
0
3
3
2
2
0
0
0
0
0
0
0
0
0
0
0
0
0
0
0
0
0
0
0
0
0
0
0
0
3
3
2
2
0
0
0
0
0
0
0
0
0
0
0
0
0
0
0
0
0
0
0
0
0
0
0
0
3
3
2
2
0
0
0
0
0
0
0
0
0
0
0
0
0
0
0
0
0
0
0
0
0
0
0
0
3
3
2
2
0
0
0
0
0
0
0
0
0
0
0
0
0
0
0
0
0
0
0
0
0
0
0
0
3
3
2
2
0
0
0
0
0
0
0
0
0
0
0
0
0
0
0
0
0
0
0
0
0
0
0
0
3
3
2
2
0
0
0
0
0
0
0
0
0
0
0
0
0
0
0
0
0
0
0
0
0
0
0
0
3
3
2
2
0
0
0
0
0
0
0
0
0
0
0
0
0
0
0
0
0
0
0
0
0
0
0
0
3
3
2
2
0
0
0
0
0
0
0
0
0
0
0
0
0
0
0
0
0
0
0
0
0
0
0
0
3
3
2
2
0
0
0
0
0
0
0
0
0
0
0
0
0
0
0
0
0
0
0
0
0
0
0
0
3
3
2
2
0
0
0
0
0
0
0
0
0
0
0
0
0
0
0
0
0
0
0
0
0
0
0
0
3
3
2
2
0
0
0
0
0
0
0
0
0
0
0
0
0
0
0
0
0
0
0
0
0
0
0
0
3
3
2
2
0
0
0
0
0
0
0
0
0
0
0
0
0
0
0
0
0
0
0
0
0
0
0
0
3
3
2
2
0
0
0
0
0
0
0
0
0
0
0
0
0
0
0
0
0
0
0
0
0
0
0
0
3
3
2
2
0
0
0
0
0
0
0
0
0
0
0
0
0
0
0
0
0
0
0
0
0
0
0
0
3
3
2
2
0
0
0
0
0
0
0
0
0
0
0
0
0
0
0
0
0
0
0
0
0
0
0
0
3
3
2
2
0
0
0
0
0
0
0
0
0
0
0
0
0
0
0
0
0
0
0
0
0
0
0
0
3
3
2
2
0
0
0
0
0
0
0
0
0
0
0
0
0
0
0
0
0
0
0
0
0
0
0
0
3
3
2
2
2
2
2
2
2
2
2
2
2
2
2
2
2
2
2
2
2
2
2
2
2
2
2
2
3
3
2
2
2
2
2
2
2
2
2
2
2
2
2
2
2
2
2
2
2
2
2
2
2
2
2
2
3
3
3
3
3
3
3
3
3
3
3
3
3
3
3
3
3
3
3
3
3
3
3
3
3
3
3
3
3
3
3
3
3
3
3
3
3
3
3
3
3
3
3
3
3
3
3
3
3
3
3
3
3
3
3
3
</DataArray>
<DataArray NumberOfComponents='1' type='Float32' Name='Velocity' format='ascii'>
0.000000
0.000000
0.000000
0.000000
0.000000
0.000000
0.000000
0.000000
0.000000
0.000000
0.000000
0.000000
0.000000
0.000000
0.000000
0.000000
0.000000
0.000000
0.000000
0.000000
0.000000
0.000000
0.000000
0.000000
0.000000
0.000000
0.000000
0.000000
0.000000
0.000000
0.000000
0.000000
0.000000
0.000000
0.000000
0.000000
0.000000
0.000000
0.000000
0.000000
0.000000
0.000000
0.000000
0.000000
0.000000
0.000000
0.000000
0.000000
0.000000
0.000000
0.000000
0.000000
0.000000
0.000000
0.000000
0.000000
0.000000
0.000000
0.000000
0.000000
0.000000
0.000000
0.000000
0.000000
0.000000
0.000000
0.000000
0.000000
0.000000
0.000000
0.000000
0.000000
0.000000
0.000000
0.000000
0.000000
0.000000
0.000000
0.000000
0.000000
0.000000
0.000000
0.000000
0.000000
0.000000
0.000000
0.000000
0.000000
0.000000
0.000000
0.000000
0.000000
0.000000
0.000000
0.000000
0.000000
0.000000
0.000000
0.000000
0.000000
0.000000
0.000000
0.000000
0.000000
0.000000
0.000000
0.000000
0.000000
0.000000
0.000000
0.000000
0.000000
0.000000
0.000000
0.000000
0.000000
4401.138672
212.401642
72.741951
66.959633
0.802994
95356864.000000
115.630608
96.968956
69.272415
526.459595
2976.083984
368.828674
76158.234375
28429.302734
148.634171
902.572815
170.078857
1789.604004
168.591354
1675.732422
1006.801270
1149.198975
2536.238037
83049576.000000
1.000000
1.000000
1.000000
0.000000
0.000000
0.000000
0.000000
136.555481
130.756332
1853.421387
101.711685
5235.622559
43.794868
71.865158
51.817177
47324.574219
49282.496094
128.772919
154.437210
302.231262
3767.474854
23500.083984
1095.220093
149.175507
433.325684
2117.562744
489.829559
1530.948364
28240.794922
1153.810791
2972.004150
1.000000
1.000000
1.000000
0.000000
0.000000
0.000000
0.000000
132.097733
35737.617188
38.326637
4700.428711
90.376045
290.374359
242.433273
5296.890137
1010.620117
646.824463
242.057968
1881.102417
907.613831
1562.825439
945.522888
33.537834
5673.094238
1.316751
458.656525
151.362854
6866.528809
368.403412
9610.139648
2171.300781
1.000000
1.000000
1.000000
0.000000
0.000000
0.000000
0.000000
4556.876465
164219952.000000
1581.748779
135656.203125
10448.511719
132.493103
227129.031250
175.688843
50.526306
124.533867
87.027374
3279.542725
321.213348
368.042603
330.669434
276.682281
0.577442
432.927429
129.798218
347.185150
0.655082
266.054077
3320.350098
41519.210938
1.000000
1.000000
1.000000
0.000000
0.000000
0.000000
0.000000
1027.792847
3409.571289
2795.934814
887.589783
72.167061
251.398422
1508.158081
142.609634
81647.437500
1773.407959
886.579651
12657.940430
35.710342
470.799591
650.993347
1093.419800
10192.500000
2078.407715
173.993988
416.767456
196.276077
4303.656250
998466.625000
324624.781250
1.000000
1.000000
1.000000
0.000000
0.000000
0.000000
0.000000
38.602921
2227.118896
72.123009
298.000061
7866.746094
1.750265
466.784180
42.720898
232.367950
6514.483887
870.311890
100.438377
184.529587
42874.476562
12942.632812
270.485199
357.222443
7002.910156
13420.385742
9315.273438
12991.093750
559.990784
5252.297363
2126.170410
1.000000
1.000000
1.000000
0.000000
0.000000
0.000000
0.000000
622.691772
6834.586426
63.321583
107050.992188
1222.063110
338.515839
263.104553
438.767029
2641.830322
1696.726562
31802.392578
5007.645020
5385.950684
8406.683594
3478.817139
805.173157
17939.255859
6927.379883
37641568.000000
1239.947998
12991.648438
1130.431763
930.493835
3816.194824
1.000000
1.000000
1.000000
0.000000
0.000000
0.000000
0.000000
997.227051
2530.847412
1055.536011
939.941711
2521.719482
117.958534
27921.134766
287566.156250
1585.435303
1610.791870
99.477097
128.620819
322.054626
24645172.000000
1351.329834
15051.408203
1125.015747
1788.856445
1779.833252
4261.506348
17893.662109
2291.409180
1940.491577
2322.619873
1.000000
1.000000
1.000000
0.000000
0.000000
0.000000
0.000000
52.895348
10989698.000000
2051.230469
82.583504
771.458740
194.723236
20260.878906
485.344879
2113.362305
368.438690
6044.636230
391.869202
8532.545898
1167.139160
155.069260
1.144957
174151.734375
202.750488
264.859558
68543.257812
1491.532227
26142.560547
95.220352
191028.375000
1.000000
1.000000
1.000000
0.000000
0.000000
0.000000
0.000000
43348.949219
295.792145
129.816269
8021.455566
16063.666992
668.323120
1159.266357
12930.026367
190196.281250
588.307678
164.597290
943.085632
1673.628418
202.559875
92.645546
118.531334
266763.218750
158.339508
352.103577
289706.187500
497.724182
1077.589111
95400.984375
95085.890625
1.000000
1.000000
1.000000
0.000000
0.000000
0.000000
0.000000
608.422485
134.128479
1757.286743
38.003361
1789.018799
155.426559
93.332878
161.593323
246.839035
163.966309
859.046326
2964.312988
2020.628052
670.733582
304234.031250
60897.402344
109189544.000000
856.278748
43348.000000
5690.215820
127.124413
9136.472656
3866.514648
3980.979492
1.000000
1.000000
1.000000
0.000000
0.000000
0.000000
0.000000
293.200500
1010911488.000000
272.582153
313831.718750
43311.792969
41954936.000000
8093.065430
9932.369141
330.182190
408.965698
1308.351929
11015329.000000
863.339905
7859819520.000000
30.736950
57765.031250
117242.046875
1863.486816
626.270264
52.568287
7545.468750
6939.771484
161842336.000000
7707.943848
1.000000
1.000000
1.000000
0.000000
0.000000
0.000000
0.000000
817.893738
299.026459
101.953384
90.159431
106.747154
10577.936523
167.605301
163.728683
140.197052
2430.033203
6692.489258
1623.566284
348.050293
59.237572
2803.853027
381.263000
340.080963
65.757278
429.265503
1685.783813
695.991272
72.907516
39987.761719
4008.734375
1.000000
1.000000
1.000000
0.000000
0.000000
0.000000
0.000000
84.377502
1914.607056
185.631866
32.687428
239.137878
334.974121
2331.989258
7076.490234
854.807983
1094.123901
20027.507812
75.006401
403.226471
252.377396
247.685974
9487.083984
49153.613281
266.246887
90296.828125
276.122650
6454.258301
1103.527466
5125.456543
998081.687500
1.000000
1.000000
1.000000
0.000000
0.000000
0.000000
0.000000
118.417709
81898.585938
124.463623
1.068224
143.247574
595.258911
106.952301
2075.960693
41956152.000000
83.883499
884.924377
1017.234009
339448.062500
24146.189453
483.977509
712.003418
1162.309082
222.488800
1296.005371
52.637688
1558.289307
82941672.000000
956.040222
15229.230469
1.000000
1.000000
1.000000
0.000000
0.000000
0.000000
0.000000
1401.948975
44920.691406
321.589508
286.300049
467.682465
909.528870
142.301956
1768.335205
215.564529
2586.180420
17708.445312
450.466003
2946.419189
694.969360
225.870224
48621.320312
96.501549
12590.282227
3796.752930
1774.248047
127.166779
1778.637207
1131.826538
15809.699219
1.000000
1.000000
1.000000
0.000000
0.000000
0.000000
0.000000
241.777725
1066.897095
199.461487
515.212402
23249.572266
36.870338
1826.071411
2048.633789
4755.435547
127.284676
612.892517
4968.316895
3716.982422
181.867142
276.957489
132.662704
361.902740
384.872284
159659.765625
192.144714
5988.002441
71.900070
102.825127
4414.942383
0.000000
0.000000
0.000000
0.000000
60.466911
39281.585938
2573.089600
154.088852
2679.325928
4864.960449
2318.028809
9501.799805
2524.337891
21143.566406
6729.176270
7730.223633
194.506302
98441824.000000
1942.945435
495978.718750
6310.347168
25976.509766
420.349030
553.218079
96046.179688
27242.650391
147.390472
1062.168457
0.000000
0.000000
0.000000
0.000000
1952.606445
680.857849
134.191284
378.023285
297.942047
5028.501953
122.308228
63.598629
169.246078
8015.240723
1055.213745
3710.529297
98599.765625
234.405884
130.477005
160.502151
287.903625
529.474548
4829300.500000
19885750.000000
1419.902832
2171.073730
609.187988
15961.965820
0.000000
0.000000
0.000000
0.000000
54.322781
1297.881958
471.955200
3294.022705
3090.402100
182.693710
13265.593750
469.188690
124.249191
288258.031250
48.986523
1296.897217
526.652527
43177.546875
901.886902
1069.894165
1930363.250000
14035.992188
197.572525
53.088497
2958.281006
696.440613
1277.781494
4774220.000000
0.000000
0.000000
0.000000
0.000000
1512.800537
1346.004272
161.298355
4118.746582
43065.175781
608.521667
408.002960
351.997589
685.952820
302.231628
1742.268188
270.203644
580.218323
167.584885
118.327675
101.278198
5530499.500000
210.837204
1231.003296
350.845428
4797.672363
2164.439453
1834.906128
2571.379395
0.000000
0.000000
0.000000
0.000000
127.415550
731.264343
56.353031
1666460.000000
23588.005859
279.991089
63.466579
72.629150
1928.034424
6808.125977
203547328.000000
137.895660
2088.183594
815.566467
276.663055
116.170349
736.004089
199.290375
187.322311
328.907837
1228.433716
307293.531250
346.262878
1176.355957
0.000000
0.000000
0.000000
0.000000
416.673218
1507.837646
265.409698
1456.785645
123.410706
2293.279053
467.066742
39930.304688
96.308983
30677.167969
1210.646240
225.645477
3374.927490
63.261253
3205.683350
102359.640625
1632.975220
152.911240
3960.564697
252.881241
38518.195312
120.644196
709.432800
2748.436768
0.000000
0.000000
0.000000
0.000000
68.872887
1.643465
9624.400391
367294.187500
352.918304
209.456467
57535692.000000
21695.566406
796.642090
890.261475
6319.164551
1935943.625000
141.384232
100.453712
1905.011719
986.557007
1160.270386
1434.188599
4917.715332
1235.691895
203547792.000000
40052.703125
4401.790527
9517.376953
0.000000
0.000000
0.000000
0.000000
61.888870
420902.468750
287.967072
3.435047
139927.750000
85.481224
15248.789062
1196.178955
371.667328
335.754425
795.511902
2211.878662
17535.990234
28250.292969
1568.013672
189.741104
257.578094
310.145630
1241.560913
0.647333
15372175.000000
92.687927
417.251709
1095.938110
0.000000
0.000000
0.000000
0.000000
620.671448
47.963627
3202.946045
902.522583
2151.246582
295.394989
709960.875000
351.164154
447.295837
9597.063477
675.687866
127.130768
42.776455
48.530334
442.901459
3.157118
1018.199585
852.133301
3773.940674
300.562286
3789.823486
12455.857422
5500.606934
4545.141113
0.000000
0.000000
0.000000
0.000000
1067.980469
163.599167
10160.033203
24003.625000
0.810925
79958.921875
81155.101562
140151.296875
2077.507324
92.107407
107.182175
328.705170
1349.230347
1.150873
883.227051
616.271667
69.633652
58.448242
937.382080
1080.609619
2232.846680
994.281921
157.557617
1799.688477
0.000000
0.000000
0.000000
0.000000
16076.915039
69402.570312
861.246094
102.234764
205149.765625
798.697021
164.195557
4412.475098
1245.503662
88.968460
24622.775391
22168.882812
258.386597
10534.013672
370.395752
287.988953
1438.340332
2015.052856
539.909729
27196.564453
235.273956
6550.566406
87.193962
8849.849609
0.000000
0.000000
0.000000
0.000000
16156.587891
112181.320312
710.138794
1523.647095
125.442719
94768.734375
304.834839
3326.238525
3161.388672
480.219116
453.299500
219.027863
1065.355835
4889.988281
12373.128906
82307.070312
81594.234375
25816.574219
579.120056
965.052124
163329.265625
107688.375000
1086.395142
2122.668945
0.000000
0.000000
0.000000
0.000000
475.254120
76.701782
67.384529
84.176529
107776.640625
3959.548828
1709.669189
336.586365
698.035645
663460.062500
2240.554688
1527.986938
1049.880493
23744.466797
51.913067
153.440887
104.047035
109.781876
960.798157
228.329056
226.425949
2353.015869
370.390503
2052.185303
0.000000
0.000000
0.000000
0.000000
12854.684570
62.571640
786193.125000
727.278320
260.219849
308.471924
361.303070
1898.099854
8.161514
22492.542969
29818181648384.000000
498.114899
619.886902
804.938171
174.536209
812.675293
301.588684
140.515381
296.465332
64.885162
715.260742
32273.298828
7110.055176
6860.905762
0.000000
0.000000
0.000000
0.000000
2028.109741
11138.396484
1781.692139
154.412842
1588.165894
4642.306152
334.463531
12982.554688
19754.939453
344.755157
3009.705566
49007.937500
874.243042
250.837875
6126.147461
613.956970
1224.463257
543.554688
82.012619
3513.237061
90958.132812
378.493073
1722.651489
20953.687500
0.000000
0.000000
0.000000
0.000000
82.583572
69.753937
3366.994873
208.003815
19580.318359
1960.728638
801.590271
481.051422
550.184021
124.430481
46.064392
70.694794
110.363838
1251777920.000000
3622.418945
156.098679
238.952087
204.363739
130.372955
39098.015625
277.614868
5787.437988
22680.476562
5685.529297
0.000000
0.000000
0.000000
0.000000
109266000.000000
4917.508789
1117.389648
92.979988
297.215637
1107.687378
0.020962
95356440.000000
1634.271851
16804.814453
1748.773926
146.236588
24.312254
83.085983
24338.179688
249.165985
3994.029785
832.710693
1147.660400
162.944000
303.322174
2318.439453
11944.697266
5083.696289
0.000000
0.000000
0.000000
0.000000
128181.062500
2.793333
215609.859375
536.138367
122.368614
7.653241
152.323059
386.390076
549.005127
13220.695312
46276.199219
185422.359375
1103.644653
29612.652344
1146.788452
2676.412354
6082527.000000
244.066986
578.833984
47.932873
14900.021484
373.169220
2859.019531
23664962.000000
0.000000
0.000000
0.000000
0.000000
190375.000000
103.913528
550.871643
227.564148
22320.017578
3954.878906
9132.200195
117335.429688
1646.217407
545.658386
74.285065
686.311462
36312.183594
161.365768
44.750652
169.665192
202056.750000
4899.297363
1321.329468
118.695572
1745.039551
451.737457
712.169128
3154.039307
0.000000
0.000000
0.000000
0.000000
67.801460
2.112837
19159504.000000
962.823608
131.344482
501.133453
359.184814
2869.374023
367.131348
15208.684570
346.163879
397.167389
2974.700195
285.511414
413.348297
113043.062500
1574.139893
3447.289795
2708.949463
3052.494385
904.015991
759.416138
39002.144531
11095.374023
0.000000
0.000000
0.000000
0.000000
58.443531
401.698822
487.097137
7979.335938
699.058838
831.867859
2775.412354
170.956650
15611.083984
13.365046
1795.819946
283.045227
113.671318
77766.062500
1174.130249
2779.191406
652.184814
307.437897
3431.944092
1632.954468
533.629517
174259.671875
450.620392
79955.398438
0.000000
0.000000
0.000000
0.000000
33.564564
122.766434
116.513634
810.307739
103.249580
206.106949
77.362686
45.207306
15372272.000000
124.745018
80961.039062
448975.000000
1671.839478
156.480896
287.222778
98099.492188
2749.472412
944355.062500
363.156677
128.375031
21629.095703
69.140564
135.720261
4928.904785
0.000000
0.000000
0.000000
0.000000
83570.054688
171.944733
2606.032227
2179.370361
1035.457886
173769.750000
76.603920
644.552673
586.768738
58.193298
209.507797
482.251526
1.314818
4055.348633
3391.973877
587638.875000
259.638885
311.942963
218.724991
793.960938
695.929321
111.653793
206.388260
954.865662
0.000000
0.000000
0.000000
0.000000
110.045082
105.694626
174.015564
319320.937500
2215.300049
1.139568
220.490631
3293.497559
571.196960
6086.917969
27423.615234
21588.687500
40.851173
430.415283
8697.548828
171.499878
29.643620
128166.570312
17505.513672
4534.703125
7180.167969
196821.546875
146.039902
8062.245605
0.000000
0.000000
0.000000
0.000000
337.090912
2884.263428
400.490753
92.776787
10510.995117
2768.880127
3398.927490
8100.896484
68835.500000
169.392029
215246224.000000
4244.266113
874.579102
228.009064
100.645561
488973.312500
37.209999
112331.828125
2133.458008
117.283730
2611.089111
2182.775879
89.603279
1164.667358