<?xml version='1.0' encoding='UTF-8'?>
<VTKFile xmlns='VTK' byte_order='LittleEndian' version='0.1' type='UnstructuredGrid'>
<UnstructuredGrid>
<Piece NumberOfCells='2512' NumberOfPoints='2512'>
<Points>
<DataArray NumberOfComponents='3' type='Float32' Name='Position' format='ascii'>
-0.075000 -0.075000 0.000000
-0.075000 -0.050000 0.000000
-0.075000 -0.025000 0.000000
-0.075000 0.000000 0.000000
-0.075000 0.025000 0.000000
-0.075000 0.050000 0.000000
-0.075000 0.075000 0.000000
-0.075000 0.100000 0.000000
-0.075000 0.125000 0.000000
-0.075000 0.150000 0.000000
-0.075000 0.175000 0.000000
-0.075000 0.200000 0.000000
-0.075000 0.225000 0.000000
-0.075000 0.250000 0.000000
-0.075000 0.275000 0.000000
-0.075000 0.300000 0.000000
-0.075000 0.325000 0.000000
-0.075000 0.350000 0.000000
-0.075000 0.375000 0.000000
-0.075000 0.400000 0.000000
-0.075000 0.425000 0.000000
-0.075000 0.450000 0.000000
-0.075000 0.475000 0.000000
-0.075000 0.500000 0.000000
-0.075000 0.525000 0.000000
-0.075000 0.550000 0.000000
-0.075000 0.575000 0.000000
-0.075000 0.600000 0.000000
-0.050000 -0.075000 0.000000
-0.050000 -0.050000 0.000000
-0.050000 -0.025000 0.000000
-0.050000 0.000000 0.000000
-0.050000 0.025000 0.000000
-0.050000 0.050000 0.000000
-0.050000 0.075000 0.000000
-0.050000 0.100000 0.000000
-0.050000 0.125000 0.000000
-0.050000 0.150000 0.000000
-0.050000 0.175000 0.000000
-0.050000 0.200000 0.000000
-0.050000 0.225000 0.000000
-0.050000 0.250000 0.000000
-0.050000 0.275000 0.000000
-0.050000 0.300000 0.000000
-0.050000 0.325000 0.000000
-0.050000 0.350000 0.000000
-0.050000 0.375000 0.000000
-0.050000 0.400000 0.000000
-0.050000 0.425000 0.000000
-0.050000 0.450000 0.000000
-0.050000 0.475000 0.000000
-0.050000 0.500000 0.000000
-0.050000 0.525000 0.000000
-0.050000 0.550000 0.000000
-0.050000 0.575000 0.000000
-0.050000 0.600000 0.000000
-0.025000 -0.075000 0.000000
-0.025000 -0.050000 0.000000
-0.025000 -0.025000 0.000000
-0.025000 0.000000 0.000000
-0.025000 0.025000 0.000000
-0.025000 0.050000 0.000000
-0.025000 0.075000 0.000000
-0.025000 0.100000 0.000000
-0.025000 0.125000 0.000000
-0.025000 0.150000 0.000000
-0.025000 0.175000 0.000000
-0.025000 0.200000 0.000000
-0.025000 0.225000 0.000000
-0.025000 0.250000 0.000000
-0.025000 0.275000 0.000000
-0.025000 0.300000 0.000000
-0.025000 0.325000 0.000000
-0.025000 0.350000 0.000000
-0.025000 0.375000 0.000000
-0.025000 0.400000 0.000000
-0.025000 0.425000 0.000000
-0.025000 0.450000 0.000000
-0.025000 0.475000 0.000000
-0.025000 0.500000 0.000000
-0.025000 0.525000 0.000000
-0.025000 0.550000 0.000000
-0.025000 0.575000 0.000000
-0.025000 0.600000 0.000000
0.000000 -0.075000 0.000000
0.000000 -0.050000 0.000000
0.000000 -0.025000 0.000000
0.000000 0.000000 0.000000
0.000000 0.025000 0.000000
0.000000 0.050000 0.000000
0.000000 0.075000 0.000000
0.000000 0.100000 0.000000
0.000000 0.125000 0.000000
0.000000 0.150000 0.000000
0.000000 0.175000 0.000000
0.000000 0.200000 0.000000
0.000000 0.225000 0.000000
0.000000 0.250000 0.000000
0.000000 0.275000 0.000000
0.000000 0.300000 0.000000
0.000000 0.325000 0.000000
0.000000 0.350000 0.000000
0.000000 0.375000 0.000000
0.000000 0.400000 0.000000
0.000000 0.425000 0.000000
0.000000 0.450000 0.000000
0.000000 0.475000 0.000000
0.000000 0.500000 0.000000
0.000000 0.525000 0.000000
0.000000 0.550000 0.000000
0.000000 0.575000 0.000000
0.000000 0.600000 0.000000
0.025000 -0.075000 0.000000
0.025000 -0.050000 0.000000
0.025000 -0.025000 0.000000
0.025000 0.000000 0.000000
0.026364 0.023956 0.000000
0.023827 0.048901 0.000000
0.026224 0.075612 0.000000
0.025223 0.098391 0.000000
0.024309 0.125186 0.000000
0.025811 0.148628 0.000000
0.024625 0.174676 0.000000
0.025127 0.198918 0.000000
0.024807 0.224599 0.000000
0.024877 0.249858 0.000000
0.024987 0.274783 0.000000
0.024751 0.300779 0.000000
0.024752 0.326074 0.000000
0.024883 0.351868 0.000000
0.024341 0.378337 0.000000
0.025298 0.404539 0.000000
0.022918 0.432867 0.000000
0.022901 0.462546 0.000000
0.024430 0.491989 0.000000
0.023922 0.518232 0.000000
0.023235 0.551851 0.000000
0.027552 0.587893 0.000000
0.052060 0.597480 0.000000
0.013913 0.600000 0.000000
0.555000 0.625000 0.000000
0.555000 0.650000 0.000000
0.555000 0.675000 0.000000
0.050000 -0.075000 0.000000
0.050000 -0.050000 0.000000
0.050000 -0.025000 0.000000
0.050000 0.000000 0.000000
0.052212 0.024503 0.000000
0.046898 0.048851 0.000000
0.049284 0.080639 0.000000
0.049998 0.103850 0.000000
0.048855 0.134092 0.000000
0.049996 0.158358 0.000000
0.049421 0.187162 0.000000
0.049793 0.210513 0.000000
0.049950 0.237792 0.000000
0.049325 0.260922 0.000000
0.049846 0.286894 0.000000
0.049141 0.311422 0.000000
0.049037 0.335769 0.000000
0.048669 0.361804 0.000000
0.046996 0.386713 0.000000
0.048603 0.412400 0.000000
0.045022 0.436851 0.000000
0.046591 0.463024 0.000000
0.047138 0.487583 0.000000
0.045872 0.513329 0.000000
0.042859 0.541568 0.000000
0.042755 0.564935 0.000000
0.073705 0.570826 0.000000
0.065800 0.600000 0.000000
0.580000 0.625000 0.000000
0.580000 0.650000 0.000000
0.580000 0.675000 0.000000
0.075000 -0.075000 0.000000
0.075000 -0.050000 0.000000
0.075000 -0.025000 0.000000
0.075000 0.000000 0.000000
0.080814 0.023997 0.000000
0.069391 0.047643 0.000000
0.075168 0.073860 0.000000
0.074496 0.097824 0.000000
0.070623 0.122691 0.000000
0.077670 0.147231 0.000000
0.069764 0.171334 0.000000
0.078819 0.197735 0.000000
0.070912 0.221317 0.000000
0.078448 0.248201 0.000000
0.073790 0.271821 0.000000
0.074406 0.298164 0.000000
0.076444 0.322332 0.000000
0.072068 0.348920 0.000000
0.074905 0.372886 0.000000
0.072887 0.399425 0.000000
0.072840 0.424589 0.000000
0.071001 0.449396 0.000000
0.071824 0.473231 0.000000
0.075105 0.497224 0.000000
0.070388 0.520294 0.000000
0.066595 0.549268 0.000000
0.097760 0.565955 0.000000
0.084853 0.599882 0.000000
0.605000 0.625000 0.000000
0.605000 0.650000 0.000000
0.605000 0.675000 0.000000
0.100000 -0.075000 0.000000
0.100000 -0.050000 0.000000
0.100000 -0.025000 0.000000
0.100000 0.000000 0.000000
0.105292 0.024495 0.000000
0.092669 0.052978 0.000000
0.099313 0.080264 0.000000
0.099913 0.104262 0.000000
0.096936 0.130729 0.000000
0.100328 0.156519 0.000000
0.096671 0.181814 0.000000
0.100729 0.208381 0.000000
0.097446 0.233823 0.000000
0.100183 0.260327 0.000000
0.098636 0.287442 0.000000
0.099017 0.312143 0.000000
0.098524 0.338901 0.000000
0.097426 0.364052 0.000000
0.096646 0.389955 0.000000
0.097464 0.415891 0.000000
0.096679 0.440018 0.000000
0.097929 0.465782 0.000000
0.102125 0.489084 0.000000
0.097825 0.514090 0.000000
0.087371 0.535845 0.000000
0.112334 0.550524 0.000000
0.114318 0.584258 0.000000
0.100284 0.600000 0.000000
0.630000 0.625000 0.000000
0.630000 0.650000 0.000000
0.630000 0.675000 0.000000
0.125000 -0.075000 0.000000
0.125000 -0.050000 0.000000
0.125000 -0.025000 0.000000
0.125000 0.000000 0.000000
0.132122 0.024950 0.000000
0.115354 0.047175 0.000000
0.124430 0.073323 0.000000
0.125851 0.098259 0.000000
0.120312 0.121886 0.000000
0.127264 0.147440 0.000000
0.120274 0.171378 0.000000
0.126531 0.197290 0.000000
0.121724 0.221375 0.000000
0.125444 0.246893 0.000000
0.121972 0.272381 0.000000
0.124212 0.297404 0.000000
0.123668 0.322589 0.000000
0.121300 0.349934 0.000000
0.125738 0.372672 0.000000
0.119546 0.399719 0.000000
0.127381 0.421916 0.000000
0.119227 0.448366 0.000000
0.126977 0.471328 0.000000
0.121241 0.504147 0.000000
0.125353 0.530200 0.000000
0.138259 0.552022 0.000000
0.142817 0.573340 0.000000
0.134723 0.600000 0.000000
0.655000 0.625000 0.000000
0.655000 0.650000 0.000000
0.655000 0.675000 0.000000
0.150000 -0.075000 0.000000
0.150000 -0.050000 0.000000
0.150000 -0.025000 0.000000
0.150000 0.000000 0.000000
0.156469 0.024342 0.000000
0.140337 0.052801 0.000000
0.149277 0.078733 0.000000
0.150294 0.102916 0.000000
0.145736 0.130858 0.000000
0.151353 0.155379 0.000000
0.145878 0.182444 0.000000
0.151011 0.207249 0.000000
0.146704 0.235482 0.000000
0.149748 0.258869 0.000000
0.146256 0.287043 0.000000
0.150943 0.310592 0.000000
0.143084 0.339251 0.000000
0.152815 0.360116 0.000000
0.142031 0.391239 0.000000
0.154471 0.409392 0.000000
0.142168 0.441354 0.000000
0.157929 0.457048 0.000000
0.138667 0.489012 0.000000
0.161602 0.499952 0.000000
0.147010 0.525650 0.000000
0.167246 0.545351 0.000000
0.168696 0.589174 0.000000
0.147254 0.600000 0.000000
0.680000 0.625000 0.000000
0.680000 0.650000 0.000000
0.680000 0.675000 0.000000
0.175000 -0.075000 0.000000
0.175000 -0.050000 0.000000
0.175000 -0.025000 0.000000
0.175000 0.000000 0.000000
0.183122 0.025474 0.000000
0.163653 0.047400 0.000000
0.173411 0.073588 0.000000
0.176382 0.097934 0.000000
0.169114 0.122414 0.000000
0.177094 0.147108 0.000000
0.168824 0.172663 0.000000
0.176857 0.197591 0.000000
0.169211 0.222180 0.000000
0.176330 0.247802 0.000000
0.169347 0.273438 0.000000
0.175786 0.298037 0.000000
0.168022 0.324670 0.000000
0.177397 0.349261 0.000000
0.167381 0.376556 0.000000
0.180274 0.399495 0.000000
0.167242 0.428534 0.000000
0.182587 0.447956 0.000000
0.169116 0.478235 0.000000
0.187380 0.494419 0.000000
0.172726 0.521643 0.000000
0.196793 0.547322 0.000000
0.173287 0.565494 0.000000
0.186021 0.600000 0.000000
0.705000 0.625000 0.000000
0.705000 0.650000 0.000000
0.705000 0.675000 0.000000
0.200000 -0.075000 0.000000
0.200000 -0.050000 0.000000
0.200000 -0.025000 0.000000
0.200000 0.000000 0.000000
0.207163 0.024650 0.000000
0.189299 0.050635 0.000000
0.198733 0.075792 0.000000
0.201382 0.099666 0.000000
0.194271 0.126432 0.000000
0.201811 0.150939 0.000000
0.194565 0.177181 0.000000
0.200946 0.201494 0.000000
0.195071 0.229375 0.000000
0.200049 0.252425 0.000000
0.194318 0.278880 0.000000
0.200562 0.302792 0.000000
0.192921 0.327556 0.000000
0.201618 0.351714 0.000000
0.191722 0.376208 0.000000
0.205977 0.400625 0.000000
0.192444 0.422175 0.000000
0.211434 0.450148 0.000000
0.195125 0.468494 0.000000
0.211653 0.500679 0.000000
0.197139 0.525393 0.000000
0.219026 0.549859 0.000000
[...]
<PointData>
<DataArray NumberOfComponents='1' type='Int32' Name='ParticleType' format='ascii'>
3
3
3
3
3
3
3
3
3
3
3
3
3
3
3
3
3
3
3
3
3
3
3
3
3
3
3
3
3
3
3
3
3
3
3
3
3
3
3
3
3
3
3
3
3
3
3
3
3
3
3
3
3
3
3
3
3
3
2
2
2
2
2
2
2
2
2
2
2
2
2
2
2
2
2
2
2
2
2
2
2
2
2
2
3
3
2
2
2
2
2
2
2
2
2
2
2
2
2
2
2
2
2
2
2
2
2
2
2
2
2
2
3
3
2
2
0
0
0
0
0
0
0
0
0
0
0
0
0
0
0
0
0
0
0
0
0
0
0
0
1
1
1
3
3
2
2
0
0
0
0
0
0
0
0
0
0
0
0
0
0
0
0
0
0
0
0
0
0
0
0
1
1
1
3
3
2
2
0
0
0
0
0
0
0
0
0
0
0
0
0
0
0
0
0
0
0
0
0
0
0
0
1
1
1
3
3
2
2
0
0
0
0
0
0
0
0
0
0
0
0
0
0
0
0
0
0
0
0
0
0
0
0
1
1
1
3
3
2
2
0
0
0
0
0
0
0
0
0
0
0
0
0
0
0
0
0
0
0
0
0
0
0
0
1
1
1
3
3
2
2
0
0
0
0
0
0
0
0
0
0
0
0
0
0
0
0
0
0
0
0
0
0
0
0
1
1
1
3
3
2
2
0
0
0
0
0
0
0
0
0
0
0
0
0
0
0
0
0
0
0
0
0
0
0
0
1
1
1
3
3
2
2
0
0
0
0
0
0
0
0
0
0
0
0
0
0
0
0
0
0
0
0
0
0
0
0
1
1
1
3
3
2
2
0
0
0
0
0
0
0
0
0
0
0
0
0
0
0
0
0
0
0
0
0
0
0
0
1
1
1
3
3
2
2
0
0
0
0
0
0
0
0
0
0
0
0
0
0
0
0
0
0
0
0
0
0
0
0
1
1
1
3
3
2
2
0
0
0
0
0
0
0
0
0
0
0
0
0
0
0
0
0
0
0
0
0
0
0
0
1
1
1
3
3
2
2
0
0
0
0
0
0
0
0
0
0
0
0
0
0
0
0
0
0
0
0
0
0
0
0
1
1
1
3
3
2
2
0
0
0
0
0
0
0
0
0
0
0
0
0
0
0
0
0
0
0
0
0
0
0
0
1
1
1
3
3
2
2
0
0
0
0
0
0
0
0
0
0
0
0
0
0
0
0
0
0
0
0
0
0
0
0
1
1
1
3
3
2
2
0
0
0
0
0
0
0
0
0
0
0
0
0
0
0
0
0
0
0
0
0
0
0
0
1
1
1
3
3
2
2
0
0
0
0
0
0
0
0
0
0
0
0
0
0
0
0
0
0
0
0
0
0
0
0
1
1
1
3
3
2
2
0
0
0
0
0
0
0
0
0
0
0
0
0
0
0
0
0
0
0
0
0
0
0
0
3
3
2
2
0
0
0
0
0
0
0
0
0
0
0
0
0
0
0
0
0
0
0
0
0
0
0
0
3
3
2
2
0
0
0
0
0
0
0
0
0
0
0
0
0
0
0
0
0
0
0
0
0
0
0
0
3
3
2
2
0
0
0
0
0
0
0
0
0
0
0
0
0
0
0
0
0
0
0
0
0
0
0
0
3
3
2
2
0
0
0
0
0
0
0
0
0
0
0
0
0
0
0
0
0
0
0
0
0
0
0
0
3
3
2
2
0
0
0
0
0
0
0
0
0
0
0
0
0
0
0
0
0
0
0
0
0
0
0
0
3
3
2
2
0
0
0
0
0
0
0
0
0
0
0
0
0
0
0
0
0
0
0
0
0
0
0
0
3
3
2
2
0
0
0
0
0
0
0
0
0
0
0
0
0
0
0
0
0
0
0
0
0
0
0
0
3
3
2
2
0
0
0
0
0
0
0
0
0
0
0
0
0
0
0
0
0
0
0
0
0
0
0
0
3
3
2
2
0
0
0
0
0
0
0
0
0
0
0
0
0
0
0
0
0
0
0
0
0
0
0
0
3
3
2
2
0
0
0
0
0
0
0
0
0
0
0
0
0
0
0
0
0
0
0
0
0
0
0
0
3
3
2
2
0
0
0
0
0
0
0
0
0
0
0
0
0
0
0
0
0
0
0
0
0
0
0
0
3
3
2
2
0
0
0
0
0
0
0
0
0
0
0
0
0
0
0
0
0
0
0
0
0
0
0
0
3
3
2
2
0
0
0
0
0
0
0
0
0
0
0
0
0
0
0
0
0
0
0
0
0
0
0
0
3
3
2
2
0
0
0
0
0
0
0
0
0
0
0
0
0
0
0
0
0
0
0
0
0
0
0
0
3
3
2
2
0
0
0
0
0
0
0
0
0
0
0
0
0
0
0
0
0
0
0
0
0
0
0
0
3
3
2
2
0
0
0
0
0
0
0
0
0
0
0
0
0
0
0
0
0
0
0
0
0
0
0
0
3
3
2
2
0
0
0
0
0
0
0
0
0
0
0
0
0
0
0
0
0
0
0
0
0
0
0
0
3
3
2
2
0
0
0
0
0
0
0
0
0
0
0
0
0
0
0
0
0
0
0
0
0
0
0
0
3
3
2
2
0
0
0
0
0
0
0
0
0
0
0
0
0
0
0
0
0
0
0
0
0
0
0
0
3
3
2
2
0
0
0
0
0
0
0
0
0
0
0
0
0
0
0
0
0
0
0
0
0
0
0
0
3
3
2
2
0
0
0
0
0
0
0
0
0
0
0
0
0
0
0
0
0
0
0
0
0
0
0
0
3
3
2
2
0
0
0
0
0
0
0
0
0
0
0
0
0
0
0
0
0
0
0
0
0
0
0
0
3
3
2
2
0
0
0
0
0
0
0
0
0
0
0
0
0
0
0
0
0
0
0
0
0
0
0
0
3
3
2
2
0
0
0
0
0
0
0
0
0
0
0
0
0
0
0
0
0
0
0
0
0
0
0
0
3
3
2
2
0
0
0
0
0
0
0
0
0
0
0
0
0
0
0
0
0
0
0
0
0
0
0
0
3
3
2
2
0
0
0
0
0
0
0
0
0
0
0
0
0
0
0
0
0
0
0
0
0
0
0
0
3
3
2
2
0
0
0
0
0
0
0
0
0
0
0
0
0
0
0
0
0
0
0
0
0
0
0
0
3
3
2
2
0
0
0
0
0
0
0
0
0
0
0
0
0
0
0
0
0
0
0
0
0
0
0
0
3
3
2
2
0
0
0
0
0
0
0
0
0
0
0
0
0
0
0
0
0
0
0
0
0
0
0
0
3
3
2
2
0
0
0
0
0
0
0
0
0
0
0
0
0
0
0
0
0
0
0
0
0
0
0
0
3
3
2
2
0
0
0
0
0
0
0
0
0
0
0
0
0
0
0
0
0
0
0
0
0
0
0
0
3
3
2
2
0
0
0
0
0
0
0
0
0
0
0
0
0
0
0
0
0
0
0
0
0
0
0
0
3
3
2
2
0
0
0
0
0
0
0
0
0
0
0
0
0
0
0
0
0
0
0
0
0
0
0
0
3
3
2
2
0
0
0
0
0
0
0
0
0
0
0
0
0
0
0
0
0
0
0
0
0
0
0
0
3
3
2
2
0
0
0
0
0
0
0
0
0
0
0
0
0
0
0
0
0
0
0
0
0
0
0
0
3
3
2
2
0
0
0
0
0
0
0
0
0
0
0
0
0
0
0
0
0
0
0
0
0
0
0
0
3
3
2
2
0
0
0
0
0
0
0
0
0
0
0
0
0
0
0
0
0
0
0
0
0
0
0
0
3
3
2
2
0
0
0
0
0
0
0
0
0
0
0
0
0
0
0
0
0
0
0
0
0
0
0
0
3
3
2
2
0
0
0
0
0
0
0
0
0
0
0
0
0
0
0
0
0
0
0
0
0
0
0
0
3
3
2
2
0
0
0
0
0
0
0
0
0
0
0
0
0
0
0
0
0
0
0
0
0
0
0
0
3
3
2
2
0
0
0
0
0
0
0
0
0
0
0
0
0
0
0
0
0
0
0
0
0
0
0
0
3
3
2
2
0
0
0
0
0
0
0
0
0
0
0
0
0
0
0
0
0
0
0
0
0
0
0
0
3
3
2
2
0
0
0
0
0
0
0
0
0
0
0
0
0
0
0
0
0
0
0
0
0
0
0
0
3
3
2
2
0
0
0
0
0
0
0
0
0
0
0
0
0
0
0
0
0
0
0
0
0
0
0
0
3
3
2
2
0
0
0
0
0
0
0
0
0
0
0
0
0
0
0
0
0
0
0
0
0
0
0
0
3
3
2
2
0
0
0
0
0
0
0
0
0
0
0
0
0
0
0
0
0
0
0
0
0
0
0
0
3
3
2
2
0
0
0
0
0
0
0
0
0
0
0
0
0
0
0
0
0
0
0
0
0
0
0
0
3
3
2
2
0
0
0
0
0
0
0
0
0
0
0
0
0
0
0
0
0
0
0
0
0
0
0
0
3
3
2
2
0
0
0
0
0
0
0
0
0
0
0
0
0
0
0
0
0
0
0
0
0
0
0
0
3
3
2
2
0
0
0
0
0
0
0
0
0
0
0
0
0
0
0
0
0
0
0
0
0
0
0
0
3
3
2
2
0
0
0
0
0
0
0
0
0
0
0
0
0
0
0
0
0
0
0
0
0
0
0
0
3
3
2
2
0
0
0
0
0
0
0
0
0
0
0
0
0
0
0
0
0
0
0
0
0
0
0
0
3
3
2
2
0
0
0
0
0
0
0
0
0
0
0
0
0
0
0
0
0
0
0
0
0
0
0
0
3
3
2
2
0
0
0
0
0
0
0
0
0
0
0
0
0
0
0
0
0
0
0
0
0
0
0
0
3
3
2
2
0
0
0
0
0
0
0
0
0
0
0
0
0
0
0
0
0
0
0
0
0
0
0
0
3
3
2
2
0
0
0
0
0
0
0
0
0
0
0
0
0
0
0
0
0
0
0
0
0
0
0
0
3
3
2
2
0
0
0
0
0
0
0
0
0
0
0
0
0
0
0
0
0
0
0
0
0
0
0
0
3
3
2
2
0
0
0
0
0
0
0
0
0
0
0
0
0
0
0
0
0
0
0
0
0
0
0
0
3
3
2
2
0
0
0
0
0
0
0
0
0
0
0
0
0
0
0
0
0
0
0
0
0
0
0
0
3
3
2
2
0
0
0
0
0
0
0
0
0
0
0
0
0
0
0
0
0
0
0
0
0
0
0
0
3
3
2
2
0
0
0
0
0
0
0
0
0
0
0
0
0
0
0
0
0
0
0
0
0
0
0
0
3
3
2
2
0
0
0
0
0
0
0
0
0
0
0
0
0
0
0
0
0
0
0
0
0
0
0
0
3
3
2
2
0
0
0
0
0
0
0
0
0
0
0
0
0
0
0
0
0
0
0
0
0
0
0
0
3
3
2
2
2
2
2
2
2
2
2
2
2
2
2
2
2
2
2
2
2
2
2
2
2
2
2
2
3
3
2
2
2
2
2
2
2
2
2
2
2
2
2
2
2
2
2
2
2
2
2
2
2
2
2
2
3
3
3
3
3
3
3
3
3
3
3
3
3
3
3
3
3
3
3
3
3
3
3
3
3
3
3
3
3
3
3
3
3
3
3
3
3
3
3
3
3
3
3
3
3
3
3
3
3
3
3
3
3
3
3
3
</DataArray>
<DataArray NumberOfComponents='1' type='Float32' Name='Velocity' format='ascii'>
0.000000
0.000000
0.000000
0.000000
0.000000
0.000000
0.000000
0.000000
0.000000
0.000000
0.000000
0.000000
0.000000
0.000000
0.000000
0.000000
0.000000
0.000000
0.000000
0.000000
0.000000
0.000000
0.000000
0.000000
0.000000
0.000000
0.000000
0.000000
0.000000
0.000000
0.000000
0.000000
0.000000
0.000000
0.000000
0.000000
0.000000
0.000000
0.000000
0.000000
0.000000
0.000000
0.000000
0.000000
0.000000
0.000000
0.000000
0.000000
0.000000
0.000000
0.000000
0.000000
0.000000
0.000000
0.000000
0.000000
0.000000
0.000000
0.000000
0.000000
0.000000
0.000000
0.000000
0.000000
0.000000
0.000000
0.000000
0.000000
0.000000
0.000000
0.000000
0.000000
0.000000
0.000000
0.000000
0.000000
0.000000
0.000000
0.000000
0.000000
0.000000
0.000000
0.000000
0.000000
0.000000
0.000000
0.000000
0.000000
0.000000
0.000000
0.000000
0.000000
0.000000
0.000000
0.000000
0.000000
0.000000
0.000000
0.000000
0.000000
0.000000
0.000000
0.000000
0.000000
0.000000
0.000000
0.000000
0.000000
0.000000
0.000000
0.000000
0.000000
0.000000
0.000000
0.000000
0.000000
0.023533
0.042756
0.049203
0.046844
0.018100
0.025163
0.054565
0.014175
0.018897
0.021331
0.034229
0.009731
0.037025
0.026504
0.049499
0.049898
0.121375
0.058203
0.153116
0.108204
0.240540
0.191423
0.186878
2.722794
1.000000
1.000000
1.000000
0.000000
0.000000
0.000000
0.000000
0.076852
0.052691
0.052772
0.017597
0.119669
0.112834
0.118630
0.136751
0.079851
0.099854
0.015023
0.125346
0.062876
0.100863
0.109470
0.157454
0.084132
0.192071
0.160341
0.170723
0.420139
0.551645
0.025811
1.415767
1.000000
1.000000
1.000000
0.000000
0.000000
0.000000
0.000000
0.083220
0.095881
0.014059
0.044133
0.092724
0.087085
0.099700
0.072271
0.052416
0.096946
0.101291
0.152867
0.098338
0.113564
0.135258
0.151135
0.171598
0.247154
0.089714
0.070112
0.121723
0.053238
0.046634
0.256803
1.000000
1.000000
1.000000
0.000000
0.000000
0.000000
0.000000
0.143831
0.210847
0.087271
0.108138
0.093846
0.147528
0.072966
0.142273
0.048834
0.083037
0.058170
0.104284
0.033709
0.138634
0.036129
0.162944
0.015456
0.106260
0.127755
0.073336
0.104125
0.068189
0.158629
1.637250
1.000000
1.000000
1.000000
0.000000
0.000000
0.000000
0.000000
0.135853
0.158687
0.045814
0.069909
0.075497
0.064287
0.067659
0.066897
0.026341
0.036536
0.082915
0.109822
0.070376
0.183357
0.114638
0.121891
0.089645
0.053916
0.095873
0.171858
0.240736
0.074967
0.373600
0.698550
1.000000
1.000000
1.000000
0.000000
0.000000
0.000000
0.000000
0.108952
0.172447
0.109110
0.058936
0.091097
0.111525
0.095260
0.034439
0.137960
0.069122
0.102263
0.081129
0.137828
0.038968
0.087368
0.050903
0.089308
0.149508
0.181973
0.068126
0.287647
0.079884
0.237628
1.292417
1.000000
1.000000
1.000000
0.000000
0.000000
0.000000
0.000000
0.106423
0.137993
0.090601
0.093060
0.076152
0.088629
0.089317
0.130114
0.046243
0.007458
0.045840
0.099832
0.080220
0.141657
0.184731
0.139211
0.238943
0.041572
0.101609
0.169649
0.068679
0.088877
0.018613
0.737798
1.000000
1.000000
1.000000
0.000000
0.000000
0.000000
0.000000
0.106558
0.192638
0.046533
0.007845
0.100912
0.058070
0.091974
0.032280
0.122874
0.130995
0.118359
0.054738
0.117943
0.060607
0.066365
0.151537
0.134027
0.190472
0.094000
0.080689
0.105146
0.054901
0.082266
1.446530
1.000000
1.000000
1.000000
0.000000
0.000000
0.000000
0.000000
0.090467
0.124635
0.028135
0.036343
0.071036
0.039528
0.063403
0.062903
0.041655
0.067305
0.064622
0.046159
0.033110
0.048156
0.080337
0.058057
0.130724
0.072933
0.015631
0.030367
0.112286
0.150194
0.223167
0.440830
1.000000
1.000000
1.000000
0.000000
0.000000
0.000000
0.000000
0.090749
0.168783
0.051987
0.042887
0.102111
0.051532
0.065846
0.061060
0.072644
0.065614
0.067199
0.053730
0.127820
0.044198
0.097714
0.042575
0.091417
0.018690
0.031673
0.069532
0.030823
0.047973
0.176075
0.764229
1.000000
1.000000
1.000000
0.000000
0.000000
0.000000
0.000000
0.099328
0.106985
0.048499
0.054283
0.114252
0.103681
0.100367
0.071763
0.066856
0.052981
0.076478
0.043029
0.054131
0.060686
0.049934
0.087826
0.019366
0.079336
0.060592
0.019003
0.078452
0.128838
0.170032
0.666089
1.000000
1.000000
1.000000
0.000000
0.000000
0.000000
0.000000
0.094734
0.107972
0.056920
0.063845
0.075133
0.042317
0.071196
0.048393
0.081884
0.052041
0.059166
0.051679
0.099541
0.092995
0.092265
0.081289
0.066842
0.037176
0.100812
0.069541
0.078693
0.069890
0.309811
0.416093
1.000000
1.000000
1.000000
0.000000
0.000000
0.000000
0.000000
0.108144
0.110571
0.067826
0.054369
0.077908
0.092282
0.057426
0.060057
0.057715
0.069503
0.064203
0.085981
0.036688
0.027709
0.028857
0.053397
0.055034
0.030066
0.078761
0.073854
0.056693
0.048378
0.067047
0.193503
1.000000
1.000000
1.000000
0.000000
0.000000
0.000000
0.000000
0.085933
0.061819
0.019530
0.075504
0.099876
0.108263
0.102498
0.100166
0.095194
0.059464
0.078179
0.041776
0.066901
0.044806
0.023367
0.079305
0.062390
0.058776
0.001319
0.033620
0.109083
0.137286
0.013022
0.475592
1.000000
1.000000
1.000000
0.000000
0.000000
0.000000
0.000000
0.098173
0.129700
0.067475
0.059540
0.057907
0.051977
0.047192
0.045129
0.059495
0.045260
0.060500
0.045955
0.048184
0.096399
0.066126
0.079321
0.058832
0.064833
0.027387
0.097945
0.062963
0.082605
0.209184
1.203111
1.000000
1.000000
1.000000
0.000000
0.000000
0.000000
0.000000
0.055406
0.076785
0.027939
0.076503
0.026600
0.094176
0.044825
0.081626
0.055520
0.032477
0.054356
0.046342
0.106276
0.065064
0.120182
0.043376
0.087752
0.147921
0.041483
0.134585
0.028990
0.040528
0.205964
0.837513
1.000000
1.000000
1.000000
0.000000
0.000000
0.000000
0.000000
0.063819
0.153238
0.046737
0.098320
0.097056
0.075654
0.078774
0.051313
0.045331
0.043041
0.089031
0.041814
0.096841
0.122252
0.113897
0.128722
0.157869
0.111507
0.063913
0.171423
0.077947
0.118916
0.331057
0.926342
0.000000
0.000000
0.000000
0.000000
0.046071
0.070104
0.059478
0.123103
0.103186
0.101703
0.054270
0.065179
0.048423
0.059111
0.097528
0.063734
0.069812
0.097872
0.092109
0.079370
0.093840
0.118716
0.085239
0.109904
0.096158
0.053983
0.123677
2.468969
0.000000
0.000000
0.000000
0.000000
0.038352
0.123129
0.011271
0.076155
0.099094
0.087097
0.069515
0.054688
0.037013
0.067366
0.063235
0.081347
0.105939
0.149370
0.097013
0.204716
0.069176
0.092578
0.094813
0.136943
0.167774
0.224000
0.321194
0.750645
0.000000
0.000000
0.000000
0.000000
0.070671
0.077166
0.042337
0.111189
0.113640
0.059000
0.094215
0.035985
0.048475
0.035294
0.034406
0.005196
0.081145
0.062814
0.040008
0.103793
0.047191
0.137757
0.102701
0.186402
0.042197
0.155111
0.231937
8.705654
0.000000
0.000000
0.000000
0.000000
0.050940
0.120661
0.024370
0.068628
0.105359
0.062631
0.086236
0.049550
0.057779
0.056068
0.037512
0.056415
0.079844
0.057290
0.142156
0.164625
0.114972
0.082135
0.027390
0.059617
0.086281
0.049061
0.348976
0.145839
0.000000
0.000000
0.000000
0.000000
0.089299
0.070532
0.034018
0.096657
0.099107
0.007342
0.124735
0.031207
0.080938
0.046451
0.081742
0.063822
0.096156
0.071914
0.049412
0.018739
0.021139
0.018647
0.126808
0.032051
0.028101
0.022683
0.086415
0.292437
0.000000
0.000000
0.000000
0.000000
0.068652
0.092870
0.009794
0.053217
0.095495
0.030238
0.073988
0.028111
0.058762
0.030641
0.054045
0.024407
0.068871
0.037961
0.048901
0.059424
0.078849
0.085705
0.025187
0.077636
0.051582
0.093250
0.143489
0.179592
0.000000
0.000000
0.000000
0.000000
0.096075
0.051267
0.021893
0.079488
0.069622
0.047358
0.117173
0.046870
0.082285
0.050802
0.043421
0.037145
0.029371
0.013487
0.038377
0.059898
0.081423
0.024165
0.047436
0.046182
0.075598
0.104371
0.127377
0.171428
0.000000
0.000000
0.000000
0.000000
0.092068
0.085218
0.014309
0.054550
0.118978
0.044724
0.103409
0.049471
0.076455
0.046325
0.097093
0.068014
0.075885
0.077774
0.021403
0.034149
0.020386
0.028467
0.094020
0.038945
0.114259
0.103340
0.134566
0.111962
0.000000
0.000000
0.000000
0.000000
0.091666
0.053858
0.022067
0.063690
0.071405
0.057728
0.080038
0.046702
0.082161
0.053355
0.066543
0.047972
0.081131
0.042653
0.049373
0.031126
0.052178
0.043721
0.086823
0.064003
0.179713
0.096560
0.134608
0.053363
0.000000
0.000000
0.000000
0.000000
0.092298
0.082858
0.050692
0.051630
0.117427
0.049311
0.098228
0.043741
0.057333
0.034740
0.050062
0.037693
0.032258
0.035198
0.055481
0.023111
0.063855
0.049771
0.061854
0.061027
0.013299
0.062234
0.038398
0.231835
0.000000
0.000000
0.000000
0.000000
0.095038
0.060783
0.040425
0.046790
0.085039
0.063286
0.067390
0.046676
0.079416
0.052935
0.064213
0.068667
0.049209
0.084066
0.038696
0.038156
0.073554
0.040877
0.061144
0.040987
0.120028
0.031670
0.061182
0.451419
0.000000
0.000000
0.000000
0.000000
0.086743
0.058051
0.076035
0.026393
0.094640
0.043663
0.093401
0.044735
0.070100
0.058347
0.089929
0.077841
0.095741
0.059593
0.044018
0.042859
0.017367
0.020298
0.051894
0.037905
0.073671
0.068348
0.102890
0.792693
0.000000
0.000000
0.000000
0.000000
0.098261
0.056359
0.042327
0.045858
0.086126
0.074195
0.071576
0.058369
0.074647
0.055582
0.075200
0.050363
0.079062
0.062305
0.097352
0.034371
0.061178
0.051205
0.054692
0.110327
0.092177
0.051436
0.104750
0.256509
0.000000
0.000000
0.000000
0.000000
0.090132
0.035064
0.083919
0.027745
0.093619
0.044570
0.086497
0.042538
0.062033
0.045276
0.051818
0.054571
0.060414
0.039736
0.029389
0.052516
0.039873
0.060227
0.034252
0.050286
0.143227
0.141522
0.057511
0.297746
0.000000
0.000000
0.000000
0.000000
0.106620
0.047126
0.060670
0.038782
0.070714
0.066229
0.062795
0.049339
0.059751
0.049048
0.065107
0.044566
0.051665
0.030503
0.027628
0.010589
0.051105
0.048522
0.032517
0.062327
0.068190
0.083920
0.043127
0.165565
0.000000
0.000000
0.000000
0.000000
0.095807
0.024157
0.092467
0.028115
0.077589
0.049554
0.073647
0.044180
0.056951
0.045774
0.056869
0.050305
0.057137
0.053109
0.059764
0.056089
0.049870
0.075839
0.074873
0.090883
0.062754
0.093528
0.069312
0.156081
0.000000
0.000000
0.000000
0.000000
0.111761
0.030828
0.072600
0.035833
0.064842
0.062407
0.057201
0.048587
0.061143
0.044201
0.063427
0.051990
0.073973
0.063380
0.073304
0.061844
0.076817
0.055479
0.116579
0.048840
0.099319
0.048658
0.116174
0.086771
0.000000
0.000000
0.000000
0.000000
0.110389
0.017825
0.101059
0.022030
0.064718
0.054621
0.064570
0.049238
0.054234
0.053220
0.068600
0.068057
0.074861
0.058249
0.082783
0.038631
0.077893
0.031032
0.061963
0.027413
0.070262
0.021689
0.120164
0.054880
0.000000
0.000000
0.000000
0.000000
0.115671
0.015626
0.087043
0.028429
0.052908
0.061687
0.051183
0.048423
0.056352
0.052833
0.066345
0.054364
0.079430
0.043353
0.060245
0.019446
0.036270
0.011201
0.031072
0.025555
0.037865
0.084943
0.158894
0.183045
0.000000
0.000000
0.000000
0.000000
0.121780
0.012819
0.101049
0.022141
0.051848
0.054869
0.047885
0.057240
0.050897
0.054168
0.063758
0.055459
0.072130
0.041271
0.067491
0.028427
0.046906
0.026327
0.026380
0.067059
0.052906
0.155899
0.150311
0.492380
0.000000
0.000000
0.000000
0.000000
0.107916
0.009833
0.104749
0.014879
0.036657
0.065305
0.048465
0.052282
0.041286
0.048817
0.058877
0.049316
0.076080
0.036316
0.077088
0.025706
0.057605
0.031912
0.044000
0.079667
0.081705
0.164200
0.454134
1.054116
0.000000
0.000000
0.000000
0.000000
0.126420
0.017369
0.101907
0.029550
0.033691
0.059132
0.033110
0.053169
0.041737
0.052914
0.053860
0.043828
0.074286
0.041886
0.074761
0.032479
0.073372
0.047055
0.069971
0.056214
0.087521
0.137033
0.209558
1.608233
0.000000
0.000000
0.000000
0.000000
0.104074
0.014027
0.103470
0.003661
0.008875
0.054724
0.027942
0.053456
0.027316
0.043389
0.048593
0.048498
0.077595
0.037894
0.093485
0.032967
0.073469
0.028097
0.043013
0.093946
0.058853
0.067640
0.046213
1.793545
0.000000
0.000000
0.000000
0.000000
0.114833
0.017938
0.108234
0.019436
0.009168
0.051271
0.015251
0.045064
0.019254
0.043148
0.042596
0.040973
0.070966
0.031240
0.076583
0.027460
0.079758
0.049221
0.062228
0.069312
0.065001
0.056829
0.063899
1.939313
0.000000
0.000000
0.000000
0.000000
0.108514
0.022611
0.096953
0.007740
0.004395
0.048969
0.006049
0.047109
0.013264
0.046574
0.032899
0.031379
0.056724
0.030586
0.085797
0.020253
0.067093
0.030285
0.061907
0.090904
0.056287
0.015466
0.072907
1.967342
0.000000
0.000000
0.000000
0.000000
0.097761
0.016664
0.099322
0.018455
0.007908
0.047373
0.018847
0.047850
0.014831
0.042172
0.023928
0.039491
0.061499
0.029722
0.065988
0.032649
0.078734
0.047523
0.047365
0.074135
0.072154
0.032174
0.034210
2.099613
0.000000
0.000000
0.000000
0.000000
0.104192
0.023274
0.086488
0.013354
0.010434
0.046176
0.006809
0.043432
0.009320
0.048023
0.041881
0.046053
0.058386
0.036862
0.078917
0.030504
0.072906
0.054990
0.049465
0.067684
0.030768
0.060226
0.091263
2.111465
0.000000
0.000000
0.000000
0.000000
0.094234
0.019132
0.088807
0.017728
0.018717
0.038705
0.014412
0.043650
0.030073
0.042756
0.026957
0.047638
0.058833
0.042674
0.074651
0.045569
0.060575
0.047735
0.048951
0.061279
0.068501
0.071665
0.037670
2.245043
0.000000
0.000000
0.000000
0.000000
0.097460
0.029548
0.084357
0.019192
0.016379
0.039578
0.022413
0.041002
0.020324
0.035095
0.033556
0.035295
0.049099
0.036733
0.048695
0.027360
0.045015
0.053987
0.051361
0.028285
0.036602
0.111937
0.091484
2.186023
0.000000
0.000000
0.000000
0.000000
0.091403
0.032169
0.078736
0.017740
0.025031
0.031984
0.014484
0.040190
0.027737
0.044723
0.040585
0.041238
0.041726
0.040542
0.044016
0.038783
0.023546
0.043141
0.055735
0.023494
0.059106
0.093241
0.066117
2.333974
0.000000
0.000000
0.000000
0.000000
0.092054
0.037159
0.076262
0.024903
0.027427
0.026328
0.021923
0.034994
0.039052
0.042374
0.041983
0.048774
0.053683
0.046953
0.027294
0.043464
0.033929
0.037681
0.051948
0.030743
0.048020
0.138516
0.106895
2.198555
0.000000
0.000000
0.000000
0.000000
0.090457
0.046067
0.072639
0.028171
0.026835
0.023223
0.023987
0.032145
0.030587
0.039613
0.052514
0.044387
0.038903
0.049797
0.017696
0.048602
0.050128
0.038979
0.073649
0.029414
0.067762
0.115548
0.073144
2.296005
0.000000
0.000000
0.000000
0.000000
0.088489
0.051286
0.070426
0.031505
0.028690
0.021215
0.018746
0.028042
0.043064
0.033671
0.038988
0.040716
0.036168
0.048132
0.011244
0.059387
0.047507
0.031110
0.021627
0.058052
0.040712
0.145998
0.103735
2.202620
0.000000
0.000000
0.000000
0.000000
0.083234
0.057103
0.066045
0.034822
0.029187
0.016829
0.022224
0.021817
0.031174
0.029636
0.042560
0.035378
0.020558
0.043417
0.027405
0.049690
0.058448
0.020238
0.040148
0.071031
0.045184
0.135692
0.100782
2.181569
0.000000
0.000000
0.000000
0.000000
0.083177
0.060082
0.061502
0.036615
0.031319
0.016766
0.014680
0.020126
0.033380
0.023360
0.030723
0.031503
0.011069
0.049466
0.044034
0.045303
0.052244
0.028443
0.015535
0.082169
0.035168
0.143935
0.107828
2.118890
0.000000
0.000000
0.000000
0.000000
0.073361
0.062580
0.061438
0.042187
0.034637
0.014418
0.011227
0.013570
0.025204
0.017757
0.023476
0.030326
0.016899
0.036917
0.049635
0.029343
0.044904
0.025662
0.025648
0.081965
0.034404
0.120597
0.110306