<?xml version='1.0' encoding='UTF-8'?>
<VTKFile xmlns='VTK' byte_order='LittleEndian' version='0.1' type='UnstructuredGrid'>
<UnstructuredGrid>
<Piece NumberOfCells='2512' NumberOfPoints='2512'>
<Points>
<DataArray NumberOfComponents='3' type='Float32' Name='Position' format='ascii'>
-0.075000 -0.075000 0.000000
-0.075000 -0.050000 0.000000
-0.075000 -0.025000 0.000000
-0.075000 0.000000 0.000000
-0.075000 0.025000 0.000000
-0.075000 0.050000 0.000000
-0.075000 0.075000 0.000000
-0.075000 0.100000 0.000000
-0.075000 0.125000 0.000000
-0.075000 0.150000 0.000000
-0.075000 0.175000 0.000000
-0.075000 0.200000 0.000000
-0.075000 0.225000 0.000000
-0.075000 0.250000 0.000000
-0.075000 0.275000 0.000000
-0.075000 0.300000 0.000000
-0.075000 0.325000 0.000000
-0.075000 0.350000 0.000000
-0.075000 0.375000 0.000000
-0.075000 0.400000 0.000000
-0.075000 0.425000 0.000000
-0.075000 0.450000 0.000000
-0.075000 0.475000 0.000000
-0.075000 0.500000 0.000000
-0.075000 0.525000 0.000000
-0.075000 0.550000 0.000000
-0.075000 0.575000 0.000000
-0.075000 0.600000 0.000000
-0.050000 -0.075000 0.000000
-0.050000 -0.050000 0.000000
-0.050000 -0.025000 0.000000
-0.050000 0.000000 0.000000
-0.050000 0.025000 0.000000
-0.050000 0.050000 0.000000
-0.050000 0.075000 0.000000
-0.050000 0.100000 0.000000
-0.050000 0.125000 0.000000
-0.050000 0.150000 0.000000
-0.050000 0.175000 0.000000
-0.050000 0.200000 0.000000
-0.050000 0.225000 0.000000
-0.050000 0.250000 0.000000
-0.050000 0.275000 0.000000
-0.050000 0.300000 0.000000
-0.050000 0.325000 0.000000
-0.050000 0.350000 0.000000
-0.050000 0.375000 0.000000
-0.050000 0.400000 0.000000
-0.050000 0.425000 0.000000
-0.050000 0.450000 0.000000
-0.050000 0.475000 0.000000
-0.050000 0.500000 0.000000
-0.050000 0.525000 0.000000
-0.050000 0.550000 0.000000
-0.050000 0.575000 0.000000
-0.050000 0.600000 0.000000
-0.025000 -0.075000 0.000000
-0.025000 -0.050000 0.000000
-0.025000 -0.025000 0.000000
-0.025000 0.000000 0.000000
-0.025000 0.025000 0.000000
-0.025000 0.050000 0.000000
-0.025000 0.075000 0.000000
-0.025000 0.100000 0.000000
-0.025000 0.125000 0.000000
-0.025000 0.150000 0.000000
-0.025000 0.175000 0.000000
-0.025000 0.200000 0.000000
-0.025000 0.225000 0.000000
-0.025000 0.250000 0.000000
-0.025000 0.275000 0.000000
-0.025000 0.300000 0.000000
-0.025000 0.325000 0.000000
-0.025000 0.350000 0.000000
-0.025000 0.375000 0.000000
-0.025000 0.400000 0.000000
-0.025000 0.425000 0.000000
-0.025000 0.450000 0.000000
-0.025000 0.475000 0.000000
-0.025000 0.500000 0.000000
-0.025000 0.525000 0.000000
-0.025000 0.550000 0.000000
-0.025000 0.575000 0.000000
-0.025000 0.600000 0.000000
0.000000 -0.075000 0.000000
0.000000 -0.050000 0.000000
0.000000 -0.025000 0.000000
0.000000 0.000000 0.000000
0.000000 0.025000 0.000000
0.000000 0.050000 0.000000
0.000000 0.075000 0.000000
0.000000 0.100000 0.000000
0.000000 0.125000 0.000000
0.000000 0.150000 0.000000
0.000000 0.175000 0.000000
0.000000 0.200000 0.000000
0.000000 0.225000 0.000000
0.000000 0.250000 0.000000
0.000000 0.275000 0.000000
0.000000 0.300000 0.000000
0.000000 0.325000 0.000000
0.000000 0.350000 0.000000
0.000000 0.375000 0.000000
0.000000 0.400000 0.000000
0.000000 0.425000 0.000000
0.000000 0.450000 0.000000
0.000000 0.475000 0.000000
0.000000 0.500000 0.000000
0.000000 0.525000 0.000000
0.000000 0.550000 0.000000
0.000000 0.575000 0.000000
0.000000 0.600000 0.000000
0.025000 -0.075000 0.000000
0.025000 -0.050000 0.000000
0.025000 -0.025000 0.000000
0.025000 0.000000 0.000000
0.024896 0.024910 0.000000
0.025057 0.049961 0.000000
0.024953 0.074938 0.000000
0.025048 0.099909 0.000000
0.024956 0.124950 0.000000
0.025030 0.149908 0.000000
0.024978 0.174946 0.000000
0.025012 0.199916 0.000000
0.025000 0.224937 0.000000
0.024987 0.249939 0.000000
0.025019 0.274927 0.000000
0.024972 0.299973 0.000000
0.025035 0.324940 0.000000
0.024949 0.350012 0.000000
0.025033 0.374978 0.000000
0.024967 0.400087 0.000000
0.025036 0.425070 0.000000
0.024879 0.450178 0.000000
0.025056 0.475244 0.000000
0.025034 0.500279 0.000000
0.024729 0.525536 0.000000
0.025282 0.550332 0.000000
0.024520 0.575756 0.000000
0.024637 0.600000 0.000000
0.125000 0.625000 0.000000
0.125000 0.650000 0.000000
0.125000 0.675000 0.000000
0.050000 -0.075000 0.000000
0.050000 -0.050000 0.000000
0.050000 -0.025000 0.000000
0.050000 0.000000 0.000000
0.049999 0.024972 0.000000
0.050025 0.049944 0.000000
0.050006 0.074951 0.000000
0.049998 0.099961 0.000000
0.050013 0.124921 0.000000
0.049980 0.149970 0.000000
0.050027 0.174903 0.000000
0.049962 0.199974 0.000000
0.050032 0.224907 0.000000
0.049947 0.249977 0.000000
0.050029 0.274907 0.000000
0.049928 0.300001 0.000000
0.050016 0.324908 0.000000
0.049916 0.350032 0.000000
0.049976 0.374939 0.000000
0.049894 0.400025 0.000000
0.049922 0.425031 0.000000
0.049890 0.450028 0.000000
0.049895 0.475031 0.000000
0.049752 0.500107 0.000000
0.049939 0.525222 0.000000
0.049867 0.550155 0.000000
0.049863 0.575524 0.000000
0.049308 0.599974 0.000000
0.150000 0.625000 0.000000
0.150000 0.650000 0.000000
0.150000 0.675000 0.000000
0.075000 -0.075000 0.000000
0.075000 -0.050000 0.000000
0.075000 -0.025000 0.000000
0.075000 0.000000 0.000000
0.074953 0.024949 0.000000
0.075040 0.050010 0.000000
0.074999 0.074944 0.000000
0.075015 0.100013 0.000000
0.075007 0.124907 0.000000
0.074993 0.150006 0.000000
0.075015 0.174908 0.000000
0.074990 0.199971 0.000000
0.075000 0.224908 0.000000
0.075004 0.249964 0.000000
0.074978 0.274874 0.000000
0.074998 0.299949 0.000000
0.074975 0.324867 0.000000
0.074984 0.349895 0.000000
0.074937 0.374859 0.000000
0.075002 0.399870 0.000000
0.074903 0.424808 0.000000
0.074950 0.449859 0.000000
0.074895 0.474797 0.000000
0.074831 0.499879 0.000000
0.074789 0.524809 0.000000
0.074802 0.549793 0.000000
0.074888 0.575067 0.000000
0.073960 0.599233 0.000000
0.175000 0.625000 0.000000
0.175000 0.650000 0.000000
0.175000 0.675000 0.000000
0.100000 -0.075000 0.000000
0.100000 -0.050000 0.000000
0.100000 -0.025000 0.000000
0.100000 0.000000 0.000000
0.099986 0.024946 0.000000
0.100034 0.049965 0.000000
0.100013 0.074919 0.000000
0.100019 0.099995 0.000000
0.100009 0.124882 0.000000
0.100024 0.149991 0.000000
0.099993 0.174887 0.000000
0.100024 0.199947 0.000000
0.099985 0.224915 0.000000
0.100022 0.249933 0.000000
0.099979 0.274889 0.000000
0.100013 0.299964 0.000000
0.099974 0.324876 0.000000
0.099982 0.349929 0.000000
0.099970 0.374938 0.000000
0.099943 0.399897 0.000000
0.099938 0.424947 0.000000
0.099893 0.449937 0.000000
0.099899 0.474913 0.000000
0.099853 0.499858 0.000000
0.099754 0.524917 0.000000
0.099960 0.549778 0.000000
0.099692 0.575018 0.000000
0.099686 0.599152 0.000000
0.200000 0.625000 0.000000
0.200000 0.650000 0.000000
0.200000 0.675000 0.000000
0.125000 -0.075000 0.000000
0.125000 -0.050000 0.000000
0.125000 -0.025000 0.000000
0.125000 0.000000 0.000000
0.124992 0.024942 0.000000
0.125042 0.049999 0.000000
0.125001 0.074921 0.000000
0.125039 0.100018 0.000000
0.124998 0.124886 0.000000
0.125028 0.150014 0.000000
0.125006 0.174898 0.000000
0.125009 0.199971 0.000000
0.125012 0.224896 0.000000
0.124986 0.249962 0.000000
0.125025 0.274862 0.000000
0.124963 0.299969 0.000000
0.125020 0.324856 0.000000
0.124940 0.349919 0.000000
0.125002 0.374881 0.000000
0.124908 0.399864 0.000000
0.124971 0.424851 0.000000
0.124930 0.449789 0.000000
0.124932 0.474856 0.000000
0.124839 0.499699 0.000000
0.124911 0.524876 0.000000
0.124838 0.549497 0.000000
0.124868 0.574868 0.000000
0.124595 0.599096 0.000000
0.225000 0.625000 0.000000
0.225000 0.650000 0.000000
0.225000 0.675000 0.000000
0.150000 -0.075000 0.000000
0.150000 -0.050000 0.000000
0.150000 -0.025000 0.000000
0.150000 0.000000 0.000000
0.149995 0.024944 0.000000
0.150047 0.049986 0.000000
0.150009 0.074919 0.000000
0.150039 0.100011 0.000000
0.150012 0.124869 0.000000
0.150032 0.150023 0.000000
0.150018 0.174858 0.000000
0.150018 0.199989 0.000000
0.150020 0.224879 0.000000
0.150015 0.249958 0.000000
0.149994 0.274850 0.000000
0.150023 0.299958 0.000000
0.149982 0.324842 0.000000
0.150020 0.349879 0.000000
0.149943 0.374894 0.000000
0.150060 0.399772 0.000000
0.149906 0.424899 0.000000
0.149974 0.449784 0.000000
0.149964 0.474792 0.000000
0.149875 0.499739 0.000000
0.149872 0.524829 0.000000
0.149939 0.549470 0.000000
0.150082 0.574891 0.000000
0.149827 0.599038 0.000000
0.250000 0.625000 0.000000
0.250000 0.650000 0.000000
0.250000 0.675000 0.000000
0.175000 -0.075000 0.000000
0.175000 -0.050000 0.000000
0.175000 -0.025000 0.000000
0.175000 0.000000 0.000000
0.175018 0.024944 0.000000
0.175034 0.049986 0.000000
0.175028 0.074916 0.000000
0.175032 0.100017 0.000000
0.175032 0.124861 0.000000
0.175017 0.150026 0.000000
0.175035 0.174865 0.000000
0.175014 0.199967 0.000000
0.175023 0.224901 0.000000
0.175035 0.249914 0.000000
0.174988 0.274874 0.000000
0.175067 0.299911 0.000000
0.174949 0.324836 0.000000
0.175057 0.349846 0.000000
0.174982 0.374888 0.000000
0.174944 0.399798 0.000000
0.175021 0.424808 0.000000
0.174938 0.449856 0.000000
0.174946 0.474777 0.000000
0.174965 0.499703 0.000000
0.175047 0.524874 0.000000
0.174887 0.549519 0.000000
0.175072 0.574843 0.000000
0.174898 0.598835 0.000000
0.275000 0.625000 0.000000
0.275000 0.650000 0.000000
0.275000 0.675000 0.000000
0.200000 -0.075000 0.000000
0.200000 -0.050000 0.000000
0.200000 -0.025000 0.000000
0.200000 0.000000 0.000000
0.200018 0.024954 0.000000
0.200052 0.049991 0.000000
0.200021 0.074915 0.000000
0.200048 0.100023 0.000000
0.200023 0.124856 0.000000
0.200055 0.150036 0.000000
0.200019 0.174849 0.000000
0.200053 0.199963 0.000000
0.200017 0.224901 0.000000
0.200051 0.249894 0.000000
0.200022 0.274896 0.000000
0.200023 0.299910 0.000000
0.200047 0.324828 0.000000
0.199980 0.349939 0.000000
0.200040 0.374804 0.000000
0.200005 0.399825 0.000000
0.199975 0.424900 0.000000
0.200028 0.449699 0.000000
0.199974 0.474729 0.000000
0.199952 0.499797 0.000000
0.199992 0.524747 0.000000
0.199924 0.549412 0.000000
[...]
<PointData>
<DataArray NumberOfComponents='1' type='Int32' Name='ParticleType' format='ascii'>
3
3
3
3
3
3
3
3
3
3
3
3
3
3
3
3
3
3
3
3
3
3
3
3
3
3
3
3
3
3
3
3
3
3
3
3
3
3
3
3
3
3
3
3
3
3
3
3
3
3
3
3
3
3
3
3
3
3
2
2
2
2
2
2
2
2
2
2
2
2
2
2
2
2
2
2
2
2
2
2
2
2
2
2
3
3
2
2
2
2
2
2
2
2
2
2
2
2
2
2
2
2
2
2
2
2
2
2
2
2
2
2
3
3
2
2
0
0
0
0
0
0
0
0
0
0
0
0
0
0
0
0
0
0
0
0
0
0
0
0
1
1
1
3
3
2
2
0
0
0
0
0
0
0
0
0
0
0
0
0
0
0
0
0
0
0
0
0
0
0
0
1
1
1
3
3
2
2
0
0
0
0
0
0
0
0
0
0
0
0
0
0
0
0
0
0
0
0
0
0
0
0
1
1
1
3
3
2
2
0
0
0
0
0
0
0
0
0
0
0
0
0
0
0
0
0
0
0
0
0
0
0
0
1
1
1
3
3
2
2
0
0
0
0
0
0
0
0
0
0
0
0
0
0
0
0
0
0
0
0
0
0
0
0
1
1
1
3
3
2
2
0
0
0
0
0
0
0
0
0
0
0
0
0
0
0
0
0
0
0
0
0
0
0
0
1
1
1
3
3
2
2
0
0
0
0
0
0
0
0
0
0
0
0
0
0
0
0
0
0
0
0
0
0
0
0
1
1
1
3
3
2
2
0
0
0
0
0
0
0
0
0
0
0
0
0
0
0
0
0
0
0
0
0
0
0
0
1
1
1
3
3
2
2
0
0
0
0
0
0
0
0
0
0
0
0
0
0
0
0
0
0
0
0
0
0
0
0
1
1
1
3
3
2
2
0
0
0
0
0
0
0
0
0
0
0
0
0
0
0
0
0
0
0
0
0
0
0
0
1
1
1
3
3
2
2
0
0
0
0
0
0
0
0
0
0
0
0
0
0
0
0
0
0
0
0
0
0
0
0
1
1
1
3
3
2
2
0
0
0
0
0
0
0
0
0
0
0
0
0
0
0
0
0
0
0
0
0
0
0
0
1
1
1
3
3
2
2
0
0
0
0
0
0
0
0
0
0
0
0
0
0
0
0
0
0
0
0
0
0
0
0
1
1
1
3
3
2
2
0
0
0
0
0
0
0
0
0
0
0
0
0
0
0
0
0
0
0
0
0
0
0
0
1
1
1
3
3
2
2
0
0
0
0
0
0
0
0
0
0
0
0
0
0
0
0
0
0
0
0
0
0
0
0
1
1
1
3
3
2
2
0
0
0
0
0
0
0
0
0
0
0
0
0
0
0
0
0
0
0
0
0
0
0
0
1
1
1
3
3
2
2
0
0
0
0
0
0
0
0
0
0
0
0
0
0
0
0
0
0
0
0
0
0
0
0
3
3
2
2
0
0
0
0
0
0
0
0
0
0
0
0
0
0
0
0
0
0
0
0
0
0
0
0
3
3
2
2
0
0
0
0
0
0
0
0
0
0
0
0
0
0
0
0
0
0
0
0
0
0
0
0
3
3
2
2
0
0
0
0
0
0
0
0
0
0
0
0
0
0
0
0
0
0
0
0
0
0
0
0
3
3
2
2
0
0
0
0
0
0
0
0
0
0
0
0
0
0
0
0
0
0
0
0
0
0
0
0
3
3
2
2
0
0
0
0
0
0
0
0
0
0
0
0
0
0
0
0
0
0
0
0
0
0
0
0
3
3
2
2
0
0
0
0
0
0
0
0
0
0
0
0
0
0
0
0
0
0
0
0
0
0
0
0
3
3
2
2
0
0
0
0
0
0
0
0
0
0
0
0
0
0
0
0
0
0
0
0
0
0
0
0
3
3
2
2
0
0
0
0
0
0
0
0
0
0
0
0
0
0
0
0
0
0
0
0
0
0
0
0
3
3
2
2
0
0
0
0
0
0
0
0
0
0
0
0
0
0
0
0
0
0
0
0
0
0
0
0
3
3
2
2
0
0
0
0
0
0
0
0
0
0
0
0
0
0
0
0
0
0
0
0
0
0
0
0
3
3
2
2
0
0
0
0
0
0
0
0
0
0
0
0
0
0
0
0
0
0
0
0
0
0
0
0
3
3
2
2
0
0
0
0
0
0
0
0
0
0
0
0
0
0
0
0
0
0
0
0
0
0
0
0
3
3
2
2
0
0
0
0
0
0
0
0
0
0
0
0
0
0
0
0
0
0
0
0
0
0
0
0
3
3
2
2
0
0
0
0
0
0
0
0
0
0
0
0
0
0
0
0
0
0
0
0
0
0
0
0
3
3
2
2
0
0
0
0
0
0
0
0
0
0
0
0
0
0
0
0
0
0
0
0
0
0
0
0
3
3
2
2
0
0
0
0
0
0
0
0
0
0
0
0
0
0
0
0
0
0
0
0
0
0
0
0
3
3
2
2
0
0
0
0
0
0
0
0
0
0
0
0
0
0
0
0
0
0
0
0
0
0
0
0
3
3
2
2
0
0
0
0
0
0
0
0
0
0
0
0
0
0
0
0
0
0
0
0
0
0
0
0
3
3
2
2
0
0
0
0
0
0
0
0
0
0
0
0
0
0
0
0
0
0
0
0
0
0
0
0
3
3
2
2
0
0
0
0
0
0
0
0
0
0
0
0
0
0
0
0
0
0
0
0
0
0
0
0
3
3
2
2
0
0
0
0
0
0
0
0
0
0
0
0
0
0
0
0
0
0
0
0
0
0
0
0
3
3
2
2
0
0
0
0
0
0
0
0
0
0
0
0
0
0
0
0
0
0
0
0
0
0
0
0
3
3
2
2
0
0
0
0
0
0
0
0
0
0
0
0
0
0
0
0
0
0
0
0
0
0
0
0
3
3
2
2
0
0
0
0
0
0
0
0
0
0
0
0
0
0
0
0
0
0
0
0
0
0
0
0
3
3
2
2
0
0
0
0
0
0
0
0
0
0
0
0
0
0
0
0
0
0
0
0
0
0
0
0
3
3
2
2
0
0
0
0
0
0
0
0
0
0
0
0
0
0
0
0
0
0
0
0
0
0
0
0
3
3
2
2
0
0
0
0
0
0
0
0
0
0
0
0
0
0
0
0
0
0
0
0
0
0
0
0
3
3
2
2
0
0
0
0
0
0
0
0
0
0
0
0
0
0
0
0
0
0
0
0
0
0
0
0
3
3
2
2
0
0
0
0
0
0
0
0
0
0
0
0
0
0
0
0
0
0
0
0
0
0
0
0
3
3
2
2
0
0
0
0
0
0
0
0
0
0
0
0
0
0
0
0
0
0
0
0
0
0
0
0
3
3
2
2
0
0
0
0
0
0
0
0
0
0
0
0
0
0
0
0
0
0
0
0
0
0
0
0
3
3
2
2
0
0
0
0
0
0
0
0
0
0
0
0
0
0
0
0
0
0
0
0
0
0
0
0
3
3
2
2
0
0
0
0
0
0
0
0
0
0
0
0
0
0
0
0
0
0
0
0
0
0
0
0
3
3
2
2
0
0
0
0
0
0
0
0
0
0
0
0
0
0
0
0
0
0
0
0
0
0
0
0
3
3
2
2
0
0
0
0
0
0
0
0
0
0
0
0
0
0
0
0
0
0
0
0
0
0
0
0
3
3
2
2
0
0
0
0
0
0
0
0
0
0
0
0
0
0
0
0
0
0
0
0
0
0
0
0
3
3
2
2
0
0
0
0
0
0
0
0
0
0
0
0
0
0
0
0
0
0
0
0
0
0
0
0
3
3
2
2
0
0
0
0
0
0
0
0
0
0
0
0
0
0
0
0
0
0
0
0
0
0
0
0
3
3
2
2
0
0
0
0
0
0
0
0
0
0
0
0
0
0
0
0
0
0
0
0
0
0
0
0
3
3
2
2
0
0
0
0
0
0
0
0
0
0
0
0
0
0
0
0
0
0
0
0
0
0
0
0
3
3
2
2
0
0
0
0
0
0
0
0
0
0
0
0
0
0
0
0
0
0
0
0
0
0
0
0
3
3
2
2
0
0
0
0
0
0
0
0
0
0
0
0
0
0
0
0
0
0
0
0
0
0
0
0
3
3
2
2
0
0
0
0
0
0
0
0
0
0
0
0
0
0
0
0
0
0
0
0
0
0
0
0
3
3
2
2
0
0
0
0
0
0
0
0
0
0
0
0
0
0
0
0
0
0
0
0
0
0
0
0
3
3
2
2
0
0
0
0
0
0
0
0
0
0
0
0
0
0
0
0
0
0
0
0
0
0
0
0
3
3
2
2
0
0
0
0
0
0
0
0
0
0
0
0
0
0
0
0
0
0
0
0
0
0
0
0
3
3
2
2
0
0
0
0
0
0
0
0
0
0
0
0
0
0
0
0
0
0
0
0
0
0
0
0
3
3
2
2
0
0
0
0
0
0
0
0
0
0
0
0
0
0
0
0
0
0
0
0
0
0
0
0
3
3
2
2
0
0
0
0
0
0
0
0
0
0
0
0
0
0
0
0
0
0
0
0
0
0
0
0
3
3
2
2
0
0
0
0
0
0
0
0
0
0
0
0
0
0
0
0
0
0
0
0
0
0
0
0
3
3
2
2
0
0
0
0
0
0
0
0
0
0
0
0
0
0
0
0
0
0
0
0
0
0
0
0
3
3
2
2
0
0
0
0
0
0
0
0
0
0
0
0
0
0
0
0
0
0
0
0
0
0
0
0
3
3
2
2
0
0
0
0
0
0
0
0
0
0
0
0
0
0
0
0
0
0
0
0
0
0
0
0
3
3
2
2
0
0
0
0
0
0
0
0
0
0
0
0
0
0
0
0
0
0
0
0
0
0
0
0
3
3
2
2
0
0
0
0
0
0
0
0
0
0
0
0
0
0
0
0
0
0
0
0
0
0
0
0
3
3
2
2
0
0
0
0
0
0
0
0
0
0
0
0
0
0
0
0
0
0
0
0
0
0
0
0
3
3
2
2
0
0
0
0
0
0
0
0
0
0
0
0
0
0
0
0
0
0
0
0
0
0
0
0
3
3
2
2
0
0
0
0
0
0
0
0
0
0
0
0
0
0
0
0
0
0
0
0
0
0
0
0
3
3
2
2
0
0
0
0
0
0
0
0
0
0
0
0
0
0
0
0
0
0
0
0
0
0
0
0
3
3
2
2
0
0
0
0
0
0
0
0
0
0
0
0
0
0
0
0
0
0
0
0
0
0
0
0
3
3
2
2
0
0
0
0
0
0
0
0
0
0
0
0
0
0
0
0
0
0
0
0
0
0
0
0
3
3
2
2
0
0
0
0
0
0
0
0
0
0
0
0
0
0
0
0
0
0
0
0
0
0
0
0
3
3
2
2
0
0
0
0
0
0
0
0
0
0
0
0
0
0
0
0
0
0
0
0
0
0
0
0
3
3
2
2
2
2
2
2
2
2
2
2
2
2
2
2
2
2
2
2
2
2
2
2
2
2
2
2
3
3
2
2
2
2
2
2
2
2
2
2
2
2
2
2
2
2
2
2
2
2
2
2
2
2
2
2
3
3
3
3
3
3
3
3
3
3
3
3
3
3
3
3
3
3
3
3
3
3
3
3
3
3
3
3
3
3
3
3
3
3
3
3
3
3
3
3
3
3
3
3
3
3
3
3
3
3
3
3
3
3
3
3
</DataArray>
<DataArray NumberOfComponents='1' type='Float32' Name='Velocity' format='ascii'>
0.000000
0.000000
0.000000
0.000000
0.000000
0.000000
0.000000
0.000000
0.000000
0.000000
0.000000
0.000000
0.000000
0.000000
0.000000
0.000000
0.000000
0.000000
0.000000
0.000000
0.000000
0.000000
0.000000
0.000000
0.000000
0.000000
0.000000
0.000000
0.000000
0.000000
0.000000
0.000000
0.000000
0.000000
0.000000
0.000000
0.000000
0.000000
0.000000
0.000000
0.000000
0.000000
0.000000
0.000000
0.000000
0.000000
0.000000
0.000000
0.000000
0.000000
0.000000
0.000000
0.000000
0.000000
0.000000
0.000000
0.000000
0.000000
0.000000
0.000000
0.000000
0.000000
0.000000
0.000000
0.000000
0.000000
0.000000
0.000000
0.000000
0.000000
0.000000
0.000000
0.000000
0.000000
0.000000
0.000000
0.000000
0.000000
0.000000
0.000000
0.000000
0.000000
0.000000
0.000000
0.000000
0.000000
0.000000
0.000000
0.000000
0.000000
0.000000
0.000000
0.000000
0.000000
0.000000
0.000000
0.000000
0.000000
0.000000
0.000000
0.000000
0.000000
0.000000
0.000000
0.000000
0.000000
0.000000
0.000000
0.000000
0.000000
0.000000
0.000000
0.000000
0.000000
0.000000
0.000000
0.001755
0.003046
0.003097
0.003577
0.005483
0.005278
0.006462
0.005822
0.006818
0.007056
0.007218
0.007323
0.006087
0.007814
0.002642
0.006839
0.002420
0.012784
0.009225
0.017193
0.005227
0.010981
0.011366
0.044441
1.000000
1.000000
1.000000
0.000000
0.000000
0.000000
0.000000
0.003411
0.006237
0.007819
0.008563
0.007915
0.005777
0.003975
0.002906
0.003307
0.003353
0.003331
0.003240
0.003610
0.003977
0.006597
0.004153
0.006974
0.004180
0.003384
0.008162
0.011043
0.018862
0.001343
0.017465
1.000000
1.000000
1.000000
0.000000
0.000000
0.000000
0.000000
0.005485
0.008731
0.010387
0.008966
0.005768
0.001549
0.001423
0.002795
0.002930
0.003250
0.003489
0.001680
0.002216
0.004901
0.004755
0.001363
0.004887
0.007763
0.008632
0.005161
0.000348
0.015365
0.005033
0.015694
1.000000
1.000000
1.000000
0.000000
0.000000
0.000000
0.000000
0.007115
0.010416
0.012340
0.009411
0.005193
0.001333
0.003228
0.003471
0.001866
0.004353
0.006576
0.002944
0.004393
0.007688
0.001736
0.004776
0.008312
0.004819
0.002716
0.003457
0.005264
0.007166
0.011422
0.004757
1.000000
1.000000
1.000000
0.000000
0.000000
0.000000
0.000000
0.007237
0.010908
0.012518
0.009874
0.006066
0.001030
0.002576
0.002786
0.003101
0.004645
0.006042
0.000648
0.003655
0.008739
0.004351
0.002810
0.007700
0.001187
0.003776
0.009647
0.012928
0.007207
0.013420
0.014700
1.000000
1.000000
1.000000
0.000000
0.000000
0.000000
0.000000
0.006931
0.011130
0.013837
0.011806
0.007929
0.002415
0.003946
0.004352
0.000604
0.003450
0.005640
0.003431
0.005678
0.012950
0.005768
0.001787
0.013477
0.011337
0.005683
0.021112
0.014063
0.003937
0.007162
0.009361
1.000000
1.000000
1.000000
0.000000
0.000000
0.000000
0.000000
0.006830
0.011982
0.014989
0.012752
0.009169
0.000937
0.004104
0.008877
0.004398
0.003912
0.007151
0.003060
0.001793
0.012081
0.007920
0.005103
0.013428
0.008029
0.001813
0.025289
0.017150
0.010825
0.006651
0.008567
1.000000
1.000000
1.000000
0.000000
0.000000
0.000000
0.000000
0.007343
0.012223
0.015368
0.013312
0.008448
0.001460
0.005512
0.009413
0.003306
0.001110
0.009367
0.007133
0.006129
0.007553
0.007802
0.014047
0.007074
0.011201
0.025988
0.022337
0.042680
0.018768
0.026735
0.001354
1.000000
1.000000
1.000000
0.000000
0.000000
0.000000
0.000000
0.007531
0.012334
0.015150
0.012624
0.008485
0.001559
0.005422
0.008930
0.003185
0.002470
0.011319
0.005552
0.002538
0.018660
0.012317
0.005515
0.016794
0.017870
0.022510
0.022551
0.051419
0.020326
0.027154
0.021592
1.000000
1.000000
1.000000
0.000000
0.000000
0.000000
0.000000
0.007139
0.011876
0.014847
0.012877
0.008430
0.001428
0.004057
0.007385
0.003291
0.002359
0.006730
0.005152
0.002597
0.009276
0.008741
0.011771
0.006702
0.015477
0.034939
0.015022
0.059469
0.013711
0.028800
0.024415
1.000000
1.000000
1.000000
0.000000
0.000000
0.000000
0.000000
0.006942
0.011827
0.014437
0.012502
0.008969
0.002350
0.004213
0.009404
0.003859
0.002475
0.010348
0.008005
0.005982
0.011275
0.009790
0.010894
0.007141
0.012002
0.032018
0.008915
0.055127
0.006873
0.026544
0.022578
1.000000
1.000000
1.000000
0.000000
0.000000
0.000000
0.000000
0.006948
0.011540
0.014320
0.012407
0.007870
0.002962
0.004081
0.007048
0.003214
0.003519
0.011660
0.006118
0.000429
0.014870
0.012452
0.011623
0.008746
0.022523
0.037263
0.016563
0.058807
0.012429
0.024512
0.020937
1.000000
1.000000
1.000000
0.000000
0.000000
0.000000
0.000000
0.006739
0.011234
0.013373
0.011495
0.007632
0.003331
0.002204
0.003295
0.003325
0.002994
0.007219
0.003370
0.002155
0.009843
0.008861
0.011755
0.009195
0.011314
0.029012
0.020268
0.037714
0.010773
0.016996
0.006443
1.000000
1.000000
1.000000
0.000000
0.000000
0.000000
0.000000
0.006391
0.010628
0.012654
0.011106
0.007295
0.003725
0.001063
0.002704
0.002592
0.004376
0.009606
0.004366
0.003527
0.013359
0.008377
0.004993
0.007850
0.013041
0.018281
0.021482
0.030207
0.007386
0.009262
0.006719
1.000000
1.000000
1.000000
0.000000
0.000000
0.000000
0.000000
0.006046
0.010171
0.011953
0.010859
0.007705
0.004025
0.001206
0.002171
0.005836
0.006829
0.008196
0.002230
0.005898
0.011920
0.007853
0.008176
0.006275
0.016807
0.018013
0.025534
0.023783
0.005301
0.003524
0.002744
1.000000
1.000000
1.000000
0.000000
0.000000
0.000000
0.000000
0.005791
0.009776
0.011474
0.010498
0.007389
0.005193
0.003446
0.003689
0.007014
0.006618
0.005407
0.002351
0.007405
0.013867
0.008733
0.004084
0.009706
0.007597
0.002020
0.022448
0.009980
0.009218
0.012847
0.010988
1.000000
1.000000
1.000000
0.000000
0.000000
0.000000
0.000000
0.005563
0.009334
0.010861
0.010553
0.008269
0.006141
0.005225
0.005195
0.006431
0.006412
0.005122
0.003395
0.008606
0.012162
0.007446
0.001911
0.008625
0.009024
0.004774
0.029662
0.014799
0.003591
0.012805
0.019525
0.000000
0.000000
0.000000
0.000000
0.005292
0.009006
0.010563
0.010553
0.008912
0.007533
0.005884
0.006003
0.006538
0.006401
0.003111
0.005066
0.006614
0.007807
0.006691
0.002744
0.010262
0.008533
0.008527
0.016143
0.006902
0.011192
0.016812
0.027384
0.000000
0.000000
0.000000
0.000000
0.005155
0.008688
0.010396
0.010784
0.009298
0.008180
0.006807
0.006607
0.005654
0.005866
0.001925
0.004199
0.004237
0.003270
0.005365
0.004747
0.007790
0.006533
0.005850
0.013831
0.003245
0.034301
0.048913
0.026116
0.000000
0.000000
0.000000
0.000000
0.005014
0.008531
0.010120
0.010668
0.009607
0.008718
0.006813
0.006689
0.004592
0.005680
0.002657
0.004312
0.002460
0.001841
0.005396
0.005775
0.003341
0.007665
0.011262
0.010809
0.008854
0.004512
0.009405
0.046652
0.000000
0.000000
0.000000
0.000000
0.004924
0.008273
0.010038
0.010634
0.009522
0.008756
0.006586
0.006526
0.004580
0.005852
0.003364
0.004952
0.003155
0.004127
0.002267
0.005340
0.004401
0.007183
0.005013
0.002820
0.008551
0.013944
0.006745
0.003805
0.000000
0.000000
0.000000
0.000000
0.004865
0.008204
0.009805
0.010467
0.009268
0.008533
0.006465
0.006750
0.004817
0.006094
0.004119
0.005612
0.001817
0.004608
0.003410
0.004792
0.001845
0.004739
0.004231
0.003440
0.005215
0.004824
0.012386
0.006723
0.000000
0.000000
0.000000
0.000000
0.004808
0.008070
0.009662
0.010173
0.009025
0.008484
0.006565
0.006833
0.005132
0.006119
0.003422
0.004877
0.000641
0.004329
0.001702
0.004073
0.002958
0.004610
0.002509
0.005398
0.012598
0.006101
0.011160
0.002841
0.000000
0.000000
0.000000
0.000000
0.004769
0.007968
0.009475
0.010097
0.008909
0.008463
0.006672
0.006872
0.004794
0.005587
0.002344
0.004570
0.001411
0.003887
0.002386
0.004407
0.002233
0.004620
0.007535
0.004027
0.002776
0.007828
0.008212
0.001054
0.000000
0.000000
0.000000
0.000000
0.004707
0.007936
0.009403
0.009987
0.008909
0.008418
0.006554
0.006571
0.004289
0.005215
0.002566
0.004418
0.002357
0.004325
0.002262
0.003883
0.003767
0.003805
0.002996
0.005445
0.005572
0.006540
0.007169
0.003674
0.000000
0.000000
0.000000
0.000000
0.004666
0.007878
0.009374
0.009997
0.008838
0.008324
0.006285
0.006366
0.004147
0.005237
0.003225
0.004758
0.002575
0.003611
0.002170
0.003554
0.002418
0.006150
0.003119
0.004285
0.005074
0.006039
0.003723
0.001321
0.000000
0.000000
0.000000
0.000000
0.004646
0.007900
0.009366
0.009964
0.008742
0.008177
0.006154
0.006344
0.004520
0.005472
0.003370
0.004115
0.000716
0.003312
0.001864
0.005095
0.002357
0.003000
0.003785
0.003225
0.002998
0.002935
0.006090
0.003804
0.000000
0.000000
0.000000
0.000000
0.004630
0.007888
0.009342
0.009915
0.008644
0.008175
0.006284
0.006538
0.004589
0.005084
0.001923
0.003703
0.001788
0.004317
0.002663
0.002811
0.003161
0.003460
0.003532
0.002494
0.005674
0.003052
0.002961
0.001405
0.000000
0.000000
0.000000
0.000000
0.004617
0.007877
0.009304
0.009903
0.008682
0.008257
0.006365
0.006337
0.003933
0.004761
0.002649
0.004518
0.002672
0.003059
0.001895
0.002946
0.002353
0.002784
0.003181
0.001131
0.001581
0.000995
0.005924
0.002319
0.000000
0.000000
0.000000
0.000000
0.004584
0.007865
0.009308
0.009933
0.008728
0.008216
0.006103
0.006184
0.004126
0.005256
0.003254
0.003852
0.000556
0.002931
0.001846
0.003313
0.001702
0.002713
0.002494
0.003018
0.004434
0.002600
0.003872
0.000590
0.000000
0.000000
0.000000
0.000000
0.004565
0.007865
0.009327
0.009933
0.008651
0.008127
0.006128
0.006369
0.004471
0.004977
0.002115
0.003651
0.001700
0.003580
0.001413
0.002613
0.001413
0.003052
0.001769
0.000818
0.001989
0.002535
0.004571
0.000645
0.000000
0.000000
0.000000
0.000000
0.004556
0.007866
0.009311
0.009897
0.008633
0.008188
0.006275
0.006328
0.004033
0.004787
0.002533
0.004084
0.001745
0.002768
0.000763
0.002713
0.001379
0.001895
0.002093
0.002412
0.003307
0.002295
0.003741
0.000625
0.000000
0.000000
0.000000
0.000000
0.004539
0.007847
0.009296
0.009902
0.008684
0.008190
0.006161
0.006184
0.004100
0.004983
0.002795
0.003693
0.000906
0.002995
0.001402
0.002584
0.001467
0.002420
0.001721
0.001118
0.002754
0.001499
0.003228
0.000141
0.000000
0.000000
0.000000
0.000000
0.004516
0.007840
0.009308
0.009907
0.008664
0.008131
0.006137
0.006261
0.004257
0.004877
0.002345
0.003691
0.001490
0.002960
0.000727
0.002270
0.000909
0.001905
0.001697
0.001384
0.002393
0.001029
0.003725
0.000448
0.000000
0.000000
0.000000
0.000000
0.004504
0.007835
0.009306
0.009884
0.008646
0.008135
0.006209
0.006231
0.004120
0.004771
0.002542
0.003747
0.001318
0.002766
0.000822
0.002519
0.001200
0.002089
0.001698
0.001544
0.002568
0.000442
0.002883
0.000302
0.000000
0.000000
0.000000
0.000000
0.004492
0.007824
0.009298
0.009874
0.008667
0.008132
0.006181
0.006173
0.004135
0.004826
0.002571
0.003628
0.001164
0.002830
0.000817
0.002198
0.000766
0.001835
0.001282
0.000941
0.002048
0.000520
0.003465
0.000125
0.000000
0.000000
0.000000
0.000000
0.004476
0.007814
0.009300
0.009869
0.008668
0.008101
0.006176
0.006170
0.004187
0.004753
0.002485
0.003592
0.001328
0.002725
0.000632
0.002255
0.000953
0.001867
0.001549
0.001404
0.002333
0.000660
0.002933
0.000325
0.000000
0.000000
0.000000
0.000000
0.004464
0.007806
0.009301
0.009855
0.008665
0.008089
0.006199
0.006148
0.004157
0.004718
0.002538
0.003588
0.001247
0.002694
0.000670
0.002182
0.000736
0.001685
0.001177
0.000947
0.002034
0.000370
0.003100
0.000189
0.000000
0.000000
0.000000
0.000000
0.004454
0.007797
0.009299
0.009843
0.008674
0.008077
0.006200
0.006115
0.004172
0.004696
0.002550
0.003515
0.001256
0.002645
0.000603
0.002088
0.000708
0.001691
0.001297
0.001123
0.002073
0.000475
0.002955
0.000332
0.000000
0.000000
0.000000
0.000000
0.004443
0.007788
0.009300
0.009834
0.008679
0.008058
0.006206
0.006098
0.004188
0.004661
0.002544
0.003498
0.001286
0.002614
0.000575
0.002082
0.000673
0.001605
0.001150
0.000949
0.001945
0.000116
0.002860
0.000407
0.000000
0.000000
0.000000
0.000000
0.004434
0.007780
0.009301
0.009822
0.008683
0.008043
0.006218
0.006075
0.004192
0.004628
0.002568
0.003457
0.001282
0.002559
0.000551
0.001996
0.000571
0.001544
0.001101
0.000918
0.001892
0.000196
0.002867
0.000415
0.000000
0.000000
0.000000
0.000000
0.004425
0.007772
0.009302
0.009811
0.008690
0.008028
0.006226
0.006052
0.004205
0.004602
0.002579
0.003425
0.001301
0.002536
0.000545
0.001974
0.000571
0.001516
0.001071
0.000882
0.001840
0.000143
0.002748
0.000521
0.000000
0.000000
0.000000
0.000000
0.004417
0.007764
0.009303
0.009801
0.008696
0.008013
0.006236
0.006032
0.004217
0.004574
0.002593
0.003393
0.001317
0.002491
0.000523
0.001917
0.000485
0.001444
0.000988
0.000810
0.001780
0.000096
0.002743
0.000534
0.000000
0.000000
0.000000
0.000000
0.004411
0.007757
0.009304
0.009791
0.008703
0.007999
0.006246
0.006012
0.004229
0.004548
0.002609
0.003364
0.001332
0.002463
0.000530
0.001885
0.000470
0.001418
0.000966
0.000791
0.001738
0.000172
0.002670
0.000602
0.000000
0.000000
0.000000
0.000000
0.004404
0.007750
0.009306
0.009781
0.008709
0.007986
0.006256
0.005993
0.004241
0.004523
0.002624
0.003336
0.001350
0.002430
0.000523
0.001842
0.000412
0.001365
0.000904
0.000734
0.001688
0.000159
0.002637
0.000637
0.000000
0.000000
0.000000
0.000000
0.004398
0.007743
0.009307
0.009772
0.008716
0.007973
0.006266
0.005975
0.004253
0.004500
0.002639
0.003310
0.001369
0.002401
0.000533
0.001809
0.000388
0.001333
0.000872
0.000707
0.001648
0.000210
0.002592
0.000680
0.000000
0.000000
0.000000
0.000000
0.004393
0.007737
0.009308
0.009763
0.008723
0.007961
0.006275
0.005958
0.004265
0.004478
0.002654
0.003285
0.001385
0.002373
0.000535
0.001774
0.000343
0.001292
0.000825
0.000664
0.001605
0.000232
0.002551
0.000720
0.000000
0.000000
0.000000
0.000000
0.004390
0.007730
0.009310
0.009755
0.008729
0.007950
0.006285
0.005942
0.004277
0.004457
0.002669
0.003262
0.001405
0.002346
0.000552
0.001743
0.000327
0.001262
0.000794
0.000640
0.001572
0.000269
0.002519
0.000752
0.000000
0.000000
0.000000
0.000000
0.004383
0.007725
0.009311
0.009746
0.008736
0.007938
0.006295
0.005927
0.004288
0.004438
0.002682
0.003240
0.001418
0.002323
0.000552
0.001715
0.000280
0.001227
0.000751
0.000598
0.001528
0.000298
0.002473
0.000794
0.000000
0.000000
0.000000
0.000000
0.004383
0.007718
0.009313
0.009740
0.008740
0.007930
0.006303
0.005913
0.004299
0.004419
0.002698
0.003218
0.001441
0.002298
0.000580
0.001684
0.000283
0.001198
0.000728
0.000584
0.001507
0.000329
0.002461
0.000812
0.000000
0.000000
0.000000
0.000000
0.004373
0.007715
0.009315
0.009730
0.008748
0.007918
0.006312
0.005900
0.004309
0.004402
0.002708
0.003201
0.001448
0.002280
0.000571
0.001665
0.000231
0.001174
0.000691
0.000541
0.001460
0.000367
0.002393
0.000870
0.000000
0.000000
0.000000
0.000000
0.004378
0.007708
0.009313
0.009726
0.008751
0.007911
0.006321
0.005887
0.004321
0.004387
0.002726
0.003178
0.001478
0.002253
0.000612
0.001630
0.000241
0.001133
0.000656
0.000519
0.001445
0.000372
0.002421
0.000856
0.000000
0.000000
0.000000
0.000000
0.004368
0.007703
0.009320
0.009717
0.008758
0.007903
0.006328
0.005877
0.004329
0.004372
0.002732
0.003169
0.001474
0.002246
0.000595
0.001619
0.000208
0.001131
0.000655
0.000517
0.001410
0.000441
0.002313