<?xml version='1.0' encoding='UTF-8'?>
<VTKFile xmlns='VTK' byte_order='LittleEndian' version='0.1' type='UnstructuredGrid'>
<UnstructuredGrid>
<Piece NumberOfCells='2512' NumberOfPoints='2512'>
<Points>
<DataArray NumberOfComponents='3' type='Float32' Name='Position' format='ascii'>
-0.075000 -0.075000 0.000000
-0.075000 -0.050000 0.000000
-0.075000 -0.025000 0.000000
-0.075000 0.000000 0.000000
-0.075000 0.025000 0.000000
-0.075000 0.050000 0.000000
-0.075000 0.075000 0.000000
-0.075000 0.100000 0.000000
-0.075000 0.125000 0.000000
-0.075000 0.150000 0.000000
-0.075000 0.175000 0.000000
-0.075000 0.200000 0.000000
-0.075000 0.225000 0.000000
-0.075000 0.250000 0.000000
-0.075000 0.275000 0.000000
-0.075000 0.300000 0.000000
-0.075000 0.325000 0.000000
-0.075000 0.350000 0.000000
-0.075000 0.375000 0.000000
-0.075000 0.400000 0.000000
-0.075000 0.425000 0.000000
-0.075000 0.450000 0.000000
-0.075000 0.475000 0.000000
-0.075000 0.500000 0.000000
-0.075000 0.525000 0.000000
-0.075000 0.550000 0.000000
-0.075000 0.575000 0.000000
-0.075000 0.600000 0.000000
-0.050000 -0.075000 0.000000
-0.050000 -0.050000 0.000000
-0.050000 -0.025000 0.000000
-0.050000 0.000000 0.000000
-0.050000 0.025000 0.000000
-0.050000 0.050000 0.000000
-0.050000 0.075000 0.000000
-0.050000 0.100000 0.000000
-0.050000 0.125000 0.000000
-0.050000 0.150000 0.000000
-0.050000 0.175000 0.000000
-0.050000 0.200000 0.000000
-0.050000 0.225000 0.000000
-0.050000 0.250000 0.000000
-0.050000 0.275000 0.000000
-0.050000 0.300000 0.000000
-0.050000 0.325000 0.000000
-0.050000 0.350000 0.000000
-0.050000 0.375000 0.000000
-0.050000 0.400000 0.000000
-0.050000 0.425000 0.000000
-0.050000 0.450000 0.000000
-0.050000 0.475000 0.000000
-0.050000 0.500000 0.000000
-0.050000 0.525000 0.000000
-0.050000 0.550000 0.000000
-0.050000 0.575000 0.000000
-0.050000 0.600000 0.000000
-0.025000 -0.075000 0.000000
-0.025000 -0.050000 0.000000
-0.025000 -0.025000 0.000000
-0.025000 0.000000 0.000000
-0.025000 0.025000 0.000000
-0.025000 0.050000 0.000000
-0.025000 0.075000 0.000000
-0.025000 0.100000 0.000000
-0.025000 0.125000 0.000000
-0.025000 0.150000 0.000000
-0.025000 0.175000 0.000000
-0.025000 0.200000 0.000000
-0.025000 0.225000 0.000000
-0.025000 0.250000 0.000000
-0.025000 0.275000 0.000000
-0.025000 0.300000 0.000000
-0.025000 0.325000 0.000000
-0.025000 0.350000 0.000000
-0.025000 0.375000 0.000000
-0.025000 0.400000 0.000000
-0.025000 0.425000 0.000000
-0.025000 0.450000 0.000000
-0.025000 0.475000 0.000000
-0.025000 0.500000 0.000000
-0.025000 0.525000 0.000000
-0.025000 0.550000 0.000000
-0.025000 0.575000 0.000000
-0.025000 0.600000 0.000000
0.000000 -0.075000 0.000000
0.000000 -0.050000 0.000000
0.000000 -0.025000 0.000000
0.000000 0.000000 0.000000
0.000000 0.025000 0.000000
0.000000 0.050000 0.000000
0.000000 0.075000 0.000000
0.000000 0.100000 0.000000
0.000000 0.125000 0.000000
0.000000 0.150000 0.000000
0.000000 0.175000 0.000000
0.000000 0.200000 0.000000
0.000000 0.225000 0.000000
0.000000 0.250000 0.000000
0.000000 0.275000 0.000000
0.000000 0.300000 0.000000
0.000000 0.325000 0.000000
0.000000 0.350000 0.000000
0.000000 0.375000 0.000000
0.000000 0.400000 0.000000
0.000000 0.425000 0.000000
0.000000 0.450000 0.000000
0.000000 0.475000 0.000000
0.000000 0.500000 0.000000
0.000000 0.525000 0.000000
0.000000 0.550000 0.000000
0.000000 0.575000 0.000000
0.000000 0.600000 0.000000
0.025000 -0.075000 0.000000
0.025000 -0.050000 0.000000
0.025000 -0.025000 0.000000
0.025000 0.000000 0.000000
0.024073 0.027202 0.000000
0.025711 0.050548 0.000000
0.024426 0.076282 0.000000
0.026832 0.100447 0.000000
0.024233 0.124824 0.000000
0.024303 0.155541 0.000000
0.024653 0.185992 0.000000
0.024558 0.210890 0.000000
0.025374 0.234474 0.000000
0.026411 0.259301 0.000000
0.025295 0.282279 0.000000
0.023730 0.309602 0.000000
0.025050 0.333444 0.000000
0.024858 0.361628 0.000000
0.025223 0.384828 0.000000
0.023383 0.412399 0.000000
0.023599 0.441753 0.000000
0.025678 0.466910 0.000000
0.024225 0.491310 0.000000
0.022200 0.528265 0.000000
0.038887 0.580720 0.000000
0.034476 0.600000 0.000000
0.055290 0.600000 0.000000
0.014103 0.600000 0.000000
0.695000 0.625000 0.000000
0.695000 0.650000 0.000000
0.695000 0.675000 0.000000
0.050000 -0.075000 0.000000
0.050000 -0.050000 0.000000
0.050000 -0.025000 0.000000
0.050000 0.000000 0.000000
0.048830 0.022891 0.000000
0.056176 0.049308 0.000000
0.047010 0.068679 0.000000
0.047412 0.110192 0.000000
0.042247 0.141680 0.000000
0.042594 0.171337 0.000000
0.049498 0.198264 0.000000
0.053457 0.224572 0.000000
0.051403 0.248889 0.000000
0.049674 0.273639 0.000000
0.050622 0.299294 0.000000
0.048765 0.324028 0.000000
0.047663 0.350419 0.000000
0.049948 0.374460 0.000000
0.047400 0.405373 0.000000
0.044582 0.428747 0.000000
0.049830 0.461334 0.000000
0.058466 0.482505 0.000000
0.041872 0.502177 0.000000
0.044626 0.527225 0.000000
0.022532 0.557560 0.000000
0.067210 0.566890 0.000000
0.091270 0.563904 0.000000
0.070985 0.600000 0.000000
0.720000 0.625000 0.000000
0.720000 0.650000 0.000000
0.720000 0.675000 0.000000
0.075000 -0.075000 0.000000
0.075000 -0.050000 0.000000
0.075000 -0.025000 0.000000
0.075000 0.000000 0.000000
0.093214 0.022722 0.000000
0.071029 0.030728 0.000000
0.071361 0.076228 0.000000
0.066067 0.098190 0.000000
0.067880 0.126835 0.000000
0.065289 0.157141 0.000000
0.074840 0.177150 0.000000
0.072338 0.202844 0.000000
0.074481 0.231597 0.000000
0.077003 0.258929 0.000000
0.074478 0.286747 0.000000
0.071750 0.314569 0.000000
0.074615 0.342588 0.000000
0.075066 0.364793 0.000000
0.068413 0.391458 0.000000
0.073631 0.416272 0.000000
0.064699 0.442081 0.000000
0.078222 0.469461 0.000000
0.080922 0.497017 0.000000
0.065531 0.520393 0.000000
0.072538 0.543281 0.000000
0.045583 0.554310 0.000000
0.088176 0.592930 0.000000
0.105438 0.600000 0.000000
0.745000 0.625000 0.000000
0.745000 0.650000 0.000000
0.745000 0.675000 0.000000
0.100000 -0.075000 0.000000
0.100000 -0.050000 0.000000
0.100000 -0.025000 0.000000
0.100000 0.000000 0.000000
0.119919 0.028312 0.000000
0.088344 0.062739 0.000000
0.093852 0.095539 0.000000
0.088999 0.120355 0.000000
0.086708 0.144920 0.000000
0.104069 0.159265 0.000000
0.095592 0.186611 0.000000
0.095392 0.214204 0.000000
0.102687 0.236940 0.000000
0.095382 0.266970 0.000000
0.096118 0.296042 0.000000
0.094825 0.320691 0.000000
0.099341 0.349035 0.000000
0.101511 0.370271 0.000000
0.093110 0.396922 0.000000
0.098856 0.419142 0.000000
0.090590 0.443972 0.000000
0.100213 0.467153 0.000000
0.113975 0.495280 0.000000
0.093355 0.512539 0.000000
0.098456 0.535878 0.000000
0.114451 0.557786 0.000000
0.125016 0.579457 0.000000
0.121751 0.600000 0.000000
0.770000 0.625000 0.000000
0.770000 0.650000 0.000000
0.770000 0.675000 0.000000
0.125000 -0.075000 0.000000
0.125000 -0.050000 0.000000
0.125000 -0.025000 0.000000
0.125000 0.000000 0.000000
0.142845 0.023293 0.000000
0.101446 0.047323 0.000000
0.111299 0.082046 0.000000
0.122437 0.102412 0.000000
0.116852 0.124278 0.000000
0.126560 0.148856 0.000000
0.120356 0.177920 0.000000
0.120563 0.201543 0.000000
0.125753 0.227908 0.000000
0.119488 0.253666 0.000000
0.117958 0.285930 0.000000
0.128308 0.305950 0.000000
0.119483 0.326790 0.000000
0.124135 0.359130 0.000000
0.134508 0.382475 0.000000
0.118357 0.398180 0.000000
0.130701 0.422397 0.000000
0.116086 0.439642 0.000000
0.123215 0.470891 0.000000
0.123221 0.538219 0.000000
0.148217 0.543584 0.000000
0.151413 0.569468 0.000000
0.175283 0.578120 0.000000
0.145186 0.600000 0.000000
0.795000 0.625000 0.000000
0.795000 0.650000 0.000000
0.795000 0.675000 0.000000
0.150000 -0.075000 0.000000
0.150000 -0.050000 0.000000
0.150000 -0.025000 0.000000
0.150000 0.000000 0.000000
0.167343 0.026166 0.000000
0.126595 0.051567 0.000000
0.138263 0.078452 0.000000
0.148441 0.099643 0.000000
0.140497 0.130936 0.000000
0.152499 0.153662 0.000000
0.145786 0.176019 0.000000
0.142191 0.207322 0.000000
0.151483 0.237222 0.000000
0.137798 0.263002 0.000000
0.145377 0.290473 0.000000
0.158303 0.312490 0.000000
0.138793 0.341878 0.000000
0.156522 0.360212 0.000000
0.148495 0.404715 0.000000
0.160412 0.428102 0.000000
0.140935 0.448273 0.000000
0.143961 0.473455 0.000000
0.126012 0.509459 0.000000
0.155600 0.498716 0.000000
0.149738 0.518113 0.000000
0.169081 0.549715 0.000000
0.183450 0.600000 0.000000
0.159828 0.600000 0.000000
0.820000 0.625000 0.000000
0.820000 0.650000 0.000000
0.820000 0.675000 0.000000
0.175000 -0.075000 0.000000
0.175000 -0.050000 0.000000
0.175000 -0.025000 0.000000
0.175000 0.000000 0.000000
0.192852 0.025484 0.000000
0.147987 0.055540 0.000000
0.163890 0.076438 0.000000
0.178738 0.105482 0.000000
0.163364 0.121690 0.000000
0.177631 0.152495 0.000000
0.171087 0.177386 0.000000
0.163734 0.202948 0.000000
0.172571 0.223860 0.000000
0.163083 0.257199 0.000000
0.168394 0.283247 0.000000
0.181721 0.308072 0.000000
0.163145 0.335414 0.000000
0.186068 0.369123 0.000000
0.160055 0.383938 0.000000
0.177463 0.410502 0.000000
0.168341 0.448857 0.000000
0.191940 0.456951 0.000000
0.171191 0.472425 0.000000
0.178601 0.497362 0.000000
0.178328 0.522798 0.000000
0.191405 0.544693 0.000000
0.202293 0.568777 0.000000
0.198879 0.600000 0.000000
0.845000 0.625000 0.000000
0.845000 0.650000 0.000000
0.845000 0.675000 0.000000
0.200000 -0.075000 0.000000
0.200000 -0.050000 0.000000
0.200000 -0.025000 0.000000
0.200000 0.000000 0.000000
0.216979 0.022843 0.000000
0.174082 0.047317 0.000000
0.185334 0.080075 0.000000
0.207137 0.096527 0.000000
0.189141 0.127030 0.000000
0.199068 0.152805 0.000000
0.189028 0.190904 0.000000
0.199541 0.213846 0.000000
0.183065 0.247681 0.000000
0.202006 0.263141 0.000000
0.192343 0.284153 0.000000
0.201898 0.308870 0.000000
0.184034 0.343963 0.000000
0.206273 0.351821 0.000000
0.189493 0.389524 0.000000
0.206615 0.408252 0.000000
0.194678 0.430352 0.000000
0.215334 0.451500 0.000000
0.199899 0.483052 0.000000
0.213551 0.499702 0.000000
0.203757 0.519912 0.000000
0.216702 0.540454 0.000000
[...]
<PointData>
<DataArray NumberOfComponents='1' type='Int32' Name='ParticleType' format='ascii'>
3
3
3
3
3
3
3
3
3
3
3
3
3
3
3
3
3
3
3
3
3
3
3
3
3
3
3
3
3
3
3
3
3
3
3
3
3
3
3
3
3
3
3
3
3
3
3
3
3
3
3
3
3
3
3
3
3
3
2
2
2
2
2
2
2
2
2
2
2
2
2
2
2
2
2
2
2
2
2
2
2
2
2
2
3
3
2
2
2
2
2
2
2
2
2
2
2
2
2
2
2
2
2
2
2
2
2
2
2
2
2
2
3
3
2
2
0
0
0
0
0
0
0
0
0
0
0
0
0
0
0
0
0
0
0
0
0
0
0
0
1
1
1
3
3
2
2
0
0
0
0
0
0
0
0
0
0
0
0
0
0
0
0
0
0
0
0
0
0
0
0
1
1
1
3
3
2
2
0
0
0
0
0
0
0
0
0
0
0
0
0
0
0
0
0
0
0
0
0
0
0
0
1
1
1
3
3
2
2
0
0
0
0
0
0
0
0
0
0
0
0
0
0
0
0
0
0
0
0
0
0
0
0
1
1
1
3
3
2
2
0
0
0
0
0
0
0
0
0
0
0
0
0
0
0
0
0
0
0
0
0
0
0
0
1
1
1
3
3
2
2
0
0
0
0
0
0
0
0
0
0
0
0
0
0
0
0
0
0
0
0
0
0
0
0
1
1
1
3
3
2
2
0
0
0
0
0
0
0
0
0
0
0
0
0
0
0
0
0
0
0
0
0
0
0
0
1
1
1
3
3
2
2
0
0
0
0
0
0
0
0
0
0
0
0
0
0
0
0
0
0
0
0
0
0
0
0
1
1
1
3
3
2
2
0
0
0
0
0
0
0
0
0
0
0
0
0
0
0
0
0
0
0
0
0
0
0
0
1
1
1
3
3
2
2
0
0
0
0
0
0
0
0
0
0
0
0
0
0
0
0
0
0
0
0
0
0
0
0
1
1
1
3
3
2
2
0
0
0
0
0
0
0
0
0
0
0
0
0
0
0
0
0
0
0
0
0
0
0
0
1
1
1
3
3
2
2
0
0
0
0
0
0
0
0
0
0
0
0
0
0
0
0
0
0
0
0
0
0
0
0
1
1
1
3
3
2
2
0
0
0
0
0
0
0
0
0
0
0
0
0
0
0
0
0
0
0
0
0
0
0
0
1
1
1
3
3
2
2
0
0
0
0
0
0
0
0
0
0
0
0
0
0
0
0
0
0
0
0
0
0
0
0
1
1
1
3
3
2
2
0
0
0
0
0
0
0
0
0
0
0
0
0
0
0
0
0
0
0
0
0
0
0
0
1
1
1
3
3
2
2
0
0
0
0
0
0
0
0
0
0
0
0
0
0
0
0
0
0
0
0
0
0
0
0
1
1
1
3
3
2
2
0
0
0
0
0
0
0
0
0
0
0
0
0
0
0
0
0
0
0
0
0
0
0
0
3
3
2
2
0
0
0
0
0
0
0
0
0
0
0
0
0
0
0
0
0
0
0
0
0
0
0
0
3
3
2
2
0
0
0
0
0
0
0
0
0
0
0
0
0
0
0
0
0
0
0
0
0
0
0
0
3
3
2
2
0
0
0
0
0
0
0
0
0
0
0
0
0
0
0
0
0
0
0
0
0
0
0
0
3
3
2
2
0
0
0
0
0
0
0
0
0
0
0
0
0
0
0
0
0
0
0
0
0
0
0
0
3
3
2
2
0
0
0
0
0
0
0
0
0
0
0
0
0
0
0
0
0
0
0
0
0
0
0
0
3
3
2
2
0
0
0
0
0
0
0
0
0
0
0
0
0
0
0
0
0
0
0
0
0
0
0
0
3
3
2
2
0
0
0
0
0
0
0
0
0
0
0
0
0
0
0
0
0
0
0
0
0
0
0
0
3
3
2
2
0
0
0
0
0
0
0
0
0
0
0
0
0
0
0
0
0
0
0
0
0
0
0
0
3
3
2
2
0
0
0
0
0
0
0
0
0
0
0
0
0
0
0
0
0
0
0
0
0
0
0
0
3
3
2
2
0
0
0
0
0
0
0
0
0
0
0
0
0
0
0
0
0
0
0
0
0
0
0
0
3
3
2
2
0
0
0
0
0
0
0
0
0
0
0
0
0
0
0
0
0
0
0
0
0
0
0
0
3
3
2
2
0
0
0
0
0
0
0
0
0
0
0
0
0
0
0
0
0
0
0
0
0
0
0
0
3
3
2
2
0
0
0
0
0
0
0
0
0
0
0
0
0
0
0
0
0
0
0
0
0
0
0
0
3
3
2
2
0
0
0
0
0
0
0
0
0
0
0
0
0
0
0
0
0
0
0
0
0
0
0
0
3
3
2
2
0
0
0
0
0
0
0
0
0
0
0
0
0
0
0
0
0
0
0
0
0
0
0
0
3
3
2
2
0
0
0
0
0
0
0
0
0
0
0
0
0
0
0
0
0
0
0
0
0
0
0
0
3
3
2
2
0
0
0
0
0
0
0
0
0
0
0
0
0
0
0
0
0
0
0
0
0
0
0
0
3
3
2
2
0
0
0
0
0
0
0
0
0
0
0
0
0
0
0
0
0
0
0
0
0
0
0
0
3
3
2
2
0
0
0
0
0
0
0
0
0
0
0
0
0
0
0
0
0
0
0
0
0
0
0
0
3
3
2
2
0
0
0
0
0
0
0
0
0
0
0
0
0
0
0
0
0
0
0
0
0
0
0
0
3
3
2
2
0
0
0
0
0
0
0
0
0
0
0
0
0
0
0
0
0
0
0
0
0
0
0
0
3
3
2
2
0
0
0
0
0
0
0
0
0
0
0
0
0
0
0
0
0
0
0
0
0
0
0
0
3
3
2
2
0
0
0
0
0
0
0
0
0
0
0
0
0
0
0
0
0
0
0
0
0
0
0
0
3
3
2
2
0
0
0
0
0
0
0
0
0
0
0
0
0
0
0
0
0
0
0
0
0
0
0
0
3
3
2
2
0
0
0
0
0
0
0
0
0
0
0
0
0
0
0
0
0
0
0
0
0
0
0
0
3
3
2
2
0
0
0
0
0
0
0
0
0
0
0
0
0
0
0
0
0
0
0
0
0
0
0
0
3
3
2
2
0
0
0
0
0
0
0
0
0
0
0
0
0
0
0
0
0
0
0
0
0
0
0
0
3
3
2
2
0
0
0
0
0
0
0
0
0
0
0
0
0
0
0
0
0
0
0
0
0
0
0
0
3
3
2
2
0
0
0
0
0
0
0
0
0
0
0
0
0
0
0
0
0
0
0
0
0
0
0
0
3
3
2
2
0
0
0
0
0
0
0
0
0
0
0
0
0
0
0
0
0
0
0
0
0
0
0
0
3
3
2
2
0
0
0
0
0
0
0
0
0
0
0
0
0
0
0
0
0
0
0
0
0
0
0
0
3
3
2
2
0
0
0
0
0
0
0
0
0
0
0
0
0
0
0
0
0
0
0
0
0
0
0
0
3
3
2
2
0
0
0
0
0
0
0
0
0
0
0
0
0
0
0
0
0
0
0
0
0
0
0
0
3
3
2
2
0
0
0
0
0
0
0
0
0
0
0
0
0
0
0
0
0
0
0
0
0
0
0
0
3
3
2
2
0
0
0
0
0
0
0
0
0
0
0
0
0
0
0
0
0
0
0
0
0
0
0
0
3
3
2
2
0
0
0
0
0
0
0
0
0
0
0
0
0
0
0
0
0
0
0
0
0
0
0
0
3
3
2
2
0
0
0
0
0
0
0
0
0
0
0
0
0
0
0
0
0
0
0
0
0
0
0
0
3
3
2
2
0
0
0
0
0
0
0
0
0
0
0
0
0
0
0
0
0
0
0
0
0
0
0
0
3
3
2
2
0
0
0
0
0
0
0
0
0
0
0
0
0
0
0
0
0
0
0
0
0
0
0
0
3
3
2
2
0
0
0
0
0
0
0
0
0
0
0
0
0
0
0
0
0
0
0
0
0
0
0
0
3
3
2
2
0
0
0
0
0
0
0
0
0
0
0
0
0
0
0
0
0
0
0
0
0
0
0
0
3
3
2
2
0
0
0
0
0
0
0
0
0
0
0
0
0
0
0
0
0
0
0
0
0
0
0
0
3
3
2
2
0
0
0
0
0
0
0
0
0
0
0
0
0
0
0
0
0
0
0
0
0
0
0
0
3
3
2
2
0
0
0
0
0
0
0
0
0
0
0
0
0
0
0
0
0
0
0
0
0
0
0
0
3
3
2
2
0
0
0
0
0
0
0
0
0
0
0
0
0
0
0
0
0
0
0
0
0
0
0
0
3
3
2
2
0
0
0
0
0
0
0
0
0
0
0
0
0
0
0
0
0
0
0
0
0
0
0
0
3
3
2
2
0
0
0
0
0
0
0
0
0
0
0
0
0
0
0
0
0
0
0
0
0
0
0
0
3
3
2
2
0
0
0
0
0
0
0
0
0
0
0
0
0
0
0
0
0
0
0
0
0
0
0
0
3
3
2
2
0
0
0
0
0
0
0
0
0
0
0
0
0
0
0
0
0
0
0
0
0
0
0
0
3
3
2
2
0
0
0
0
0
0
0
0
0
0
0
0
0
0
0
0
0
0
0
0
0
0
0
0
3
3
2
2
0
0
0
0
0
0
0
0
0
0
0
0
0
0
0
0
0
0
0
0
0
0
0
0
3
3
2
2
0
0
0
0
0
0
0
0
0
0
0
0
0
0
0
0
0
0
0
0
0
0
0
0
3
3
2
2
0
0
0
0
0
0
0
0
0
0
0
0
0
0
0
0
0
0
0
0
0
0
0
0
3
3
2
2
0
0
0
0
0
0
0
0
0
0
0
0
0
0
0
0
0
0
0
0
0
0
0
0
3
3
2
2
0
0
0
0
0
0
0
0
0
0
0
0
0
0
0
0
0
0
0
0
0
0
0
0
3
3
2
2
0
0
0
0
0
0
0
0
0
0
0
0
0
0
0
0
0
0
0
0
0
0
0
0
3
3
2
2
0
0
0
0
0
0
0
0
0
0
0
0
0
0
0
0
0
0
0
0
0
0
0
0
3
3
2
2
0
0
0
0
0
0
0
0
0
0
0
0
0
0
0
0
0
0
0
0
0
0
0
0
3
3
2
2
0
0
0
0
0
0
0
0
0
0
0
0
0
0
0
0
0
0
0
0
0
0
0
0
3
3
2
2
0
0
0
0
0
0
0
0
0
0
0
0
0
0
0
0
0
0
0
0
0
0
0
0
3
3
2
2
0
0
0
0
0
0
0
0
0
0
0
0
0
0
0
0
0
0
0
0
0
0
0
0
3
3
2
2
0
0
0
0
0
0
0
0
0
0
0
0
0
0
0
0
0
0
0
0
0
0
0
0
3
3
2
2
0
0
0
0
0
0
0
0
0
0
0
0
0
0
0
0
0
0
0
0
0
0
0
0
3
3
2
2
2
2
2
2
2
2
2
2
2
2
2
2
2
2
2
2
2
2
2
2
2
2
2
2
3
3
2
2
2
2
2
2
2
2
2
2
2
2
2
2
2
2
2
2
2
2
2
2
2
2
2
2
3
3
3
3
3
3
3
3
3
3
3
3
3
3
3
3
3
3
3
3
3
3
3
3
3
3
3
3
3
3
3
3
3
3
3
3
3
3
3
3
3
3
3
3
3
3
3
3
3
3
3
3
3
3
3
3
</DataArray>
<DataArray NumberOfComponents='1' type='Float32' Name='Velocity' format='ascii'>
0.000000
0.000000
0.000000
0.000000
0.000000
0.000000
0.000000
0.000000
0.000000
0.000000
0.000000
0.000000
0.000000
0.000000
0.000000
0.000000
0.000000
0.000000
0.000000
0.000000
0.000000
0.000000
0.000000
0.000000
0.000000
0.000000
0.000000
0.000000
0.000000
0.000000
0.000000
0.000000
0.000000
0.000000
0.000000
0.000000
0.000000
0.000000
0.000000
0.000000
0.000000
0.000000
0.000000
0.000000
0.000000
0.000000
0.000000
0.000000
0.000000
0.000000
0.000000
0.000000
0.000000
0.000000
0.000000
0.000000
0.000000
0.000000
0.000000
0.000000
0.000000
0.000000
0.000000
0.000000
0.000000
0.000000
0.000000
0.000000
0.000000
0.000000
0.000000
0.000000
0.000000
0.000000
0.000000
0.000000
0.000000
0.000000
0.000000
0.000000
0.000000
0.000000
0.000000
0.000000
0.000000
0.000000
0.000000
0.000000
0.000000
0.000000
0.000000
0.000000
0.000000
0.000000
0.000000
0.000000
0.000000
0.000000
0.000000
0.000000
0.000000
0.000000
0.000000
0.000000
0.000000
0.000000
0.000000
0.000000
0.000000
0.000000
0.000000
0.000000
0.000000
0.000000
0.000000
0.000000
0.079106
0.129394
0.047666
0.014276
0.149178
0.092387
0.162589
0.165580
0.118690
0.156490
0.109837
0.141545
0.042014
0.181050
0.131329
0.128286
0.234786
0.162746
0.076451
0.260066
0.462643
19.133883
13.409541
13.503384
1.000000
1.000000
1.000000
0.000000
0.000000
0.000000
0.000000
0.071380
0.107366
0.064798
0.184668
0.134411
0.085270
0.036825
0.062512
0.215681
0.051445
0.085261
0.213937
0.099511
0.112837
0.039396
0.133336
0.189415
0.079918
0.153395
0.068566
0.341038
0.317317
0.534216
10.847713
1.000000
1.000000
1.000000
0.000000
0.000000
0.000000
0.000000
0.035178
0.059759
0.134668
0.045621
0.249719
0.029961
0.121360
0.064388
0.126081
0.096780
0.109684
0.154509
0.103232
0.087186
0.160234
0.167308
0.073626
0.160413
0.119939
0.429000
0.460537
0.289531
0.556602
8.159357
1.000000
1.000000
1.000000
0.000000
0.000000
0.000000
0.000000
0.163452
0.111273
0.249211
0.129701
0.074219
0.059014
0.033318
0.188047
0.046815
0.171961
0.145472
0.084870
0.167148
0.150475
0.165063
0.163440
0.152931
0.238456
0.040692
0.091531
0.172767
0.220593
0.097086
8.390405
1.000000
1.000000
1.000000
0.000000
0.000000
0.000000
0.000000
0.063698
0.071728
0.163457
0.089505
0.093264
0.110618
0.027211
0.098081
0.096008
0.078560
0.221090
0.257634
0.100290
0.068212
0.107909
0.160779
0.056972
0.092939
0.171483
0.184264
0.247198
0.208933
0.178048
4.806756
1.000000
1.000000
1.000000
0.000000
0.000000
0.000000
0.000000
0.031164
0.313325
0.283217
0.131003
0.171480
0.043544
0.046216
0.201227
0.083278
0.104789
0.113012
0.100587
0.148438
0.083297
0.097004
0.107013
0.208316
0.072108
0.140542
0.109813
0.105321
0.039804
7.367344
9.326266
1.000000
1.000000
1.000000
0.000000
0.000000
0.000000
0.000000
0.027463
0.062790
0.137643
0.158294
0.125526
0.093720
0.036660
0.042948
0.173802
0.055192
0.049175
0.108388
0.095079
0.030256
0.077664
0.146817
0.248279
0.112571
0.188970
0.146368
0.189972
0.214052
0.339719
2.918141
1.000000
1.000000
1.000000
0.000000
0.000000
0.000000
0.000000
0.063029
0.174654
0.177207
0.219639
0.105838
0.067122
0.051682
0.218311
0.074708
0.089860
0.144556
0.136790
0.090273
0.074166
0.080159
0.186462
0.209471
0.130314
0.121886
0.070887
0.240353
0.132947
0.265750
4.001773
1.000000
1.000000
1.000000
0.000000
0.000000
0.000000
0.000000
0.089375
0.056407
0.252369
0.127353
0.072757
0.088548
0.138738
0.116908
0.286580
0.088478
0.078235
0.103766
0.069875
0.074520
0.050820
0.219317
0.137452
0.109781
0.197062
0.082281
0.165490
0.158806
0.231252
5.178344
1.000000
1.000000
1.000000
0.000000
0.000000
0.000000
0.000000
0.030218
0.090741
0.158138
0.170594
0.073906
0.106333
0.095709
0.138784
0.098797
0.059989
0.157358
0.046034
0.045983
0.099322
0.118087
0.161813
0.177360
0.062833
0.246013
0.169345
0.230403
0.056530
0.439412
5.427473
1.000000
1.000000
1.000000
0.000000
0.000000
0.000000
0.000000
0.102837
0.104082
0.110539
0.107492
0.143765
0.151179
0.062045
0.086115
0.087090
0.074156
0.056621
0.120683
0.078821
0.018272
0.098978
0.139689
0.128509
0.133189
0.086658
0.137631
0.134155
0.265212
0.198924
1.781099
1.000000
1.000000
1.000000
0.000000
0.000000
0.000000
0.000000
0.057938
0.113561
0.095013
0.120223
0.110640
0.089585
0.037586
0.092346
0.053982
0.062863
0.079901
0.017719
0.099081
0.123197
0.155337
0.066279
0.046252
0.161679
0.176345
0.113906
0.105304
0.107734
1.927532
3.156077
1.000000
1.000000
1.000000
0.000000
0.000000
0.000000
0.000000
0.089466
0.117454
0.134683
0.134876
0.085763
0.126735
0.112376
0.094032
0.110714
0.074776
0.114462
0.078225
0.055701
0.108785
0.123392
0.113006
0.101075
0.099437
0.078324
0.105503
0.175119
0.228117
0.127961
2.413671
1.000000
1.000000
1.000000
0.000000
0.000000
0.000000
0.000000
0.112561
0.102366
0.034771
0.180245
0.008174
0.150686
0.061155
0.097637
0.072789
0.048252
0.089405
0.077144
0.026460
0.120187
0.133749
0.087338
0.038943
0.072888
0.042520
0.037292
0.048966
0.070649
0.456664
3.921151
1.000000
1.000000
1.000000
0.000000
0.000000
0.000000
0.000000
0.010059
0.129426
0.042136
0.035325
0.137526
0.082116
0.091590
0.079619
0.056446
0.062164
0.032408
0.100903
0.046398
0.087132
0.007808
0.094876
0.049316
0.152904
0.057882
0.103470
0.145412
0.114984
3.521089
3.373405
1.000000
1.000000
1.000000
0.000000
0.000000
0.000000
0.000000
0.089145
0.178070
0.113455
0.118796
0.079805
0.130202
0.059368
0.095072
0.049925
0.097925
0.020931
0.161841
0.080145
0.141800
0.023455
0.102460
0.049796
0.203618
0.166555
0.143901
0.131984
0.186076
0.153838
2.645433
1.000000
1.000000
1.000000
0.000000
0.000000
0.000000
0.000000
0.061067
0.138521
0.058040
0.097883
0.046127
0.145101
0.054122
0.170721
0.095416
0.154883
0.069265
0.202424
0.216731
0.221555
0.104381
0.141004
0.181341
0.025604
0.375280
0.174928
0.245182
0.122400
0.210603
2.819185
0.000000
0.000000
0.000000
0.000000
0.066929
0.115216
0.131447
0.105723
0.149921
0.165065
0.066313
0.072694
0.068213
0.070391
0.067911
0.105864
0.037181
0.139256
0.134503
0.090889
0.126757
0.142254
0.248255
0.149159
0.069244
0.152075
0.145765
5.792049
0.000000
0.000000
0.000000
0.000000
0.102259
0.112473
0.056729
0.135223
0.013461
0.115816
0.160024
0.112436
0.126040
0.088605
0.137098
0.163403
0.181830
0.062051
0.130162
0.172026
0.128306
0.212526
0.086671
0.424703
0.359209
0.734948
0.125062
3.998971
0.000000
0.000000
0.000000
0.000000
0.066479
0.023174
0.147432
0.038543
0.050938
0.055298
0.052417
0.049947
0.035210
0.064895
0.037117
0.172425
0.188975
0.081543
0.090063
0.197824
0.064494
0.199301
0.180890
0.499831
0.290427
0.146836
2.683326
14.051583
0.000000
0.000000
0.000000
0.000000
0.067332
0.057401
0.052827
0.115861
0.112798
0.084685
0.189029
0.168876
0.024976
0.041646
0.123064
0.154903
0.110668
0.058091
0.088232
0.253728
0.089379
0.095438
0.036021
0.095957
0.228348
0.321751
2.273270
9.012610
0.000000
0.000000
0.000000
0.000000
0.073924
0.040939
0.079874
0.115093
0.135224
0.050002
0.087608
0.029926
0.101642
0.070128
0.016571
0.071482
0.059022
0.116885
0.045480
0.005798
0.041912
0.071376
0.070314
0.288693
0.527540
0.437141
0.237764
14.949471
0.000000
0.000000
0.000000
0.000000
0.051203
0.083803
0.051384
0.069184
0.055236
0.134523
0.108139
0.208049
0.013593
0.073340
0.029435
0.046392
0.066031
0.030111
0.071576
0.120456
0.186569
0.053766
0.211228
0.343040
0.205086
0.297654
10.905572
6.449182
0.000000
0.000000
0.000000
0.000000
0.014352
0.078318
0.037636
0.082058
0.096930
0.083749
0.055390
0.117736
0.052363
0.141959
0.047158
0.138930
0.086272
0.215691
0.105426
0.127704
0.102703
0.213108
0.090380
0.035492
0.312118
0.212364
0.398333
4.234899
0.000000
0.000000
0.000000
0.000000
0.025764
0.110266
0.031800
0.030934
0.035039
0.097837
0.030172
0.100894
0.057144
0.075253
0.073379
0.061678
0.038929
0.092594
0.140642
0.055145
0.104872
0.109178
0.107063
0.108355
0.147640
0.076982
0.386121
7.304126
0.000000
0.000000
0.000000
0.000000
0.014688
0.098416
0.084094
0.029682
0.016793
0.096366
0.032145
0.160038
0.071360
0.117086
0.082536
0.152308
0.035258
0.119334
0.104233
0.050124
0.091144
0.161007
0.059454
0.077720
0.049730
0.124479
0.230453
5.891888
0.000000
0.000000
0.000000
0.000000
0.039665
0.031794
0.032558
0.018708
0.015351
0.170008
0.024892
0.128443
0.075092
0.077923
0.037599
0.065169
0.064511
0.104916
0.105197
0.058295
0.043380
0.059306
0.088446
0.098322
0.086228
0.054703
0.231106
4.373837
0.000000
0.000000
0.000000
0.000000
0.076443
0.053129
0.136583
0.031722
0.025409
0.073708
0.025302
0.184267
0.050693
0.080955
0.046125
0.130106
0.045392
0.121852
0.049448
0.035903
0.071212
0.089948
0.134765
0.091405
0.023875
0.047799
0.021829
2.964406
0.000000
0.000000
0.000000
0.000000
0.059771
0.018333
0.097014
0.024285
0.026638
0.131807
0.041838
0.070606
0.046410
0.029843
0.050658
0.122376
0.078626
0.088539
0.014381
0.034548
0.017556
0.125334
0.034013
0.022866
0.190188
0.144586
0.029780
3.168301
0.000000
0.000000
0.000000
0.000000
0.048003
0.122349
0.076392
0.055826
0.029988
0.075115
0.046535
0.174567
0.061042
0.160192
0.015078
0.104720
0.033811
0.062857
0.086554
0.121001
0.087796
0.203023
0.120202
0.058162
0.093005
0.123521
0.212233
3.115098
0.000000
0.000000
0.000000
0.000000
0.060973
0.012765
0.018414
0.041458
0.048779
0.092131
0.090324
0.049412
0.085590
0.055169
0.041263
0.114734
0.012397
0.159582
0.043530
0.111738
0.014838
0.109203
0.106188
0.106576
0.172954
0.113546
0.147847
3.138800
0.000000
0.000000
0.000000
0.000000
0.034769
0.084259
0.061808
0.059246
0.059527
0.053817
0.088118
0.042551
0.065994
0.077966
0.052536
0.070461
0.028325
0.075692
0.097289
0.102426
0.030238
0.117189
0.093930
0.094201
0.083158
0.043390
0.063671
3.177372
0.000000
0.000000
0.000000
0.000000
0.029206
0.067834
0.033563
0.031331
0.030129
0.050754
0.015413
0.035179
0.021823
0.039155
0.047811
0.119341
0.014858
0.132937
0.023499
0.027822
0.113768
0.094947
0.038146
0.036161
0.045919
0.057119
0.261290
2.523371
0.000000
0.000000
0.000000
0.000000
0.072857
0.090558
0.062579
0.037708
0.053429
0.006146
0.083115
0.040111
0.030588
0.069538
0.021418
0.063122
0.033540
0.098670
0.043585
0.130313
0.113889
0.050127
0.048579
0.084179
0.119414
0.052032
0.088888
1.727884
0.000000
0.000000
0.000000
0.000000
0.027401
0.082347
0.052911
0.054459
0.037980
0.070098
0.026906
0.032119
0.039323
0.025442
0.057553
0.072441
0.008130
0.077890
0.047373
0.099818
0.099091
0.110521
0.102455
0.122676
0.120481
0.194419
0.119497
1.311787
0.000000
0.000000
0.000000
0.000000
0.062776
0.069221
0.065178
0.027883
0.043452
0.012529
0.042237
0.056017
0.039362
0.079547
0.046809
0.053150
0.062910
0.040952
0.048627
0.067389
0.063211
0.056553
0.016729
0.111121
0.033923
0.115774
0.009406
1.763667
0.000000
0.000000
0.000000
0.000000
0.046542
0.047306
0.037643
0.037960
0.039220
0.061136
0.025235
0.016241
0.025099
0.045237
0.038452
0.107381
0.047319
0.118089
0.065819
0.067919
0.072921
0.045921
0.075120
0.050379
0.052241
0.159028
0.024277
2.440833
0.000000
0.000000
0.000000
0.000000
0.051710
0.041840
0.046705
0.033391
0.085098
0.011854
0.024049
0.046475
0.042821
0.048509
0.012278
0.045622
0.038800
0.092893
0.033730
0.145309
0.004725
0.133443
0.050804
0.197174
0.089658
0.177801
0.093986
4.167826
0.000000
0.000000
0.000000
0.000000
0.066628
0.038506
0.064741
0.024877
0.068913
0.032300
0.042555
0.029078
0.007049
0.053137
0.016968
0.081800
0.054287
0.084109
0.015053
0.134728
0.050443
0.090476
0.102393
0.098182
0.098078
0.197978
0.217763
6.056428
0.000000
0.000000
0.000000
0.000000
0.038055
0.036789
0.034862
0.033021
0.081257
0.011825
0.016191
0.030064
0.035768
0.046649
0.009469
0.042312
0.029794
0.068529
0.006876
0.046086
0.083016
0.061502
0.122364
0.103834
0.042026
0.147123
0.309792
5.590580
0.000000
0.000000
0.000000
0.000000
0.068316
0.044278
0.053178
0.015681
0.091145
0.012699
0.041952
0.036862
0.024366
0.046349
0.034846
0.085772
0.069945
0.082742
0.061055
0.133463
0.097482
0.090915
0.125479
0.133904
0.200962
0.072271
0.445717
4.813150
0.000000
0.000000
0.000000
0.000000
0.033012
0.004633
0.045632
0.041645
0.085345
0.045090
0.030101
0.035279
0.042112
0.022919
0.010961
0.024760
0.031186
0.061082
0.027002
0.084981
0.080408
0.088462
0.153010
0.195753
0.237946
0.153252
0.256346
8.137566
0.000000
0.000000
0.000000
0.000000
0.056366
0.058545
0.048535
0.046976
0.038365
0.055760
0.044506
0.019785
0.041866
0.064824
0.055805
0.106713
0.048189
0.097751
0.069002
0.136137
0.066718
0.068113
0.076247
0.042838
0.098577
0.218080
0.212283
15.319539
0.000000
0.000000
0.000000
0.000000
0.034862
0.023215
0.051674
0.016527
0.020105
0.101019
0.020666
0.019605
0.067791
0.016170
0.068428
0.037637
0.062548
0.052850
0.060918
0.153796
0.093563
0.136869
0.054405
0.170164
0.043153
0.090511
0.209755
12.314017
0.000000
0.000000
0.000000
0.000000
0.042402
0.041901
0.056001
0.061515
0.087948
0.110305
0.055763
0.030119
0.064740
0.069805
0.107260
0.086188
0.072916
0.067814
0.031285
0.104695
0.053690
0.081668
0.110844
0.239812
0.125709
0.056559
0.440567
11.047235
0.000000
0.000000
0.000000
0.000000
0.044201
0.040479
0.066350
0.088625
0.084147
0.055279
0.052524
0.011910
0.111075
0.055577
0.106260
0.030021
0.093686
0.055764
0.056739
0.054859
0.061242
0.049943
0.082824
0.120476
0.100326
0.196594
0.333273
10.867532
0.000000
0.000000
0.000000
0.000000
0.054012
0.042362
0.055383
0.044283
0.122484
0.060024
0.042944
0.024539
0.078329
0.020836
0.098046
0.044508
0.052674
0.068776
0.052941
0.113928
0.089306
0.060508
0.119245
0.084008
0.092395
0.183544
0.639053
9.932140
0.000000
0.000000
0.000000
0.000000
0.044026
0.042477
0.033716
0.024943
0.132033
0.087496
0.080092
0.011507
0.083259
0.021625
0.132656
0.054228
0.124367
0.130738
0.102708
0.158038
0.086119
0.087856
0.054207
0.180322
0.105400
0.122192
0.325339
11.472858
0.000000
0.000000
0.000000
0.000000
0.060729
0.057997
0.044071
0.040664
0.125721
0.005304
0.076514
0.031523
0.044138
0.090404
0.026763
0.112985
0.018187
0.286516
0.096551
0.171917
0.227330
0.113158
0.078470
0.184412
0.138428
0.097876
1.123469
9.684741
0.000000
0.000000
0.000000
0.000000
0.046995
0.036046
0.001980
0.067218
0.165506
0.052716
0.097286
0.015101
0.098278
0.056346
0.143782
0.019514
0.063605
0.033488
0.137827
0.081139
0.062653
0.195481
0.162239
0.223309
0.328176
0.662774
0.291701
11.094693
0.000000
0.000000
0.000000
0.000000
0.061305
0.048805
0.026458
0.048287
0.117102
0.034950
0.088177
0.072130
0.035782
0.056630
0.050487
0.117267
0.111255
0.117738
0.104356
0.078600
0.109588
0.224155
0.055575
0.066329
0.095367
0.389998
3.456132
9.100593
0.000000
0.000000
0.000000
0.000000
0.061124
0.028332
0.016337
0.026894
0.119764
0.100134
0.110758
0.102776
0.183640
0.062052
0.121737
0.114944
0.051729
0.076108
0.159474
0.101580
0.116225
0.154066
0.139627
0.027047
0.150463
0.692163
0.645792
16.840513
0.000000
0.000000
0.000000
0.000000
0.058074
0.037605
0.025932
0.046837
0.110312
0.128708
0.055189
0.086342
0.100605
0.069594
0.168908
0.122374
0.095446
0.087477
0.024108
0.091717
0.118885
0.090108
0.112721
0.266606
0.131699