<?xml version='1.0' encoding='UTF-8'?>
<VTKFile xmlns='VTK' byte_order='LittleEndian' version='0.1' type='UnstructuredGrid'>
<UnstructuredGrid>
<Piece NumberOfCells='2512' NumberOfPoints='2512'>
<Points>
<DataArray NumberOfComponents='3' type='Float32' Name='Position' format='ascii'>
-0.075000 -0.075000 0.000000
-0.075000 -0.050000 0.000000
-0.075000 -0.025000 0.000000
-0.075000 0.000000 0.000000
-0.075000 0.025000 0.000000
-0.075000 0.050000 0.000000
-0.075000 0.075000 0.000000
-0.075000 0.100000 0.000000
-0.075000 0.125000 0.000000
-0.075000 0.150000 0.000000
-0.075000 0.175000 0.000000
-0.075000 0.200000 0.000000
-0.075000 0.225000 0.000000
-0.075000 0.250000 0.000000
-0.075000 0.275000 0.000000
-0.075000 0.300000 0.000000
-0.075000 0.325000 0.000000
-0.075000 0.350000 0.000000
-0.075000 0.375000 0.000000
-0.075000 0.400000 0.000000
-0.075000 0.425000 0.000000
-0.075000 0.450000 0.000000
-0.075000 0.475000 0.000000
-0.075000 0.500000 0.000000
-0.075000 0.525000 0.000000
-0.075000 0.550000 0.000000
-0.075000 0.575000 0.000000
-0.075000 0.600000 0.000000
-0.050000 -0.075000 0.000000
-0.050000 -0.050000 0.000000
-0.050000 -0.025000 0.000000
-0.050000 0.000000 0.000000
-0.050000 0.025000 0.000000
-0.050000 0.050000 0.000000
-0.050000 0.075000 0.000000
-0.050000 0.100000 0.000000
-0.050000 0.125000 0.000000
-0.050000 0.150000 0.000000
-0.050000 0.175000 0.000000
-0.050000 0.200000 0.000000
-0.050000 0.225000 0.000000
-0.050000 0.250000 0.000000
-0.050000 0.275000 0.000000
-0.050000 0.300000 0.000000
-0.050000 0.325000 0.000000
-0.050000 0.350000 0.000000
-0.050000 0.375000 0.000000
-0.050000 0.400000 0.000000
-0.050000 0.425000 0.000000
-0.050000 0.450000 0.000000
-0.050000 0.475000 0.000000
-0.050000 0.500000 0.000000
-0.050000 0.525000 0.000000
-0.050000 0.550000 0.000000
-0.050000 0.575000 0.000000
-0.050000 0.600000 0.000000
-0.025000 -0.075000 0.000000
-0.025000 -0.050000 0.000000
-0.025000 -0.025000 0.000000
-0.025000 0.000000 0.000000
-0.025000 0.025000 0.000000
-0.025000 0.050000 0.000000
-0.025000 0.075000 0.000000
-0.025000 0.100000 0.000000
-0.025000 0.125000 0.000000
-0.025000 0.150000 0.000000
-0.025000 0.175000 0.000000
-0.025000 0.200000 0.000000
-0.025000 0.225000 0.000000
-0.025000 0.250000 0.000000
-0.025000 0.275000 0.000000
-0.025000 0.300000 0.000000
-0.025000 0.325000 0.000000
-0.025000 0.350000 0.000000
-0.025000 0.375000 0.000000
-0.025000 0.400000 0.000000
-0.025000 0.425000 0.000000
-0.025000 0.450000 0.000000
-0.025000 0.475000 0.000000
-0.025000 0.500000 0.000000
-0.025000 0.525000 0.000000
-0.025000 0.550000 0.000000
-0.025000 0.575000 0.000000
-0.025000 0.600000 0.000000
0.000000 -0.075000 0.000000
0.000000 -0.050000 0.000000
0.000000 -0.025000 0.000000
0.000000 0.000000 0.000000
0.000000 0.025000 0.000000
0.000000 0.050000 0.000000
0.000000 0.075000 0.000000
0.000000 0.100000 0.000000
0.000000 0.125000 0.000000
0.000000 0.150000 0.000000
0.000000 0.175000 0.000000
0.000000 0.200000 0.000000
0.000000 0.225000 0.000000
0.000000 0.250000 0.000000
0.000000 0.275000 0.000000
0.000000 0.300000 0.000000
0.000000 0.325000 0.000000
0.000000 0.350000 0.000000
0.000000 0.375000 0.000000
0.000000 0.400000 0.000000
0.000000 0.425000 0.000000
0.000000 0.450000 0.000000
0.000000 0.475000 0.000000
0.000000 0.500000 0.000000
0.000000 0.525000 0.000000
0.000000 0.550000 0.000000
0.000000 0.575000 0.000000
0.000000 0.600000 0.000000
0.025000 -0.075000 0.000000
0.025000 -0.050000 0.000000
0.025000 -0.025000 0.000000
0.025000 0.000000 0.000000
-2018.750371 0.600000 0.000000
53.456177 -91.557169 0.000000
-18.010468 -30.554396 0.000000
12.899528 -29.868688 0.000000
0.188335 0.039077 0.000000
-46724863.383768 0.600000 0.000000
7.879165 -56.350421 0.000000
22.979211 -41.542190 0.000000
-34.174017 -6.122772 0.000000
8.515928 -241.297614 0.000000
417.459134 -1442.202167 0.000000
27.575965 -182.938813 0.000000
38153.466524 0.600000 0.000000
-14032.231626 0.600000 0.000000
-63.091526 0.600000 0.000000
-210.305911 -403.660973 0.000000
-60.554211 -59.384889 0.000000
525.890549 -733.224683 0.000000
53.696827 -61.836274 0.000000
-840.158626 0.600000 0.000000
216.289846 -461.603206 0.000000
-543.788291 0.600000 0.000000
-1281.712907 0.600000 0.000000
42023084.187804 0.600000 0.000000
1.505000 0.625000 0.000000
1.505000 0.650000 0.000000
1.505000 0.675000 0.000000
0.050000 -0.075000 0.000000
0.050000 -0.050000 0.000000
0.050000 -0.025000 0.000000
0.050000 0.000000 0.000000
-68.771378 0.600000 0.000000
-61.599995 -18.922647 0.000000
895.593603 0.600000 0.000000
45.555449 0.600000 0.000000
2624.397583 0.600000 0.000000
-16.817451 -12.253751 0.000000
-15.731073 -31.152467 0.000000
-20.924763 0.590097 0.000000
-11305.013799 -21054.394554 0.000000
10980.853027 0.600000 0.000000
4.895295 -63.280561 0.000000
54.332297 -51.776130 0.000000
-141.645213 -54.997782 0.000000
1267.779096 0.600000 0.000000
11467.106480 0.600000 0.000000
-551.569531 0.600000 0.000000
-66.999684 -33.215989 0.000000
-203.203855 0.600000 0.000000
1053.393868 0.600000 0.000000
-147.626086 -194.778522 0.000000
718.098217 0.600000 0.000000
13933.277795 -2905.691763 0.000000
138.284493 -567.897765 0.000000
1504.253947 0.600000 0.000000
1.530000 0.625000 0.000000
1.530000 0.650000 0.000000
1.530000 0.675000 0.000000
0.075000 -0.075000 0.000000
0.075000 -0.050000 0.000000
0.075000 -0.025000 0.000000
0.075000 0.000000 0.000000
-46.251537 -46.444388 0.000000
17079.579349 0.600000 0.000000
15.220983 0.600000 0.000000
-2199.454150 0.600000 0.000000
-36.615844 -25.771716 0.000000
128.254054 0.600000 0.000000
24.129441 -114.531995 0.000000
2639.992795 0.600000 0.000000
514.885532 0.600000 0.000000
26.579888 -313.322344 0.000000
86.108159 -84.815842 0.000000
-942.889773 0.600000 0.000000
-440.015769 0.600000 0.000000
656.205752 -434.108479 0.000000
474.444353 0.600000 0.000000
17.122572 -1.247517 0.000000
2630.179699 -1045.906085 0.000000
0.195703 0.155700 0.000000
179.870665 -141.654507 0.000000
42.958205 -61.173559 0.000000
3460.429566 0.600000 0.000000
-63.056285 -173.315488 0.000000
-4847.379591 0.600000 0.000000
-1079.436636 0.600000 0.000000
1.555000 0.625000 0.000000
1.555000 0.650000 0.000000
1.555000 0.675000 0.000000
0.100000 -0.075000 0.000000
0.100000 -0.050000 0.000000
0.100000 -0.025000 0.000000
0.100000 0.000000 0.000000
-1406.990248 0.600000 0.000000
78497134.088639 0.600000 0.000000
-576.036516 -547.428389 0.000000
65255.490105 0.600000 0.000000
-5249.500987 0.600000 0.000000
-2.044119 0.600000 0.000000
-111531.227812 0.600000 0.000000
88.178904 -1.412168 0.000000
13.700829 -19.980007 0.000000
56.497912 -25.205769 0.000000
-20.964611 -36.777284 0.000000
-1633.765789 0.600000 0.000000
-100.034715 0.600000 0.000000
179.768495 -43.616331 0.000000
-111.899296 0.600000 0.000000
-104.844373 -88.599489 0.000000
0.021324 0.027803 0.000000
-19.921537 0.600000 0.000000
52.499577 -34.120352 0.000000
-160.183688 0.600000 0.000000
0.970866 0.284540 0.000000
74.201177 -109.784181 0.000000
1669.908962 0.600000 0.000000
-21004.353855 0.600000 0.000000
1.580000 0.625000 0.000000
1.580000 0.650000 0.000000
1.580000 0.675000 0.000000
0.125000 -0.075000 0.000000
0.125000 -0.050000 0.000000
0.125000 -0.025000 0.000000
0.125000 0.000000 0.000000
-471.554692 0.600000 0.000000
1481.737634 0.600000 0.000000
-1371.545886 0.600000 0.000000
-424.606121 0.600000 0.000000
5.673128 -34.096088 0.000000
103.427548 -72.784627 0.000000
-608.382046 0.600000 0.000000
-10.533122 -69.347838 0.000000
40326.376246 0.600000 0.000000
-258.618852 -852.199290 0.000000
-341.596146 0.600000 0.000000
-4729.717189 0.600000 0.000000
-15.564678 -1.597005 0.000000
-229.881259 0.600000 0.000000
-322.589997 0.600000 0.000000
-444.793004 0.600000 0.000000
4762.336819 0.600000 0.000000
1022.731533 0.600000 0.000000
-21.998266 -82.296585 0.000000
-177.236033 -109.911209 0.000000
-99.711296 -0.896393 0.000000
1993.023397 0.600000 0.000000
507221.266847 0.600000 0.000000
-159739.270248 0.600000 0.000000
1.605000 0.625000 0.000000
1.605000 0.650000 0.000000
1.605000 0.675000 0.000000
0.150000 -0.075000 0.000000
0.150000 -0.050000 0.000000
0.150000 -0.025000 0.000000
0.150000 0.000000 0.000000
-33.768887 0.600000 0.000000
-1103.650439 0.600000 0.000000
-1.003835 -34.989233 0.000000
-126.343891 -77.768275 0.000000
-3727.237105 0.600000 0.000000
1.469318 0.034550 0.000000
227.171121 0.600000 0.000000
6.426734 -18.896936 0.000000
-139.305156 0.600000 0.000000
-3222.546612 0.600000 0.000000
-399.389014 -179.702505 0.000000
19.448628 -45.393139 0.000000
-66.687958 -60.504098 0.000000
-21607.995096 0.600000 0.000000
-6480.272210 0.600000 0.000000
-125.854042 -50.910304 0.000000
-160.878534 0.600000 0.000000
8.265132 -3520.606326 0.000000
6720.590496 0.600000 0.000000
4639.109787 0.600000 0.000000
-6482.138902 0.600000 0.000000
108.558108 -261.232648 0.000000
2667.358604 0.600000 0.000000
1074.891113 0.600000 0.000000
1.630000 0.625000 0.000000
1.630000 0.650000 0.000000
1.630000 0.675000 0.000000
0.175000 -0.075000 0.000000
0.175000 -0.050000 0.000000
0.175000 -0.025000 0.000000
0.175000 0.000000 0.000000
-292.014932 0.600000 0.000000
-3253.749175 0.600000 0.000000
7.305450 -29.664801 0.000000
53093.554859 0.600000 0.000000
599.233877 0.600000 0.000000
-135.025160 -103.210002 0.000000
15.539820 -130.314696 0.000000
200.040624 0.600000 0.000000
-1287.520593 0.600000 0.000000
-760.920879 -388.417426 0.000000
15297.395023 0.600000 0.000000
-2347.853639 0.600000 0.000000
2630.624443 0.600000 0.000000
4218.519345 0.600000 0.000000
1554.191392 -747.752627 0.000000
-397.920306 0.600000 0.000000
-3710.140148 -8282.663728 0.000000
3424.090205 0.600000 0.000000
18745496.457739 0.600000 0.000000
620.744835 0.600000 0.000000
6570.235104 0.600000 0.000000
-519.701417 -239.597540 0.000000
-75.689355 -465.615777 0.000000
1855.253261 0.600000 0.000000
1.655000 0.625000 0.000000
1.655000 0.650000 0.000000
1.655000 0.675000 0.000000
0.200000 -0.075000 0.000000
0.200000 -0.050000 0.000000
0.200000 -0.025000 0.000000
[...]
<PointData>
<DataArray NumberOfComponents='1' type='Int32' Name='ParticleType' format='ascii'>
3
3
3
3
3
3
3
3
3
3
3
3
3
3
3
3
3
3
3
3
3
3
3
3
3
3
3
3
3
3
3
3
3
3
3
3
3
3
3
3
3
3
3
3
3
3
3
3
3
3
3
3
3
3
3
3
3
3
2
2
2
2
2
2
2
2
2
2
2
2
2
2
2
2
2
2
2
2
2
2
2
2
2
2
3
3
2
2
2
2
2
2
2
2
2
2
2
2
2
2
2
2
2
2
2
2
2
2
2
2
2
2
3
3
2
2
0
0
0
0
0
0
0
0
0
0
0
0
0
0
0
0
0
0
0
0
0
0
0
0
1
1
1
3
3
2
2
0
0
0
0
0
0
0
0
0
0
0
0
0
0
0
0
0
0
0
0
0
0
0
0
1
1
1
3
3
2
2
0
0
0
0
0
0
0
0
0
0
0
0
0
0
0
0
0
0
0
0
0
0
0
0
1
1
1
3
3
2
2
0
0
0
0
0
0
0
0
0
0
0
0
0
0
0
0
0
0
0
0
0
0
0
0
1
1
1
3
3
2
2
0
0
0
0
0
0
0
0
0
0
0
0
0
0
0
0
0
0
0
0
0
0
0
0
1
1
1
3
3
2
2
0
0
0
0
0
0
0
0
0
0
0
0
0
0
0
0
0
0
0
0
0
0
0
0
1
1
1
3
3
2
2
0
0
0
0
0
0
0
0
0
0
0
0
0
0
0
0
0
0
0
0
0
0
0
0
1
1
1
3
3
2
2
0
0
0
0
0
0
0
0
0
0
0
0
0
0
0
0
0
0
0
0
0
0
0
0
1
1
1
3
3
2
2
0
0
0
0
0
0
0
0
0
0
0
0
0
0
0
0
0
0
0
0
0
0
0
0
1
1
1
3
3
2
2
0
0
0
0
0
0
0
0
0
0
0
0
0
0
0
0
0
0
0
0
0
0
0
0
1
1
1
3
3
2
2
0
0
0
0
0
0
0
0
0
0
0
0
0
0
0
0
0
0
0
0
0
0
0
0
1
1
1
3
3
2
2
0
0
0
0
0
0
0
0
0
0
0
0
0
0
0
0
0
0
0
0
0
0
0
0
1
1
1
3
3
2
2
0
0
0
0
0
0
0
0
0
0
0
0
0
0
0
0
0
0
0
0
0
0
0
0
1
1
1
3
3
2
2
0
0
0
0
0
0
0
0
0
0
0
0
0
0
0
0
0
0
0
0
0
0
0
0
1
1
1
3
3
2
2
0
0
0
0
0
0
0
0
0
0
0
0
0
0
0
0
0
0
0
0
0
0
0
0
1
1
1
3
3
2
2
0
0
0
0
0
0
0
0
0
0
0
0
0
0
0
0
0
0
0
0
0
0
0
0
1
1
1
3
3
2
2
0
0
0
0
0
0
0
0
0
0
0
0
0
0
0
0
0
0
0
0
0
0
0
0
3
3
2
2
0
0
0
0
0
0
0
0
0
0
0
0
0
0
0
0
0
0
0
0
0
0
0
0
3
3
2
2
0
0
0
0
0
0
0
0
0
0
0
0
0
0
0
0
0
0
0
0
0
0
0
0
3
3
2
2
0
0
0
0
0
0
0
0
0
0
0
0
0
0
0
0
0
0
0
0
0
0
0
0
3
3
2
2
0
0
0
0
0
0
0
0
0
0
0
0
0
0
0
0
0
0
0
0
0
0
0
0
3
3
2
2
0
0
0
0
0
0
0
0
0
0
0
0
0
0
0
0
0
0
0
0
0
0
0
0
3
3
2
2
0
0
0
0
0
0
0
0
0
0
0
0
0
0
0
0
0
0
0
0
0
0
0
0
3
3
2
2
0
0
0
0
0
0
0
0
0
0
0
0
0
0
0
0
0
0
0
0
0
0
0
0
3
3
2
2
0
0
0
0
0
0
0
0
0
0
0
0
0
0
0
0
0
0
0
0
0
0
0
0
3
3
2
2
0
0
0
0
0
0
0
0
0
0
0
0
0
0
0
0
0
0
0
0
0
0
0
0
3
3
2
2
0
0
0
0
0
0
0
0
0
0
0
0
0
0
0
0
0
0
0
0
0
0
0
0
3
3
2
2
0
0
0
0
0
0
0
0
0
0
0
0
0
0
0
0
0
0
0
0
0
0
0
0
3
3
2
2
0
0
0
0
0
0
0
0
0
0
0
0
0
0
0
0
0
0
0
0
0
0
0
0
3
3
2
2
0
0
0
0
0
0
0
0
0
0
0
0
0
0
0
0
0
0
0
0
0
0
0
0
3
3
2
2
0
0
0
0
0
0
0
0
0
0
0
0
0
0
0
0
0
0
0
0
0
0
0
0
3
3
2
2
0
0
0
0
0
0
0
0
0
0
0
0
0
0
0
0
0
0
0
0
0
0
0
0
3
3
2
2
0
0
0
0
0
0
0
0
0
0
0
0
0
0
0
0
0
0
0
0
0
0
0
0
3
3
2
2
0
0
0
0
0
0
0
0
0
0
0
0
0
0
0
0
0
0
0
0
0
0
0
0
3
3
2
2
0
0
0
0
0
0
0
0
0
0
0
0
0
0
0
0
0
0
0
0
0
0
0
0
3
3
2
2
0
0
0
0
0
0
0
0
0
0
0
0
0
0
0
0
0
0
0
0
0
0
0
0
3
3
2
2
0
0
0
0
0
0
0
0
0
0
0
0
0
0
0
0
0
0
0
0
0
0
0
0
3
3
2
2
0
0
0
0
0
0
0
0
0
0
0
0
0
0
0
0
0
0
0
0
0
0
0
0
3
3
2
2
0
0
0
0
0
0
0
0
0
0
0
0
0
0
0
0
0
0
0
0
0
0
0
0
3
3
2
2
0
0
0
0
0
0
0
0
0
0
0
0
0
0
0
0
0
0
0
0
0
0
0
0
3
3
2
2
0
0
0
0
0
0
0
0
0
0
0
0
0
0
0
0
0
0
0
0
0
0
0
0
3
3
2
2
0
0
0
0
0
0
0
0
0
0
0
0
0
0
0
0
0
0
0
0
0
0
0
0
3
3
2
2
0
0
0
0
0
0
0
0
0
0
0
0
0
0
0
0
0
0
0
0
0
0
0
0
3
3
2
2
0
0
0
0
0
0
0
0
0
0
0
0
0
0
0
0
0
0
0
0
0
0
0
0
3
3
2
2
0
0
0
0
0
0
0
0
0
0
0
0
0
0
0
0
0
0
0
0
0
0
0
0
3
3
2
2
0
0
0
0
0
0
0
0
0
0
0
0
0
0
0
0
0
0
0
0
0
0
0
0
3
3
2
2
0
0
0
0
0
0
0
0
0
0
0
0
0
0
0
0
0
0
0
0
0
0
0
0
3
3
2
2
0
0
0
0
0
0
0
0
0
0
0
0
0
0
0
0
0
0
0
0
0
0
0
0
3
3
2
2
0
0
0
0
0
0
0
0
0
0
0
0
0
0
0
0
0
0
0
0
0
0
0
0
3
3
2
2
0
0
0
0
0
0
0
0
0
0
0
0
0
0
0
0
0
0
0
0
0
0
0
0
3
3
2
2
0
0
0
0
0
0
0
0
0
0
0
0
0
0
0
0
0
0
0
0
0
0
0
0
3
3
2
2
0
0
0
0
0
0
0
0
0
0
0
0
0
0
0
0
0
0
0
0
0
0
0
0
3
3
2
2
0
0
0
0
0
0
0
0
0
0
0
0
0
0
0
0
0
0
0
0
0
0
0
0
3
3
2
2
0
0
0
0
0
0
0
0
0
0
0
0
0
0
0
0
0
0
0
0
0
0
0
0
3
3
2
2
0
0
0
0
0
0
0
0
0
0
0
0
0
0
0
0
0
0
0
0
0
0
0
0
3
3
2
2
0
0
0
0
0
0
0
0
0
0
0
0
0
0
0
0
0
0
0
0
0
0
0
0
3
3
2
2
0
0
0
0
0
0
0
0
0
0
0
0
0
0
0
0
0
0
0
0
0
0
0
0
3
3
2
2
0
0
0
0
0
0
0
0
0
0
0
0
0
0
0
0
0
0
0
0
0
0
0
0
3
3
2
2
0
0
0
0
0
0
0
0
0
0
0
0
0
0
0
0
0
0
0
0
0
0
0
0
3
3
2
2
0
0
0
0
0
0
0
0
0
0
0
0
0
0
0
0
0
0
0
0
0
0
0
0
3
3
2
2
0
0
0
0
0
0
0
0
0
0
0
0
0
0
0
0
0
0
0
0
0
0
0
0
3
3
2
2
0
0
0
0
0
0
0
0
0
0
0
0
0
0
0
0
0
0
0
0
0
0
0
0
3
3
2
2
0
0
0
0
0
0
0
0
0
0
0
0
0
0
0
0
0
0
0
0
0
0
0
0
3
3
2
2
0
0
0
0
0
0
0
0
0
0
0
0
0
0
0
0
0
0
0
0
0
0
0
0
3
3
2
2
0
0
0
0
0
0
0
0
0
0
0
0
0
0
0
0
0
0
0
0
0
0
0
0
3
3
2
2
0
0
0
0
0
0
0
0
0
0
0
0
0
0
0
0
0
0
0
0
0
0
0
0
3
3
2
2
0
0
0
0
0
0
0
0
0
0
0
0
0
0
0
0
0
0
0
0
0
0
0
0
3
3
2
2
0
0
0
0
0
0
0
0
0
0
0
0
0
0
0
0
0
0
0
0
0
0
0
0
3
3
2
2
0
0
0
0
0
0
0
0
0
0
0
0
0
0
0
0
0
0
0
0
0
0
0
0
3
3
2
2
0
0
0
0
0
0
0
0
0
0
0
0
0
0
0
0
0
0
0
0
0
0
0
0
3
3
2
2
0
0
0
0
0
0
0
0
0
0
0
0
0
0
0
0
0
0
0
0
0
0
0
0
3
3
2
2
0
0
0
0
0
0
0
0
0
0
0
0
0
0
0
0
0
0
0
0
0
0
0
0
3
3
2
2
0
0
0
0
0
0
0
0
0
0
0
0
0
0
0
0
0
0
0
0
0
0
0
0
3
3
2
2
0
0
0
0
0
0
0
0
0
0
0
0
0
0
0
0
0
0
0
0
0
0
0
0
3
3
2
2
0
0
0
0
0
0
0
0
0
0
0
0
0
0
0
0
0
0
0
0
0
0
0
0
3
3
2
2
0
0
0
0
0
0
0
0
0
0
0
0
0
0
0
0
0
0
0
0
0
0
0
0
3
3
2
2
0
0
0
0
0
0
0
0
0
0
0
0
0
0
0
0
0
0
0
0
0
0
0
0
3
3
2
2
0
0
0
0
0
0
0
0
0
0
0
0
0
0
0
0
0
0
0
0
0
0
0
0
3
3
2
2
0
0
0
0
0
0
0
0
0
0
0
0
0
0
0
0
0
0
0
0
0
0
0
0
3
3
2
2
0
0
0
0
0
0
0
0
0
0
0
0
0
0
0
0
0
0
0
0
0
0
0
0
3
3
2
2
2
2
2
2
2
2
2
2
2
2
2
2
2
2
2
2
2
2
2
2
2
2
2
2
3
3
2
2
2
2
2
2
2
2
2
2
2
2
2
2
2
2
2
2
2
2
2
2
2
2
2
2
3
3
3
3
3
3
3
3
3
3
3
3
3
3
3
3
3
3
3
3
3
3
3
3
3
3
3
3
3
3
3
3
3
3
3
3
3
3
3
3
3
3
3
3
3
3
3
3
3
3
3
3
3
3
3
3
</DataArray>
<DataArray NumberOfComponents='1' type='Float32' Name='Velocity' format='ascii'>
0.000000
0.000000
0.000000
0.000000
0.000000
0.000000
0.000000
0.000000
0.000000
0.000000
0.000000
0.000000
0.000000
0.000000
0.000000
0.000000
0.000000
0.000000
0.000000
0.000000
0.000000
0.000000
0.000000
0.000000
0.000000
0.000000
0.000000
0.000000
0.000000
0.000000
0.000000
0.000000
0.000000
0.000000
0.000000
0.000000
0.000000
0.000000
0.000000
0.000000
0.000000
0.000000
0.000000
0.000000
0.000000
0.000000
0.000000
0.000000
0.000000
0.000000
0.000000
0.000000
0.000000
0.000000
0.000000
0.000000
0.000000
0.000000
0.000000
0.000000
0.000000
0.000000
0.000000
0.000000
0.000000
0.000000
0.000000
0.000000
0.000000
0.000000
0.000000
0.000000
0.000000
0.000000
0.000000
0.000000
0.000000
0.000000
0.000000
0.000000
0.000000
0.000000
0.000000
0.000000
0.000000
0.000000
0.000000
0.000000
0.000000
0.000000
0.000000
0.000000
0.000000
0.000000
0.000000
0.000000
0.000000
0.000000
0.000000
0.000000
0.000000
0.000000
0.000000
0.000000
0.000000
0.000000
0.000000
0.000000
0.000000
0.000000
0.000000
0.000000
0.000000
0.000000
0.000000
0.000000
4401.139160
212.316605
72.656654
66.869011
0.855994
95356864.000000
115.533501
96.882553
69.250984
526.361633
2975.989746
368.731750
76158.234375
28429.322266
148.641541
902.485779
170.009247
1789.524292
168.516388
1675.734131
1006.712463
1149.211060
2536.242676
83049576.000000
1.000000
1.000000
1.000000
0.000000
0.000000
0.000000
0.000000
136.558060
130.725281
1853.432373
101.716057
5235.625488
43.733421
71.776894
51.816261
47324.488281
49282.582031
128.675201
154.368378
302.194855
3767.474854
23500.083984
1095.223633
149.130188
433.347382
2117.565674
489.751251
1530.975098
28240.775391
1153.715454
2972.006592
1.000000
1.000000
1.000000
0.000000
0.000000
0.000000
0.000000
132.027390
35737.617188
38.380650
4700.439453
90.317688
290.390747
242.337265
5296.900391
1010.631714
646.726807
241.988525
1881.105103
907.637390
1562.771240
945.535461
33.523247
5673.058105
1.318429
458.595459
151.281876
6866.529785
368.311188
9610.140625
2171.305664
1.000000
1.000000
1.000000
0.000000
0.000000
0.000000
0.000000
4556.876465
164219952.000000
1581.681152
135656.203125
10448.511719
132.590668
227129.031250
175.685577
50.443367
124.490891
86.941551
3279.552979
321.219208
368.018585
229.818665
276.618561
0.906077
433.024933
129.742004
347.192047
0.561519
265.972443
3320.356689
41519.214844
1.000000
1.000000
1.000000
0.000000
0.000000
0.000000
0.000000
1027.830811
3409.620605
2795.941895
887.617310
72.070160
251.341248
1508.217529
142.512726
81647.437500
1773.314087
886.640198
12657.942383
35.690918
470.799927
650.998596
1093.422241
10192.536133
2078.427002
173.899170
416.715240
196.273392
4303.658691
998466.625000
324624.781250
1.000000
1.000000
1.000000
0.000000
0.000000
0.000000
0.000000
38.605389
2227.132812
72.025047
297.948059
7866.746582
1.717148
466.794434
42.627422
232.372116
6514.484863
870.271362
100.347717
184.463074
42874.476562
12942.633789
270.447449
357.238708
7002.812012
13420.388672
9315.274414
12991.093750
559.900146
5252.299805
2126.175781
1.000000
1.000000
1.000000
0.000000
0.000000
0.000000
0.000000
622.720947
6834.600586
63.226070
107050.992188
1222.081055
338.455841
263.007202
438.803589
2641.832275
1696.681885
31802.392578
5007.647461
5385.973145
8406.684570
3478.774414
805.178284
17939.166016
6927.381836
37641568.000000
1239.948975
12991.652344
1130.390503
930.397095
3816.197510
1.000000
1.000000
1.000000
0.000000
0.000000
0.000000
0.000000
997.261780
2530.910400
1055.530151
939.843811
2521.730225
117.905579
27921.134766
287566.156250
1585.339355
1610.805908
99.409660
128.523041
321.957458
24645172.000000
1351.336914
15051.429688
1125.022583
1788.759033
1779.836548
4261.507324
17893.662109
2291.410400
1940.492432
2322.624512
1.000000
1.000000
1.000000
0.000000
0.000000
0.000000
0.000000
52.927914
10989698.000000
2051.241699
82.512115
771.540771
194.636017
20260.878906
485.321198
2113.352783
368.346863
6044.636719
391.792145
8532.549805
1167.160645
155.017029
1.072490
174151.828125
202.656296
264.801666
68543.257812
1491.441162
26142.564453
95.127556
191028.375000
1.000000
1.000000
1.000000
0.000000
0.000000
0.000000
0.000000
43348.949219
295.702454
129.759415
8021.456055
16063.666992
668.322205
1159.277466
12930.027344
190196.281250
588.229370
164.528244
942.987671
1673.640869
202.464783
92.619225
118.536873
266763.218750
158.242294
352.045746
289706.187500
497.637817
1077.605225
95400.984375
95085.890625
1.000000
1.000000
1.000000
0.000000
0.000000
0.000000
0.000000
608.457825
134.031570
1757.384399
37.997299
1789.021240
155.431854
93.234932
161.498489
246.761398
163.944992
859.006104
2964.247803
2020.676270
670.645508
304234.031250
60897.402344
109189544.000000
856.257324
43348.000000
5690.275391
127.048843
9136.474609
3866.515381
3981.020996
1.000000
1.000000
1.000000
0.000000
0.000000
0.000000
0.000000
293.112122
1010911488.000000
272.574615
313831.718750
43311.796875
41954936.000000
8093.071289
9932.371094
330.106171
408.772491
1308.356323
11015329.000000
863.301758
7859819520.000000
30.643700
57765.031250
117242.046875
1863.487793
626.279114
52.518353
7545.469238
6939.771973
161842336.000000
7707.945312
1.000000
1.000000
1.000000
0.000000
0.000000
0.000000
0.000000
817.945068
298.969849
101.887878
90.122513
106.651840
10577.938477
167.605820
163.710342
140.152679
2430.109375
6692.489258
1623.490845
347.959778
59.226402
2803.904053
381.165558
340.081635
65.796288
429.169495
1685.806396
695.996216
72.810303
39987.761719
4008.737061
1.000000
1.000000
1.000000
0.000000
0.000000
0.000000
0.000000
84.297325
1914.608398
185.534988
32.681015
239.055450
334.891541
2331.997070
7076.392578
854.811523
1094.078369
20027.591797
74.912811
403.153442
252.350449
247.606689
9487.121094
49153.613281
266.149231
90296.828125
276.085724
6454.262695
1103.536011
5125.469727
998081.687500
1.000000
1.000000
1.000000
0.000000
0.000000
0.000000
0.000000
118.419838
81898.585938
124.384407
1.071495
143.166428
595.236023
106.953896
2076.003174
41956152.000000
83.788383
884.963928
1017.251465
339448.062500
24146.189453
483.939972
711.905579
1162.324463
222.469040
1296.019043
52.547203
1558.349731
82941672.000000
956.051025
15229.231445
1.000000
1.000000
1.000000
0.000000
0.000000
0.000000
0.000000
1401.950684
44920.691406
321.508820
286.202179
467.694397
909.518311
142.255310
1768.338257
215.558731
2586.202148
17708.509766
450.373383
2946.420654
695.002563
225.874741
48621.320312
96.444809
12590.283203
3796.660400
1774.185059
127.128052
1778.583130
1131.731567
15809.700195
1.000000
1.000000
1.000000
0.000000
0.000000
0.000000
0.000000
241.708450
1066.927490
199.383133
515.128906
23249.572266
36.903839
1826.081421
2048.575684
4755.440430
127.187691
612.887451
4968.316406
3716.985840
181.844849
276.943634
132.569427
361.900085
384.891479
159659.765625
192.053848
5988.003418
71.817413
102.731133
4414.949219
0.000000
0.000000
0.000000
0.000000
60.382210
39281.585938
2573.110107
153.990891
2679.229492
4864.967285
2317.986816
9501.800781
2524.372070
21143.513672
6729.180176
7730.224609
194.480316
98441824.000000
1942.952393
495978.718750
6310.348145
25976.509766
420.271362
553.207275
96046.179688
27242.650391
147.311188
1062.179565
0.000000
0.000000
0.000000
0.000000
1952.613159
680.875549
134.114655
377.931183
297.886902
5028.428711
122.213097
63.518471
169.282974
8015.241699
1055.219238
3710.532471
98599.765625
234.308289
130.432053
160.416779
287.851715
529.439087
4829300.500000
19885750.000000
1419.904541
2171.075684
609.163086
15961.966797
0.000000
0.000000
0.000000
0.000000
54.224842
1297.885376
471.958466
3294.027100
3090.337646
182.730209
13265.595703
469.117737
124.224411
288258.031250
48.898277
1296.842163
526.567139
43177.546875
901.793457
1069.930908
1930363.250000
14035.995117
197.537521
53.006985
2958.285889
696.351868
1277.806885
4774220.000000
0.000000
0.000000
0.000000
0.000000
1512.803345
1346.028809
161.210922
4118.750488
43065.175781
608.555603
407.921875
351.979736
685.858704
302.206177
1742.264648
270.167084
580.236938
167.487610
118.314758
101.285744
5530499.500000
210.807358
1231.012207
350.756317
4797.674805
2164.443359
1834.930176
2571.384033
0.000000
0.000000
0.000000
0.000000
127.319321
731.208862
56.258125
1666460.000000
23588.005859
279.952148
63.389179
72.563889
1928.039673
6808.178711
203547328.000000
137.812805
2088.189209
815.474243
276.579956
116.073929
735.974365
199.385483
187.285156
328.810852
1228.436279
307293.531250
346.165314
1176.369141
0.000000
0.000000
0.000000
0.000000
416.678680
1507.840576
265.352295
1456.695801
123.312843
2293.289307
467.074127
39930.304688
96.242065
30677.167969
1210.625000
225.604889
3374.947510
63.173759
3205.687012
102359.640625
1632.877441
152.872162
3960.646973
252.786423
38518.195312
120.569176
709.453796
2748.442871
0.000000
0.000000
0.000000
0.000000
68.792633
1.700790
9624.400391
367294.187500
352.851990
209.407883
57535692.000000
21695.656250
796.549744
890.163940
6319.193359
1935943.625000
141.287796
100.377846
1905.014893
986.598633
1160.213013
1434.181274
4917.718262
1235.695435
203547792.000000
40052.703125
4401.792480
9517.379883
0.000000
0.000000
0.000000
0.000000
61.915421
420902.468750
287.869751
3.532799
139927.812500
85.389725
15248.795898
1196.098389
371.673279
335.750977
795.513550
2211.885986
17535.990234
28250.294922
1568.088623
189.647095
257.480164
310.049042
1241.545410
0.648797
15372175.000000
92.686501
417.218292
1095.955322
0.000000
0.000000
0.000000
0.000000
620.584656
47.869411
3202.955322
902.568665
2151.247803
295.301605
709960.875000
351.109894
447.252960
9597.067383
675.594238
127.124901
42.730045
48.490440
442.829224
3.152581
1018.107178
852.070496
3773.944092
300.558624
3789.733398
12455.857422
5500.608398
4545.144531
0.000000
0.000000
0.000000
0.000000
1067.935791
163.616882
10160.034180
24003.626953
0.534017
79958.921875
81155.101562
140151.234375
2077.542236
92.078415
107.158218
328.611603
1349.239136
1.269877
883.131042
616.302246
69.538467
58.440205
937.393066
1080.685181
2232.851074
994.207947
157.499634
1799.685425
0.000000
0.000000
0.000000
0.000000
16076.852539
69402.570312
861.180115
102.238686
205149.765625
798.694153
164.114029
4412.475098
1245.453491
88.879990
24622.777344
22168.886719
258.288849
10534.017578
370.298737
287.922363
1438.316040
2015.068970
539.909607
27196.566406
235.251678
6550.568848
87.172142
8849.852539
0.000000
0.000000
0.000000
0.000000
16156.649414
112181.320312
699.756104
1523.552124
125.383644
94768.734375
304.801758
3326.318359
3161.303467
480.244446
453.227417
219.032394
1065.361938
4889.988770
12373.141602
82307.070312
81594.234375
25816.574219
579.072754
964.961670
163329.265625
107688.375000
1086.345093
2122.680664
0.000000
0.000000
0.000000
0.000000
475.265076
76.605286
67.355110
84.124115
107776.640625
3959.557129
1709.578003
336.585602
698.042542
663460.062500
2240.603516
1527.897827
1064.452515
23744.468750
51.832809
153.343430
103.953133
109.684242
960.799866
228.324936
226.343857
2353.071289
370.384399
2052.204590
0.000000
0.000000
0.000000
0.000000
12854.691406
62.474754
786193.125000
727.353149
260.170685
308.374084
361.316223
1898.100708
8.107505
22492.570312
29818181648384.000000
498.016937
619.900574
804.939758
174.442642
812.651733
301.554504
140.458817
296.423279
64.845367
715.209839
32273.298828
7109.957520
6860.969238
0.000000
0.000000
0.000000
0.000000
2028.139160
11138.400391
1781.603149
154.363205
1588.233887
4642.316895
334.378235
12982.538086
19754.939453
344.705078
3009.709961
49007.937500
874.243713
250.780380
6126.147461
613.866943
1224.368896
543.482666
81.995605
3513.263916
90958.132812
378.428436
1722.736328
20953.773438
0.000000
0.000000
0.000000
0.000000
82.485641
69.662918
3366.955078
207.914276
19580.236328
1960.737793
801.590820
480.973053
550.188660
124.363335
46.082371
70.647537
110.266426
1251777920.000000
3622.435059
156.012024
238.910004
204.327026
130.276245
39097.984375
277.536743
5787.438965
22680.398438
5685.577148
0.000000
0.000000
0.000000
0.000000
109266000.000000
4917.508789
1117.307129
92.924606
398.033966
1107.696533
0.046822
95356440.000000
1634.295166
16804.906250
1748.685913
146.151169
24.298822
83.073242
24338.181641
249.073471
3994.030762
832.612732
1147.587036
162.972137
303.240265
2318.382324
11944.697266
5083.698730
0.000000
0.000000
0.000000
0.000000
128181.062500
2.826198
215609.859375
536.156433
122.365509
7.751048
152.298965
386.388672
548.917664
13220.702148
46276.199219
185422.359375
1103.674438
29612.654297
1146.789062
2676.414795
6082527.000000
243.969788
578.808228
47.895325
14900.021484
373.128784
2859.065430
23664962.000000
0.000000
0.000000
0.000000
0.000000
190375.000000
103.864006
550.897339
227.492004
22319.990234
3954.882080
9132.203125
117335.429688
1646.295044
545.669861
74.189362
686.273132
36312.183594
161.312073
44.656960
169.656418
202056.750000
4899.231445
1321.264648
118.699348
1745.014038
451.645355
712.071167
3154.043701
0.000000
0.000000
0.000000
0.000000
67.779716
2.050211
19159504.000000
962.886414
131.273560
501.145782
359.192719
2869.420166
367.036987
15208.629883
346.075317
397.171143
2974.701904
285.426178
413.352142
113043.062500
1574.106201
3447.293457
2708.953613
3052.512695
903.954102
759.328735
39002.171875
11095.375000
0.000000
0.000000
0.000000
0.000000
58.402004
401.714417
487.015320
7979.337402
699.064087
831.870789
2775.368652
170.879059
15407.654297
13.376037
1795.833496
282.949158
113.652969
77766.062500
1174.150391
2779.097900
652.146362
307.369934
3431.945312
1632.958130
533.533325
174259.578125
450.589569
79955.398438
0.000000
0.000000
0.000000
0.000000
33.553806
122.673927
116.434731
810.305359
103.164551
206.103760
77.302124
45.205894
15372272.000000
124.729378
80961.039062
448975.000000
1671.838745
156.390656
287.131958
98099.492188
2749.481201
944355.062500
363.139313
128.325195
21629.005859
69.075851
135.628906
4928.907227
0.000000
0.000000
0.000000
0.000000
83570.054688
171.905212
2606.036133
2179.294189
1035.481567
173769.718750
76.519676
644.563660
586.836304
58.249500
209.421051
482.171051
1.378456
4055.362793
3392.036621
587638.875000
259.542786
311.847931
218.633865
793.901001
695.901855
111.643456
206.325882
954.887512
0.000000
0.000000
0.000000
0.000000
109.972824
105.651978
173.927231
319320.937500
2215.232422
1.086138
220.415985
3293.498291
571.203003
6086.860352
27423.615234
21588.691406
40.756287
430.322723
8697.550781
171.404800
29.612005
128166.570312
17505.416016
4534.606445
7180.174316
196821.453125
145.942352
8062.246582
0.000000
0.000000
0.000000
0.000000
337.002808
2884.264160
400.494873
92.699577
10510.996094
2768.882812
3398.952881
8100.896973
68835.500000
169.295746
215246224.000000
4244.269043
874.481201
227.955811
100.579979
488973.312500
37.168701
112331.828125
2133.461182
117.193184
2611.033203
2182.778809
89.518959
1164.681763