<?xml version='1.0' encoding='UTF-8'?>
<VTKFile xmlns='VTK' byte_order='LittleEndian' version='0.1' type='UnstructuredGrid'>
<UnstructuredGrid>
<Piece NumberOfCells='2512' NumberOfPoints='2512'>
<Points>
<DataArray NumberOfComponents='3' type='Float32' Name='Position' format='ascii'>
-0.075000 -0.075000 0.000000
-0.075000 -0.050000 0.000000
-0.075000 -0.025000 0.000000
-0.075000 0.000000 0.000000
-0.075000 0.025000 0.000000
-0.075000 0.050000 0.000000
-0.075000 0.075000 0.000000
-0.075000 0.100000 0.000000
-0.075000 0.125000 0.000000
-0.075000 0.150000 0.000000
-0.075000 0.175000 0.000000
-0.075000 0.200000 0.000000
-0.075000 0.225000 0.000000
-0.075000 0.250000 0.000000
-0.075000 0.275000 0.000000
-0.075000 0.300000 0.000000
-0.075000 0.325000 0.000000
-0.075000 0.350000 0.000000
-0.075000 0.375000 0.000000
-0.075000 0.400000 0.000000
-0.075000 0.425000 0.000000
-0.075000 0.450000 0.000000
-0.075000 0.475000 0.000000
-0.075000 0.500000 0.000000
-0.075000 0.525000 0.000000
-0.075000 0.550000 0.000000
-0.075000 0.575000 0.000000
-0.075000 0.600000 0.000000
-0.050000 -0.075000 0.000000
-0.050000 -0.050000 0.000000
-0.050000 -0.025000 0.000000
-0.050000 0.000000 0.000000
-0.050000 0.025000 0.000000
-0.050000 0.050000 0.000000
-0.050000 0.075000 0.000000
-0.050000 0.100000 0.000000
-0.050000 0.125000 0.000000
-0.050000 0.150000 0.000000
-0.050000 0.175000 0.000000
-0.050000 0.200000 0.000000
-0.050000 0.225000 0.000000
-0.050000 0.250000 0.000000
-0.050000 0.275000 0.000000
-0.050000 0.300000 0.000000
-0.050000 0.325000 0.000000
-0.050000 0.350000 0.000000
-0.050000 0.375000 0.000000
-0.050000 0.400000 0.000000
-0.050000 0.425000 0.000000
-0.050000 0.450000 0.000000
-0.050000 0.475000 0.000000
-0.050000 0.500000 0.000000
-0.050000 0.525000 0.000000
-0.050000 0.550000 0.000000
-0.050000 0.575000 0.000000
-0.050000 0.600000 0.000000
-0.025000 -0.075000 0.000000
-0.025000 -0.050000 0.000000
-0.025000 -0.025000 0.000000
-0.025000 0.000000 0.000000
-0.025000 0.025000 0.000000
-0.025000 0.050000 0.000000
-0.025000 0.075000 0.000000
-0.025000 0.100000 0.000000
-0.025000 0.125000 0.000000
-0.025000 0.150000 0.000000
-0.025000 0.175000 0.000000
-0.025000 0.200000 0.000000
-0.025000 0.225000 0.000000
-0.025000 0.250000 0.000000
-0.025000 0.275000 0.000000
-0.025000 0.300000 0.000000
-0.025000 0.325000 0.000000
-0.025000 0.350000 0.000000
-0.025000 0.375000 0.000000
-0.025000 0.400000 0.000000
-0.025000 0.425000 0.000000
-0.025000 0.450000 0.000000
-0.025000 0.475000 0.000000
-0.025000 0.500000 0.000000
-0.025000 0.525000 0.000000
-0.025000 0.550000 0.000000
-0.025000 0.575000 0.000000
-0.025000 0.600000 0.000000
0.000000 -0.075000 0.000000
0.000000 -0.050000 0.000000
0.000000 -0.025000 0.000000
0.000000 0.000000 0.000000
0.000000 0.025000 0.000000
0.000000 0.050000 0.000000
0.000000 0.075000 0.000000
0.000000 0.100000 0.000000
0.000000 0.125000 0.000000
0.000000 0.150000 0.000000
0.000000 0.175000 0.000000
0.000000 0.200000 0.000000
0.000000 0.225000 0.000000
0.000000 0.250000 0.000000
0.000000 0.275000 0.000000
0.000000 0.300000 0.000000
0.000000 0.325000 0.000000
0.000000 0.350000 0.000000
0.000000 0.375000 0.000000
0.000000 0.400000 0.000000
0.000000 0.425000 0.000000
0.000000 0.450000 0.000000
0.000000 0.475000 0.000000
0.000000 0.500000 0.000000
0.000000 0.525000 0.000000
0.000000 0.550000 0.000000
0.000000 0.575000 0.000000
0.000000 0.600000 0.000000
0.025000 -0.075000 0.000000
0.025000 -0.050000 0.000000
0.025000 -0.025000 0.000000
0.025000 0.000000 0.000000
-1534.634168 0.600000 0.000000
41.843249 -71.352953 0.000000
-14.072793 -23.658258 0.000000
10.096893 -23.126707 0.000000
0.272621 0.028100 0.000000
-36235608.322796 0.600000 0.000000
6.168975 -43.816082 0.000000
17.948850 -32.205791 0.000000
-26.739668 -4.520676 0.000000
6.758988 -183.483248 0.000000
326.532599 -1127.783258 0.000000
21.586689 -142.881704 0.000000
29776.101569 0.600000 0.000000
-10969.658451 0.600000 0.000000
-46.787697 0.600000 0.000000
-164.584617 -315.601742 0.000000
-47.388061 -46.162807 0.000000
411.340458 -573.198205 0.000000
41.752690 -47.719319 0.000000
-655.854799 0.600000 0.000000
169.458148 -361.313672 0.000000
-424.516060 0.600000 0.000000
-1003.034391 0.600000 0.000000
32887631.180306 0.600000 0.000000
1.395000 0.625000 0.000000
1.395000 0.650000 0.000000
1.395000 0.675000 0.000000
0.050000 -0.075000 0.000000
0.050000 -0.050000 0.000000
0.050000 -0.025000 0.000000
0.050000 0.000000 0.000000
-53.755370 0.600000 0.000000
-47.959689 -14.429459 0.000000
693.004575 0.600000 0.000000
34.378084 0.600000 0.000000
2048.818230 0.600000 0.000000
-13.067308 -9.299358 0.000000
-12.298586 -24.100924 0.000000
-24.659411 0.600000 0.000000
-8842.527357 -16468.015915 0.000000
8588.991569 0.600000 0.000000
3.836173 -49.224722 0.000000
42.243193 -39.910466 0.000000
-110.778818 -42.717218 0.000000
853.356811 0.600000 0.000000
8882.098564 0.600000 0.000000
-431.174884 0.600000 0.000000
-52.453320 -25.691534 0.000000
-156.719569 0.600000 0.000000
820.563557 0.600000 0.000000
-115.242374 -151.784327 0.000000
555.471943 0.600000 0.000000
10892.292538 -2271.195940 0.000000
108.365418 -444.624978 0.000000
1177.447324 0.600000 0.000000
1.420000 0.625000 0.000000
1.420000 0.650000 0.000000
1.420000 0.675000 0.000000
0.075000 -0.075000 0.000000
0.075000 -0.050000 0.000000
0.075000 -0.025000 0.000000
0.075000 0.000000 0.000000
-36.137855 -36.080504 0.000000
13148.445621 0.600000 0.000000
11.700708 0.600000 0.000000
-1708.490819 0.600000 0.000000
-28.632351 -19.917178 0.000000
96.761517 0.600000 0.000000
18.781816 -88.475542 0.000000
2060.640323 0.600000 0.000000
404.495656 0.600000 0.000000
20.692879 -242.485145 0.000000
67.324269 -66.013981 0.000000
-736.046351 0.600000 0.000000
-343.104944 0.600000 0.000000
513.002004 -339.067490 0.000000
370.451083 0.600000 0.000000
13.475302 -0.762669 0.000000
2050.406301 -815.131043 0.000000
0.050889 0.089078 0.000000
140.416322 -110.279149 0.000000
33.586088 -47.481438 0.000000
2705.174146 0.600000 0.000000
-49.326153 -135.257492 0.000000
-3790.320609 0.600000 0.000000
-840.887242 0.600000 0.000000
1.445000 0.625000 0.000000
1.445000 0.650000 0.000000
1.445000 0.675000 0.000000
0.100000 -0.075000 0.000000
0.100000 -0.050000 0.000000
0.100000 -0.025000 0.000000
0.100000 0.000000 0.000000
-905.733842 0.600000 0.000000
60432939.742215 0.600000 0.000000
-450.058901 -427.485484 0.000000
50333.324972 0.600000 0.000000
-4100.184460 0.600000 0.000000
-0.680585 0.600000 0.000000
-86547.036288 0.600000 0.000000
68.864095 -0.830811 0.000000
10.742687 -15.344267 0.000000
44.188663 -19.263854 0.000000
-16.344670 -28.462384 0.000000
-1275.011406 0.600000 0.000000
-64.764096 0.600000 0.000000
140.519705 -33.759019 0.000000
-86.404805 0.600000 0.000000
-81.725606 -68.874703 0.000000
0.035837 0.111089 0.000000
-15.218547 0.600000 0.000000
40.807205 -25.995731 0.000000
-122.087865 0.600000 0.000000
0.951025 0.284283 0.000000
58.015487 -85.470946 0.000000
1305.518777 0.600000 0.000000
-16437.948486 0.600000 0.000000
1.470000 0.625000 0.000000
1.470000 0.650000 0.000000
1.470000 0.675000 0.000000
0.125000 -0.075000 0.000000
0.125000 -0.050000 0.000000
0.125000 -0.025000 0.000000
0.125000 0.000000 0.000000
-367.367666 0.600000 0.000000
1157.203180 0.600000 0.000000
-1064.827435 0.600000 0.000000
-330.137456 0.600000 0.000000
4.488712 -26.316098 0.000000
80.969672 -56.717928 0.000000
-476.464099 0.600000 0.000000
-8.193626 -53.905741 0.000000
31345.818810 0.600000 0.000000
-202.037157 -665.579999 0.000000
-264.931999 0.600000 0.000000
-3337.436574 0.600000 0.000000
-11.715522 -0.882787 0.000000
-178.093615 0.600000 0.000000
-251.083551 0.600000 0.000000
-324.555679 0.600000 0.000000
3720.910875 0.600000 0.000000
798.578002 0.600000 0.000000
-17.160515 -63.848275 0.000000
-138.442594 -85.551658 0.000000
-78.129239 -0.366870 0.000000
1519.795197 0.600000 0.000000
397389.937119 0.600000 0.000000
-124030.545692 0.600000 0.000000
1.495000 0.625000 0.000000
1.495000 0.650000 0.000000
1.495000 0.675000 0.000000
0.150000 -0.075000 0.000000
0.150000 -0.050000 0.000000
0.150000 -0.025000 0.000000
0.150000 0.000000 0.000000
-31.435980 0.600000 0.000000
-860.031075 0.600000 0.000000
-0.775142 -27.128530 0.000000
-98.562274 -60.439225 0.000000
-2861.898605 0.600000 0.000000
1.648732 0.034877 0.000000
176.174398 0.600000 0.000000
5.017308 -14.483508 0.000000
-105.553638 0.600000 0.000000
-2505.979276 0.600000 0.000000
-312.212386 -140.208253 0.000000
15.254223 -35.241605 0.000000
-51.785017 -46.792427 0.000000
-16891.885915 0.600000 0.000000
-5056.638457 0.600000 0.000000
-98.400057 -39.510665 0.000000
-122.127693 0.600000 0.000000
6.491636 -2750.357775 0.000000
5245.086231 0.600000 0.000000
3614.460503 0.600000 0.000000
-5053.125515 0.600000 0.000000
85.143547 -204.326804 0.000000
2089.840619 0.600000 0.000000
841.370509 0.600000 0.000000
1.520000 0.625000 0.000000
1.520000 0.650000 0.000000
1.520000 0.675000 0.000000
0.175000 -0.075000 0.000000
0.175000 -0.050000 0.000000
0.175000 -0.025000 0.000000
0.175000 0.000000 0.000000
-226.631076 0.600000 0.000000
-2509.631549 0.600000 0.000000
5.746590 -22.945637 0.000000
41317.969268 0.600000 0.000000
467.118613 0.600000 0.000000
-105.579448 -80.486443 0.000000
12.184564 -101.637876 0.000000
155.256439 0.600000 0.000000
-996.981765 0.600000 0.000000
-594.794324 -303.419755 0.000000
11799.132024 0.600000 0.000000
-1797.184271 0.600000 0.000000
2054.371677 0.600000 0.000000
3293.805586 0.600000 0.000000
1209.509262 -581.598030 0.000000
-309.474473 0.600000 0.000000
-2903.553872 -6481.788214 0.000000
2662.255730 0.600000 0.000000
14604923.878865 0.600000 0.000000
484.357485 0.600000 0.000000
5142.080369 0.600000 0.000000
-406.924657 -187.286717 0.000000
-59.281843 -364.654614 0.000000
1434.670538 0.600000 0.000000
1.545000 0.625000 0.000000
1.545000 0.650000 0.000000
1.545000 0.675000 0.000000
0.200000 -0.075000 0.000000
0.200000 -0.050000 0.000000
0.200000 -0.025000 0.000000
0.200000 0.000000 0.000000
[...]
<PointData>
<DataArray NumberOfComponents='1' type='Int32' Name='ParticleType' format='ascii'>
3
3
3
3
3
3
3
3
3
3
3
3
3
3
3
3
3
3
3
3
3
3
3
3
3
3
3
3
3
3
3
3
3
3
3
3
3
3
3
3
3
3
3
3
3
3
3
3
3
3
3
3
3
3
3
3
3
3
2
2
2
2
2
2
2
2
2
2
2
2
2
2
2
2
2
2
2
2
2
2
2
2
2
2
3
3
2
2
2
2
2
2
2
2
2
2
2
2
2
2
2
2
2
2
2
2
2
2
2
2
2
2
3
3
2
2
0
0
0
0
0
0
0
0
0
0
0
0
0
0
0
0
0
0
0
0
0
0
0
0
1
1
1
3
3
2
2
0
0
0
0
0
0
0
0
0
0
0
0
0
0
0
0
0
0
0
0
0
0
0
0
1
1
1
3
3
2
2
0
0
0
0
0
0
0
0
0
0
0
0
0
0
0
0
0
0
0
0
0
0
0
0
1
1
1
3
3
2
2
0
0
0
0
0
0
0
0
0
0
0
0
0
0
0
0
0
0
0
0
0
0
0
0
1
1
1
3
3
2
2
0
0
0
0
0
0
0
0
0
0
0
0
0
0
0
0
0
0
0
0
0
0
0
0
1
1
1
3
3
2
2
0
0
0
0
0
0
0
0
0
0
0
0
0
0
0
0
0
0
0
0
0
0
0
0
1
1
1
3
3
2
2
0
0
0
0
0
0
0
0
0
0
0
0
0
0
0
0
0
0
0
0
0
0
0
0
1
1
1
3
3
2
2
0
0
0
0
0
0
0
0
0
0
0
0
0
0
0
0
0
0
0
0
0
0
0
0
1
1
1
3
3
2
2
0
0
0
0
0
0
0
0
0
0
0
0
0
0
0
0
0
0
0
0
0
0
0
0
1
1
1
3
3
2
2
0
0
0
0
0
0
0
0
0
0
0
0
0
0
0
0
0
0
0
0
0
0
0
0
1
1
1
3
3
2
2
0
0
0
0
0
0
0
0
0
0
0
0
0
0
0
0
0
0
0
0
0
0
0
0
1
1
1
3
3
2
2
0
0
0
0
0
0
0
0
0
0
0
0
0
0
0
0
0
0
0
0
0
0
0
0
1
1
1
3
3
2
2
0
0
0
0
0
0
0
0
0
0
0
0
0
0
0
0
0
0
0
0
0
0
0
0
1
1
1
3
3
2
2
0
0
0
0
0
0
0
0
0
0
0
0
0
0
0
0
0
0
0
0
0
0
0
0
1
1
1
3
3
2
2
0
0
0
0
0
0
0
0
0
0
0
0
0
0
0
0
0
0
0
0
0
0
0
0
1
1
1
3
3
2
2
0
0
0
0
0
0
0
0
0
0
0
0
0
0
0
0
0
0
0
0
0
0
0
0
1
1
1
3
3
2
2
0
0
0
0
0
0
0
0
0
0
0
0
0
0
0
0
0
0
0
0
0
0
0
0
3
3
2
2
0
0
0
0
0
0
0
0
0
0
0
0
0
0
0
0
0
0
0
0
0
0
0
0
3
3
2
2
0
0
0
0
0
0
0
0
0
0
0
0
0
0
0
0
0
0
0
0
0
0
0
0
3
3
2
2
0
0
0
0
0
0
0
0
0
0
0
0
0
0
0
0
0
0
0
0
0
0
0
0
3
3
2
2
0
0
0
0
0
0
0
0
0
0
0
0
0
0
0
0
0
0
0
0
0
0
0
0
3
3
2
2
0
0
0
0
0
0
0
0
0
0
0
0
0
0
0
0
0
0
0
0
0
0
0
0
3
3
2
2
0
0
0
0
0
0
0
0
0
0
0
0
0
0
0
0
0
0
0
0
0
0
0
0
3
3
2
2
0
0
0
0
0
0
0
0
0
0
0
0
0
0
0
0
0
0
0
0
0
0
0
0
3
3
2
2
0
0
0
0
0
0
0
0
0
0
0
0
0
0
0
0
0
0
0
0
0
0
0
0
3
3
2
2
0
0
0
0
0
0
0
0
0
0
0
0
0
0
0
0
0
0
0
0
0
0
0
0
3
3
2
2
0
0
0
0
0
0
0
0
0
0
0
0
0
0
0
0
0
0
0
0
0
0
0
0
3
3
2
2
0
0
0
0
0
0
0
0
0
0
0
0
0
0
0
0
0
0
0
0
0
0
0
0
3
3
2
2
0
0
0
0
0
0
0
0
0
0
0
0
0
0
0
0
0
0
0
0
0
0
0
0
3
3
2
2
0
0
0
0
0
0
0
0
0
0
0
0
0
0
0
0
0
0
0
0
0
0
0
0
3
3
2
2
0
0
0
0
0
0
0
0
0
0
0
0
0
0
0
0
0
0
0
0
0
0
0
0
3
3
2
2
0
0
0
0
0
0
0
0
0
0
0
0
0
0
0
0
0
0
0
0
0
0
0
0
3
3
2
2
0
0
0
0
0
0
0
0
0
0
0
0
0
0
0
0
0
0
0
0
0
0
0
0
3
3
2
2
0
0
0
0
0
0
0
0
0
0
0
0
0
0
0
0
0
0
0
0
0
0
0
0
3
3
2
2
0
0
0
0
0
0
0
0
0
0
0
0
0
0
0
0
0
0
0
0
0
0
0
0
3
3
2
2
0
0
0
0
0
0
0
0
0
0
0
0
0
0
0
0
0
0
0
0
0
0
0
0
3
3
2
2
0
0
0
0
0
0
0
0
0
0
0
0
0
0
0
0
0
0
0
0
0
0
0
0
3
3
2
2
0
0
0
0
0
0
0
0
0
0
0
0
0
0
0
0
0
0
0
0
0
0
0
0
3
3
2
2
0
0
0
0
0
0
0
0
0
0
0
0
0
0
0
0
0
0
0
0
0
0
0
0
3
3
2
2
0
0
0
0
0
0
0
0
0
0
0
0
0
0
0
0
0
0
0
0
0
0
0
0
3
3
2
2
0
0
0
0
0
0
0
0
0
0
0
0
0
0
0
0
0
0
0
0
0
0
0
0
3
3
2
2
0
0
0
0
0
0
0
0
0
0
0
0
0
0
0
0
0
0
0
0
0
0
0
0
3
3
2
2
0
0
0
0
0
0
0
0
0
0
0
0
0
0
0
0
0
0
0
0
0
0
0
0
3
3
2
2
0
0
0
0
0
0
0
0
0
0
0
0
0
0
0
0
0
0
0
0
0
0
0
0
3
3
2
2
0
0
0
0
0
0
0
0
0
0
0
0
0
0
0
0
0
0
0
0
0
0
0
0
3
3
2
2
0
0
0
0
0
0
0
0
0
0
0
0
0
0
0
0
0
0
0
0
0
0
0
0
3
3
2
2
0
0
0
0
0
0
0
0
0
0
0
0
0
0
0
0
0
0
0
0
0
0
0
0
3
3
2
2
0
0
0
0
0
0
0
0
0
0
0
0
0
0
0
0
0
0
0
0
0
0
0
0
3
3
2
2
0
0
0
0
0
0
0
0
0
0
0
0
0
0
0
0
0
0
0
0
0
0
0
0
3
3
2
2
0
0
0
0
0
0
0
0
0
0
0
0
0
0
0
0
0
0
0
0
0
0
0
0
3
3
2
2
0
0
0
0
0
0
0
0
0
0
0
0
0
0
0
0
0
0
0
0
0
0
0
0
3
3
2
2
0
0
0
0
0
0
0
0
0
0
0
0
0
0
0
0
0
0
0
0
0
0
0
0
3
3
2
2
0
0
0
0
0
0
0
0
0
0
0
0
0
0
0
0
0
0
0
0
0
0
0
0
3
3
2
2
0
0
0
0
0
0
0
0
0
0
0
0
0
0
0
0
0
0
0
0
0
0
0
0
3
3
2
2
0
0
0
0
0
0
0
0
0
0
0
0
0
0
0
0
0
0
0
0
0
0
0
0
3
3
2
2
0
0
0
0
0
0
0
0
0
0
0
0
0
0
0
0
0
0
0
0
0
0
0
0
3
3
2
2
0
0
0
0
0
0
0
0
0
0
0
0
0
0
0
0
0
0
0
0
0
0
0
0
3
3
2
2
0
0
0
0
0
0
0
0
0
0
0
0
0
0
0
0
0
0
0
0
0
0
0
0
3
3
2
2
0
0
0
0
0
0
0
0
0
0
0
0
0
0
0
0
0
0
0
0
0
0
0
0
3
3
2
2
0
0
0
0
0
0
0
0
0
0
0
0
0
0
0
0
0
0
0
0
0
0
0
0
3
3
2
2
0
0
0
0
0
0
0
0
0
0
0
0
0
0
0
0
0
0
0
0
0
0
0
0
3
3
2
2
0
0
0
0
0
0
0
0
0
0
0
0
0
0
0
0
0
0
0
0
0
0
0
0
3
3
2
2
0
0
0
0
0
0
0
0
0
0
0
0
0
0
0
0
0
0
0
0
0
0
0
0
3
3
2
2
0
0
0
0
0
0
0
0
0
0
0
0
0
0
0
0
0
0
0
0
0
0
0
0
3
3
2
2
0
0
0
0
0
0
0
0
0
0
0
0
0
0
0
0
0
0
0
0
0
0
0
0
3
3
2
2
0
0
0
0
0
0
0
0
0
0
0
0
0
0
0
0
0
0
0
0
0
0
0
0
3
3
2
2
0
0
0
0
0
0
0
0
0
0
0
0
0
0
0
0
0
0
0
0
0
0
0
0
3
3
2
2
0
0
0
0
0
0
0
0
0
0
0
0
0
0
0
0
0
0
0
0
0
0
0
0
3
3
2
2
0
0
0
0
0
0
0
0
0
0
0
0
0
0
0
0
0
0
0
0
0
0
0
0
3
3
2
2
0
0
0
0
0
0
0
0
0
0
0
0
0
0
0
0
0
0
0
0
0
0
0
0
3
3
2
2
0
0
0
0
0
0
0
0
0
0
0
0
0
0
0
0
0
0
0
0
0
0
0
0
3
3
2
2
0
0
0
0
0
0
0
0
0
0
0
0
0
0
0
0
0
0
0
0
0
0
0
0
3
3
2
2
0
0
0
0
0
0
0
0
0
0
0
0
0
0
0
0
0
0
0
0
0
0
0
0
3
3
2
2
0
0
0
0
0
0
0
0
0
0
0
0
0
0
0
0
0
0
0
0
0
0
0
0
3
3
2
2
0
0
0
0
0
0
0
0
0
0
0
0
0
0
0
0
0
0
0
0
0
0
0
0
3
3
2
2
0
0
0
0
0
0
0
0
0
0
0
0
0
0
0
0
0
0
0
0
0
0
0
0
3
3
2
2
0
0
0
0
0
0
0
0
0
0
0
0
0
0
0
0
0
0
0
0
0
0
0
0
3
3
2
2
0
0
0
0
0
0
0
0
0
0
0
0
0
0
0
0
0
0
0
0
0
0
0
0
3
3
2
2
0
0
0
0
0
0
0
0
0
0
0
0
0
0
0
0
0
0
0
0
0
0
0
0
3
3
2
2
0
0
0
0
0
0
0
0
0
0
0
0
0
0
0
0
0
0
0
0
0
0
0
0
3
3
2
2
2
2
2
2
2
2
2
2
2
2
2
2
2
2
2
2
2
2
2
2
2
2
2
2
3
3
2
2
2
2
2
2
2
2
2
2
2
2
2
2
2
2
2
2
2
2
2
2
2
2
2
2
3
3
3
3
3
3
3
3
3
3
3
3
3
3
3
3
3
3
3
3
3
3
3
3
3
3
3
3
3
3
3
3
3
3
3
3
3
3
3
3
3
3
3
3
3
3
3
3
3
3
3
3
3
3
3
3
</DataArray>
<DataArray NumberOfComponents='1' type='Float32' Name='Velocity' format='ascii'>
0.000000
0.000000
0.000000
0.000000
0.000000
0.000000
0.000000
0.000000
0.000000
0.000000
0.000000
0.000000
0.000000
0.000000
0.000000
0.000000
0.000000
0.000000
0.000000
0.000000
0.000000
0.000000
0.000000
0.000000
0.000000
0.000000
0.000000
0.000000
0.000000
0.000000
0.000000
0.000000
0.000000
0.000000
0.000000
0.000000
0.000000
0.000000
0.000000
0.000000
0.000000
0.000000
0.000000
0.000000
0.000000
0.000000
0.000000
0.000000
0.000000
0.000000
0.000000
0.000000
0.000000
0.000000
0.000000
0.000000
0.000000
0.000000
0.000000
0.000000
0.000000
0.000000
0.000000
0.000000
0.000000
0.000000
0.000000
0.000000
0.000000
0.000000
0.000000
0.000000
0.000000
0.000000
0.000000
0.000000
0.000000
0.000000
0.000000
0.000000
0.000000
0.000000
0.000000
0.000000
0.000000
0.000000
0.000000
0.000000
0.000000
0.000000
0.000000
0.000000
0.000000
0.000000
0.000000
0.000000
0.000000
0.000000
0.000000
0.000000
0.000000
0.000000
0.000000
0.000000
0.000000
0.000000
0.000000
0.000000
0.000000
0.000000
0.000000
0.000000
0.000000
0.000000
0.000000
0.000000
4401.146484
211.382004
71.720543
65.873611
0.586010
95356864.000000
114.465401
95.933548
69.023972
525.284119
2974.954102
367.665619
76158.242188
28429.541016
148.726883
901.529053
169.245392
1788.647705
167.693451
1675.752930
1005.735657
1089.273926
2536.293457
83049576.000000
1.000000
1.000000
1.000000
0.000000
0.000000
0.000000
0.000000
136.591156
130.388046
1853.553467
101.770454
5235.662598
43.066422
70.807640
63.773949
47323.539062
49283.550781
127.600243
153.613281
301.796356
3767.476318
23500.085938
1095.263550
148.634933
433.587402
2117.597900
488.890167
1537.076904
28240.554688
1152.667969
2972.035400
1.000000
1.000000
1.000000
0.000000
0.000000
0.000000
0.000000
131.255890
35737.621094
38.986111
4425.495117
89.680244
290.573090
241.281281
5297.015137
1010.759705
645.652527
241.225906
1881.135010
907.897217
1562.175171
952.543701
33.381367
5672.659668
1.747771
457.924500
150.392319
6866.543945
367.297180
9610.152344
2171.359375
1.000000
1.000000
1.000000
0.000000
0.000000
0.000000
0.000000
4556.876953
164219952.000000
1580.937866
135656.203125
10448.518555
133.663986
227129.031250
175.653168
49.534668
124.022301
85.999260
3279.666260
321.285614
367.756012
235.934860
275.918884
0.885573
434.099792
129.126892
365.087738
0.575252
265.075104
3320.430420
41519.234375
1.000000
1.000000
1.000000
0.000000
0.000000
0.000000
0.000000
1028.250000
3410.160889
2796.021484
906.984192
71.004440
250.714035
1508.871460
141.446884
81647.453125
1772.282471
887.307068
12657.955078
35.494415
470.805115
651.057373
1093.451172
10192.935547
2078.639648
172.856430
416.141998
196.246979
4303.687988
998466.625000
324624.781250
1.000000
1.000000
1.000000
0.000000
0.000000
0.000000
0.000000
50.312992
2240.229248
70.947502
297.377563
7866.749512
1.718441
464.786255
41.600533
311.335449
6514.494141
869.826538
99.351425
183.733200
42874.484375
12942.642578
270.034058
339.825409
7001.734375
13420.422852
9315.283203
12991.097656
558.903198
5252.330566
2126.235840
1.000000
1.000000
1.000000
0.000000
0.000000
0.000000
0.000000
623.043213
6834.754395
62.175968
107050.992188
1218.433472
337.797272
261.936523
439.206848
2641.854980
1696.190918
31802.392578
5007.674805
5386.223633
8406.691406
3478.306396
805.235962
17938.181641
6927.405273
37641568.000000
1239.960327
12991.691406
1129.936890
929.333069
4005.442139
1.000000
1.000000
1.000000
0.000000
0.000000
0.000000
0.000000
992.973022
2531.603271
1055.466187
938.766907
2521.846924
117.326859
27921.136719
287566.156250
1584.285156
1610.959961
98.671249
127.447403
320.888794
24645172.000000
1351.415771
15051.662109
1065.890015
1787.687012
1779.872681
4261.518066
17893.666016
2291.424072
1940.503174
2322.673584
1.000000
1.000000
1.000000
0.000000
0.000000
0.000000
0.000000
53.156315
10989698.000000
2051.363281
81.730438
772.443420
193.677368
20260.880859
485.062073
2113.247314
367.336975
6044.643066
390.945190
8532.593750
1277.771973
154.445435
0.806335
174152.843750
201.620346
264.166412
68543.257812
1490.438965
26142.603516
94.107491
191028.375000
1.000000
1.000000
1.000000
0.000000
0.000000
0.000000
0.000000
43348.949219
294.716309
129.137299
8021.461914
16063.668945
668.312744
1159.400269
12930.038086
190196.296875
587.368408
163.770645
941.909668
1673.777710
201.418915
92.336105
118.603119
266763.218750
157.172989
351.410919
289706.187500
496.688080
1081.057373
95400.984375
95085.890625
1.000000
1.000000
1.000000
0.000000
0.000000
0.000000
0.000000
608.847351
132.965683
1758.459473
37.947262
1789.049072
155.494049
92.157593
160.455612
245.908356
163.714157
858.563904
2963.532471
2021.207153
669.677490
304234.031250
60897.402344
109189544.000000
856.022766
43347.992188
5690.930176
126.219650
9136.491211
3866.522461
3981.477295
1.000000
1.000000
1.000000
0.000000
0.000000
0.000000
0.000000
292.140076
1010911488.000000
272.493805
313831.718750
43311.796875
41954936.000000
8093.130859
9932.386719
329.270782
406.477600
1308.406128
11015329.000000
862.882385
7859819520.000000
29.619957
57765.031250
117242.046875
1863.498901
619.302612
51.978077
7545.478027
6939.777832
161842336.000000
7707.960938
1.000000
1.000000
1.000000
0.000000
0.000000
0.000000
0.000000
818.510559
298.348602
101.170731
89.722435
105.603683
10577.953125
167.615234
163.512238
139.668259
2430.948486
6692.493652
1622.660522
346.964294
59.114101
2804.464844
380.093811
340.091492
69.721725
428.113495
1686.054077
705.968994
71.741081
39987.761719
4008.768066
1.000000
1.000000
1.000000
0.000000
0.000000
0.000000
0.000000
83.417908
1914.623901
184.469360
32.629860
238.149521
333.983795
2332.083496
7075.318848
854.850586
1093.577637
20028.503906
73.884102
402.350739
252.056366
246.735397
9487.530273
49153.617188
265.074799
90296.828125
275.681396
6454.312012
1103.629639
5125.615234
998081.687500
1.000000
1.000000
1.000000
0.000000
0.000000
0.000000
0.000000
118.448463
81898.593750
123.514832
0.985015
142.275192
594.985718
106.976974
2076.472168
41956152.000000
82.742493
885.399109
1017.443542
339448.062500
24146.203125
483.528198
710.829529
1162.493286
222.254425
1296.169556
51.553658
1559.014648
82941672.000000
956.170471
15229.241211
1.000000
1.000000
1.000000
0.000000
0.000000
0.000000
0.000000
1401.970581
44920.695312
320.621979
285.125610
477.708069
909.402649
141.745575
1768.372681
215.497940
2586.440430
17709.212891
449.354675
2946.436279
695.368958
225.927200
48621.324219
95.825111
12590.290039
3795.643066
1773.493164
126.706253
1777.988159
1130.686646
15809.708008
1.000000
1.000000
1.000000
0.000000
0.000000
0.000000
0.000000
240.947723
1067.261963
198.522324
514.210815
23249.574219
79.394783
1826.191895
2047.936523
4755.492188
126.120918
612.832642
4968.311035
3887.401611
181.602829
276.793335
131.543808
361.872681
385.104034
159659.765625
191.054871
5988.015137
70.910713
101.697670
4415.023926
0.000000
0.000000
0.000000
0.000000
59.453197
39281.589844
2573.337158
152.913208
2678.169189
4871.099121
2317.526611
10128.697266
2524.748779
21142.919922
6729.222168
7730.233398
194.197525
98441824.000000
1943.029419
495978.718750
6310.359375
25976.509766
419.417450
553.089417
96046.179688
27242.650391
146.440475
1062.302856
0.000000
0.000000
0.000000
0.000000
1952.686157
698.466370
133.273575
376.918427
297.281921
5027.621094
121.166985
62.640064
170.046875
7906.454590
1055.279419
3710.567627
98599.773438
233.234802
129.941422
159.478561
287.282471
529.049500
4829300.500000
19885750.000000
1419.924561
2171.097656
608.890259
15961.974609
0.000000
0.000000
0.000000
0.000000
53.147514
1297.923218
471.758575
3207.312988
3089.629639
260.987488
13265.609375
468.337921
123.956558
288258.031250
47.930065
1296.236572
525.627991
43177.582031
900.765564
1070.335938
1930363.250000
14036.024414
197.155197
52.114082
2958.340332
695.375793
1278.086304
4774220.000000
0.000000
0.000000
0.000000
0.000000
1512.834961
1346.300415
160.250000
4118.793945
43065.179688
604.227295
407.030670
351.784882
684.823608
301.927887
1742.225708
269.766754
585.370422
166.417618
118.177986
101.374969
5530499.500000
210.481720
1231.110840
349.776581
4797.702637
2164.489014
1835.195312
2571.434570
0.000000
0.000000
0.000000
0.000000
126.260941
730.598572
55.214878
1666460.000000
23588.007812
279.525757
62.541565
71.850929
1928.097900
6808.759277
203547328.000000
136.902817
2088.249512
814.459412
275.666382
115.013481
735.648193
200.431915
186.879318
327.744232
1228.464478
307293.531250
345.092010
1176.514526
0.000000
0.000000
0.000000
0.000000
416.740326
1507.873657
264.722443
1455.707275
122.236420
2293.401367
467.156677
39930.308594
95.509483
30677.167969
1210.391113
225.160812
3375.169434
62.213409
3205.728271
102359.640625
1631.802612
152.445969
3961.552734
251.743591
38518.195312
119.746178
709.685730
2748.509277
0.000000
0.000000
0.000000
0.000000
67.912987
0.691503
9624.403320
367294.187500
352.123535
208.875671
57535692.000000
21696.642578
795.533752
889.091309
6319.509766
1935943.625000
140.227249
99.545891
1905.050659
987.057556
1159.582031
1434.100464
4917.749023
1235.734497
203547792.000000
40052.703125
4401.812500
9517.407227
0.000000
0.000000
0.000000
0.000000
60.684334
420902.468750
286.799225
5.207151
139928.578125
84.384193
15248.876953
1195.211548
371.740479
335.714813
795.532349
2211.963135
17536.003906
28250.308594
1568.912598
188.613388
256.402954
308.986450
1241.375122
1.307404
15372175.000000
92.677696
416.851898
1096.145020
0.000000
0.000000
0.000000
0.000000
619.629822
46.834091
3190.032227
903.075989
2151.261475
294.274628
709960.875000
350.514130
446.782227
9597.112305
674.564026
127.065376
42.231178
48.062614
442.035278
3.300245
1017.090881
851.379944
3603.617432
300.520630
3788.741699
12455.858398
5500.623047
4545.187012
0.000000
0.000000
0.000000
0.000000
1067.444702
163.815460
10160.042969
24003.634766
3.321479
79958.921875
81155.101562
140150.453125
2077.926025
91.765877
106.900246
327.582428
1349.337036
1.818623
882.075317
616.639648
68.491905
58.362598
937.514221
1072.416016
2232.899658
993.394043
156.864410
1799.651978
0.000000
0.000000
0.000000
0.000000
16076.166992
69402.578125
860.454468
102.288025
205149.765625
798.662903
163.218582
4412.478027
1244.901367
87.908165
24622.792969
22168.939453
257.213776
10534.059570
369.231445
287.191132
1438.049194
2015.245605
539.909668
27196.580078
235.009140
6550.595703
86.939026
8849.881836
0.000000
0.000000
0.000000
0.000000
16157.327148
112181.328125
699.830139
1522.508057
124.737099
94768.734375
304.439819
3327.203369
3160.366943
478.358307
452.434998
219.085052
1062.746460
4889.994141
12373.280273
82307.070312
81594.234375
25816.574219
578.553345
963.966431
163329.265625
107688.375000
1085.794189
2122.807861
0.000000
0.000000
0.000000
0.000000
475.386871
75.544121
67.040138
83.553009
107776.656250
3959.647461
1708.575073
336.579376
703.350891
663460.062500
2241.140381
1526.916870
1064.535400
23744.474609
50.954067
152.271454
102.920731
108.610306
960.820007
228.282349
225.441696
2353.680664
370.319092
2052.415527
0.000000
0.000000
0.000000
0.000000
12854.764648
61.409271
786193.125000
728.176086
259.631500
307.297882
369.977051
1898.105103
7.571912
22492.867188
29818181648384.000000
496.939178
620.051941
804.957275
173.413681
812.393494
301.180359
139.839706
295.962280
64.415894
714.650574
32273.300781
7108.879395
6861.666504
0.000000
0.000000
0.000000
0.000000
2028.463867
11138.445312
1780.624390
153.820129
1588.987183
4642.436035
333.440613
12982.352539
19754.939453
344.155457
3009.757324
49007.941406
874.248352
250.149506
6126.149902
612.876953
1223.330566
542.690369
81.815926
3513.560059
90958.132812
377.718201
1723.669800
20954.699219
0.000000
0.000000
0.000000
0.000000
81.408417
68.663010
3366.516602
206.929825
19579.326172
1999.969238
801.597412
480.111511
550.240234
123.627472
46.293385
70.134583
109.194954
1251777920.000000
3622.611572
155.059784
238.449265
203.925842
129.212540
39097.679688
276.678009
5787.451172
22679.533203
5686.106934
0.000000
0.000000
0.000000
0.000000
109266000.000000
4917.509766
1116.399048
92.320061
398.065094
1107.798096
0.248048
95356440.000000
1634.552246
16805.921875
1747.717896
145.212463
24.176825
82.940575
24338.183594
248.056076
3994.042236
831.534729
1146.780273
161.398514
302.339691
2317.754395
11944.700195
5083.727051
0.000000
0.000000
0.000000
0.000000
128181.062500
3.359568
215609.859375
536.356567
122.336555
8.827044
152.037796
386.374847
547.955505
13220.775391
46276.207031
185422.375000
1104.002441
29612.666016
1146.796021
2676.443848
6082527.000000
242.900650
578.525513
47.493694
14900.021484
372.685089
2859.570068
23664962.000000
0.000000
0.000000
0.000000
0.000000
190375.000000
103.323769
551.180481
226.699646
22319.691406
3954.915039
9132.236328
117335.429688
1647.149658
545.797180
73.137062
685.852051
36312.187500
160.724182
43.627571
169.563583
202056.750000
4898.510254
1320.552979
118.746193
1744.734497
450.632202
710.993896
3154.093018
0.000000
0.000000
0.000000
0.000000
67.549454
1.613452
19159504.000000
963.577209
130.495621
501.282623
353.600372
2869.928955
365.998932
15208.024414
345.101471
294.914185
2974.722412
284.488861
411.448456
113043.062500
1573.734985
3447.334229
2708.999268
3052.714111
903.273621
758.367981
39002.476562
11095.385742
0.000000
0.000000
0.000000
0.000000
57.954212
400.784912
486.115692
8088.148438
693.885620
831.903564
2774.889893
170.026932
15408.279297
128.898178
1795.982910
281.892426
113.456497
77766.070312
1174.372314
2778.068848
651.724121
306.623291
3431.959961
1632.997559
532.474854
174258.562500
450.251862
79955.398438
0.000000
0.000000
0.000000
0.000000
33.454189
121.656944
115.568695
810.280273
102.230766
206.071625
76.641068
45.204361
15372272.000000
124.562302
80961.039062
448975.000000
1671.831177
155.398788
286.133179
98099.492188
2749.579346
944355.062500
362.949860
127.780762
21628.023438
68.369255
134.624725
4928.935547
0.000000
0.000000
0.000000
0.000000
83570.054688
171.473602
2606.079590
2178.456055
1035.742554
173769.406250
75.595261
644.685181
587.579712
58.874981
208.467529
481.286438
2.242892
3997.180420
3392.726807
587638.875000
258.485779
310.802551
217.631805
793.242310
695.600891
111.535301
205.641617
960.001892
0.000000
0.000000
0.000000
0.000000
109.180588
105.187782
172.956345
319320.937500
2214.487305
3.478466
219.596191
3348.979004
571.270386
6086.227539
27423.615234
21588.720703
39.713539
429.304779
8697.563477
170.359100
29.283636
128166.570312
17504.341797
4533.545898
7180.246582
196820.406250
144.869461
8062.258789
0.000000
0.000000
0.000000
0.000000
336.034088
2884.273193
400.541687
91.852936
10511.005859
2768.913330
3429.541016
8100.899902
68835.500000
168.236710
215246224.000000
4244.300293
873.404297
227.371979
99.862091
488973.312500
36.728645
112331.828125
2133.496826
116.198044
2610.420166
2110.396484
88.593277
1164.840942