<?xml version='1.0' encoding='UTF-8'?>
<VTKFile xmlns='VTK' byte_order='LittleEndian' version='0.1' type='UnstructuredGrid'>
<UnstructuredGrid>
<Piece NumberOfCells='2512' NumberOfPoints='2512'>
<Points>
<DataArray NumberOfComponents='3' type='Float32' Name='Position' format='ascii'>
-0.075000 -0.075000 0.000000
-0.075000 -0.050000 0.000000
-0.075000 -0.025000 0.000000
-0.075000 0.000000 0.000000
-0.075000 0.025000 0.000000
-0.075000 0.050000 0.000000
-0.075000 0.075000 0.000000
-0.075000 0.100000 0.000000
-0.075000 0.125000 0.000000
-0.075000 0.150000 0.000000
-0.075000 0.175000 0.000000
-0.075000 0.200000 0.000000
-0.075000 0.225000 0.000000
-0.075000 0.250000 0.000000
-0.075000 0.275000 0.000000
-0.075000 0.300000 0.000000
-0.075000 0.325000 0.000000
-0.075000 0.350000 0.000000
-0.075000 0.375000 0.000000
-0.075000 0.400000 0.000000
-0.075000 0.425000 0.000000
-0.075000 0.450000 0.000000
-0.075000 0.475000 0.000000
-0.075000 0.500000 0.000000
-0.075000 0.525000 0.000000
-0.075000 0.550000 0.000000
-0.075000 0.575000 0.000000
-0.075000 0.600000 0.000000
-0.050000 -0.075000 0.000000
-0.050000 -0.050000 0.000000
-0.050000 -0.025000 0.000000
-0.050000 0.000000 0.000000
-0.050000 0.025000 0.000000
-0.050000 0.050000 0.000000
-0.050000 0.075000 0.000000
-0.050000 0.100000 0.000000
-0.050000 0.125000 0.000000
-0.050000 0.150000 0.000000
-0.050000 0.175000 0.000000
-0.050000 0.200000 0.000000
-0.050000 0.225000 0.000000
-0.050000 0.250000 0.000000
-0.050000 0.275000 0.000000
-0.050000 0.300000 0.000000
-0.050000 0.325000 0.000000
-0.050000 0.350000 0.000000
-0.050000 0.375000 0.000000
-0.050000 0.400000 0.000000
-0.050000 0.425000 0.000000
-0.050000 0.450000 0.000000
-0.050000 0.475000 0.000000
-0.050000 0.500000 0.000000
-0.050000 0.525000 0.000000
-0.050000 0.550000 0.000000
-0.050000 0.575000 0.000000
-0.050000 0.600000 0.000000
-0.025000 -0.075000 0.000000
-0.025000 -0.050000 0.000000
-0.025000 -0.025000 0.000000
-0.025000 0.000000 0.000000
-0.025000 0.025000 0.000000
-0.025000 0.050000 0.000000
-0.025000 0.075000 0.000000
-0.025000 0.100000 0.000000
-0.025000 0.125000 0.000000
-0.025000 0.150000 0.000000
-0.025000 0.175000 0.000000
-0.025000 0.200000 0.000000
-0.025000 0.225000 0.000000
-0.025000 0.250000 0.000000
-0.025000 0.275000 0.000000
-0.025000 0.300000 0.000000
-0.025000 0.325000 0.000000
-0.025000 0.350000 0.000000
-0.025000 0.375000 0.000000
-0.025000 0.400000 0.000000
-0.025000 0.425000 0.000000
-0.025000 0.450000 0.000000
-0.025000 0.475000 0.000000
-0.025000 0.500000 0.000000
-0.025000 0.525000 0.000000
-0.025000 0.550000 0.000000
-0.025000 0.575000 0.000000
-0.025000 0.600000 0.000000
0.000000 -0.075000 0.000000
0.000000 -0.050000 0.000000
0.000000 -0.025000 0.000000
0.000000 0.000000 0.000000
0.000000 0.025000 0.000000
0.000000 0.050000 0.000000
0.000000 0.075000 0.000000
0.000000 0.100000 0.000000
0.000000 0.125000 0.000000
0.000000 0.150000 0.000000
0.000000 0.175000 0.000000
0.000000 0.200000 0.000000
0.000000 0.225000 0.000000
0.000000 0.250000 0.000000
0.000000 0.275000 0.000000
0.000000 0.300000 0.000000
0.000000 0.325000 0.000000
0.000000 0.350000 0.000000
0.000000 0.375000 0.000000
0.000000 0.400000 0.000000
0.000000 0.425000 0.000000
0.000000 0.450000 0.000000
0.000000 0.475000 0.000000
0.000000 0.500000 0.000000
0.000000 0.525000 0.000000
0.000000 0.550000 0.000000
0.000000 0.575000 0.000000
0.000000 0.600000 0.000000
0.025000 -0.075000 0.000000
0.025000 -0.050000 0.000000
0.025000 -0.025000 0.000000
0.025000 0.000000 0.000000
0.024917 0.024773 0.000000
0.025436 0.049788 0.000000
0.023880 0.074132 0.000000
0.027539 0.098798 0.000000
0.023943 0.123313 0.000000
0.025376 0.150355 0.000000
0.024843 0.177448 0.000000
0.024257 0.203760 0.000000
0.025789 0.227009 0.000000
0.024901 0.252512 0.000000
0.025024 0.276401 0.000000
0.025267 0.301724 0.000000
0.024316 0.327487 0.000000
0.025344 0.353085 0.000000
0.024146 0.380089 0.000000
0.024638 0.406778 0.000000
0.023057 0.436003 0.000000
0.024003 0.464834 0.000000
0.023035 0.492385 0.000000
0.021572 0.528075 0.000000
0.026121 0.572463 0.000000
0.035150 0.600000 0.000000
0.065910 0.600000 0.000000
0.021706 0.600000 0.000000
0.625000 0.625000 0.000000
0.625000 0.650000 0.000000
0.625000 0.675000 0.000000
0.050000 -0.075000 0.000000
0.050000 -0.050000 0.000000
0.050000 -0.025000 0.000000
0.050000 0.000000 0.000000
0.050748 0.024224 0.000000
0.051288 0.048612 0.000000
0.050024 0.074264 0.000000
0.047854 0.107145 0.000000
0.045373 0.138710 0.000000
0.046435 0.165981 0.000000
0.049070 0.192474 0.000000
0.052865 0.216364 0.000000
0.050071 0.240849 0.000000
0.050842 0.265422 0.000000
0.049371 0.290869 0.000000
0.047282 0.318135 0.000000
0.051213 0.344777 0.000000
0.045253 0.368426 0.000000
0.048416 0.397816 0.000000
0.045123 0.421499 0.000000
0.044997 0.450519 0.000000
0.050108 0.475067 0.000000
0.044554 0.498070 0.000000
0.043946 0.520667 0.000000
0.030721 0.552260 0.000000
0.056039 0.584856 0.000000
0.073626 0.555357 0.000000
0.080722 0.600000 0.000000
0.650000 0.625000 0.000000
0.650000 0.650000 0.000000
0.650000 0.675000 0.000000
0.075000 -0.075000 0.000000
0.075000 -0.050000 0.000000
0.075000 -0.025000 0.000000
0.075000 0.000000 0.000000
0.087501 0.022163 0.000000
0.071634 0.038162 0.000000
0.069832 0.074235 0.000000
0.071651 0.100283 0.000000
0.068453 0.122660 0.000000
0.072058 0.152125 0.000000
0.071821 0.174892 0.000000
0.075460 0.203360 0.000000
0.076261 0.228419 0.000000
0.074996 0.256650 0.000000
0.075478 0.281334 0.000000
0.071138 0.306950 0.000000
0.072401 0.331875 0.000000
0.074138 0.359020 0.000000
0.069353 0.385098 0.000000
0.074202 0.409617 0.000000
0.068266 0.433825 0.000000
0.069338 0.459236 0.000000
0.079660 0.484072 0.000000
0.074746 0.503665 0.000000
0.066534 0.529041 0.000000
0.053935 0.550235 0.000000
0.094944 0.568588 0.000000
0.099042 0.600000 0.000000
0.675000 0.625000 0.000000
0.675000 0.650000 0.000000
0.675000 0.675000 0.000000
0.100000 -0.075000 0.000000
0.100000 -0.050000 0.000000
0.100000 -0.025000 0.000000
0.100000 0.000000 0.000000
0.113588 0.026115 0.000000
0.091988 0.063432 0.000000
0.098990 0.089068 0.000000
0.097547 0.110665 0.000000
0.089516 0.136973 0.000000
0.100283 0.157610 0.000000
0.093688 0.184931 0.000000
0.101734 0.207642 0.000000
0.098534 0.235720 0.000000
0.098151 0.263127 0.000000
0.097553 0.291201 0.000000
0.096833 0.317125 0.000000
0.097977 0.341110 0.000000
0.095907 0.367273 0.000000
0.096264 0.390204 0.000000
0.098471 0.417377 0.000000
0.093286 0.441364 0.000000
0.099661 0.467844 0.000000
0.106339 0.490819 0.000000
0.098689 0.514695 0.000000
0.091705 0.539681 0.000000
0.113257 0.551265 0.000000
0.123411 0.570224 0.000000
0.115137 0.600000 0.000000
0.700000 0.625000 0.000000
0.700000 0.650000 0.000000
0.700000 0.675000 0.000000
0.125000 -0.075000 0.000000
0.125000 -0.050000 0.000000
0.125000 -0.025000 0.000000
0.125000 0.000000 0.000000
0.137494 0.025979 0.000000
0.105759 0.048879 0.000000
0.121530 0.074175 0.000000
0.126543 0.099417 0.000000
0.118949 0.123200 0.000000
0.122658 0.152298 0.000000
0.122791 0.173849 0.000000
0.123398 0.200541 0.000000
0.126462 0.224542 0.000000
0.118014 0.249609 0.000000
0.124280 0.276566 0.000000
0.118789 0.305719 0.000000
0.124930 0.326129 0.000000
0.119671 0.358696 0.000000
0.129059 0.377027 0.000000
0.116400 0.405512 0.000000
0.133117 0.423660 0.000000
0.113605 0.448744 0.000000
0.131130 0.470904 0.000000
0.122003 0.518033 0.000000
0.135890 0.540703 0.000000
0.149086 0.561211 0.000000
0.161141 0.584619 0.000000
0.133518 0.600000 0.000000
0.725000 0.625000 0.000000
0.725000 0.650000 0.000000
0.725000 0.675000 0.000000
0.150000 -0.075000 0.000000
0.150000 -0.050000 0.000000
0.150000 -0.025000 0.000000
0.150000 0.000000 0.000000
0.160896 0.024134 0.000000
0.132835 0.052174 0.000000
0.146210 0.081399 0.000000
0.151052 0.104938 0.000000
0.140000 0.132175 0.000000
0.152892 0.151668 0.000000
0.145783 0.182245 0.000000
0.150086 0.207012 0.000000
0.146102 0.236460 0.000000
0.145800 0.262253 0.000000
0.142022 0.287735 0.000000
0.153497 0.308456 0.000000
0.140335 0.341423 0.000000
0.155604 0.357703 0.000000
0.142837 0.392879 0.000000
0.156589 0.420208 0.000000
0.142020 0.444873 0.000000
0.152532 0.467099 0.000000
0.130284 0.498891 0.000000
0.154790 0.492257 0.000000
0.155579 0.516389 0.000000
0.159845 0.542364 0.000000
0.177938 0.600000 0.000000
0.148999 0.600000 0.000000
0.750000 0.625000 0.000000
0.750000 0.650000 0.000000
0.750000 0.675000 0.000000
0.175000 -0.075000 0.000000
0.175000 -0.050000 0.000000
0.175000 -0.025000 0.000000
0.175000 0.000000 0.000000
0.189492 0.023259 0.000000
0.156750 0.051511 0.000000
0.169238 0.073438 0.000000
0.180399 0.095837 0.000000
0.165681 0.122283 0.000000
0.177960 0.151618 0.000000
0.167606 0.172189 0.000000
0.173359 0.201240 0.000000
0.170995 0.224457 0.000000
0.168349 0.254021 0.000000
0.171594 0.276554 0.000000
0.173435 0.308173 0.000000
0.165723 0.333812 0.000000
0.178755 0.360250 0.000000
0.163157 0.388022 0.000000
0.179358 0.404144 0.000000
0.167231 0.441031 0.000000
0.188622 0.446259 0.000000
0.177447 0.480813 0.000000
0.188499 0.499137 0.000000
0.177837 0.521193 0.000000
0.191395 0.548921 0.000000
0.185405 0.566557 0.000000
0.192108 0.600000 0.000000
0.775000 0.625000 0.000000
0.775000 0.650000 0.000000
0.775000 0.675000 0.000000
0.200000 -0.075000 0.000000
0.200000 -0.050000 0.000000
0.200000 -0.025000 0.000000
0.200000 0.000000 0.000000
0.213984 0.026618 0.000000
0.179667 0.046858 0.000000
0.196622 0.077915 0.000000
0.202390 0.102308 0.000000
0.187867 0.128164 0.000000
0.203723 0.151834 0.000000
0.189998 0.186164 0.000000
0.204877 0.205230 0.000000
0.188280 0.240089 0.000000
0.202315 0.257385 0.000000
0.193236 0.285055 0.000000
0.198061 0.306131 0.000000
0.190451 0.333845 0.000000
0.208377 0.352658 0.000000
0.189341 0.379765 0.000000
0.210541 0.400359 0.000000
0.193805 0.423987 0.000000
0.212386 0.452973 0.000000
0.199552 0.472001 0.000000
0.213094 0.501534 0.000000
0.202104 0.527741 0.000000
0.218940 0.547655 0.000000
[...]
<PointData>
<DataArray NumberOfComponents='1' type='Int32' Name='ParticleType' format='ascii'>
3
3
3
3
3
3
3
3
3
3
3
3
3
3
3
3
3
3
3
3
3
3
3
3
3
3
3
3
3
3
3
3
3
3
3
3
3
3
3
3
3
3
3
3
3
3
3
3
3
3
3
3
3
3
3
3
3
3
2
2
2
2
2
2
2
2
2
2
2
2
2
2
2
2
2
2
2
2
2
2
2
2
2
2
3
3
2
2
2
2
2
2
2
2
2
2
2
2
2
2
2
2
2
2
2
2
2
2
2
2
2
2
3
3
2
2
0
0
0
0
0
0
0
0
0
0
0
0
0
0
0
0
0
0
0
0
0
0
0
0
1
1
1
3
3
2
2
0
0
0
0
0
0
0
0
0
0
0
0
0
0
0
0
0
0
0
0
0
0
0
0
1
1
1
3
3
2
2
0
0
0
0
0
0
0
0
0
0
0
0
0
0
0
0
0
0
0
0
0
0
0
0
1
1
1
3
3
2
2
0
0
0
0
0
0
0
0
0
0
0
0
0
0
0
0
0
0
0
0
0
0
0
0
1
1
1
3
3
2
2
0
0
0
0
0
0
0
0
0
0
0
0
0
0
0
0
0
0
0
0
0
0
0
0
1
1
1
3
3
2
2
0
0
0
0
0
0
0
0
0
0
0
0
0
0
0
0
0
0
0
0
0
0
0
0
1
1
1
3
3
2
2
0
0
0
0
0
0
0
0
0
0
0
0
0
0
0
0
0
0
0
0
0
0
0
0
1
1
1
3
3
2
2
0
0
0
0
0
0
0
0
0
0
0
0
0
0
0
0
0
0
0
0
0
0
0
0
1
1
1
3
3
2
2
0
0
0
0
0
0
0
0
0
0
0
0
0
0
0
0
0
0
0
0
0
0
0
0
1
1
1
3
3
2
2
0
0
0
0
0
0
0
0
0
0
0
0
0
0
0
0
0
0
0
0
0
0
0
0
1
1
1
3
3
2
2
0
0
0
0
0
0
0
0
0
0
0
0
0
0
0
0
0
0
0
0
0
0
0
0
1
1
1
3
3
2
2
0
0
0
0
0
0
0
0
0
0
0
0
0
0
0
0
0
0
0
0
0
0
0
0
1
1
1
3
3
2
2
0
0
0
0
0
0
0
0
0
0
0
0
0
0
0
0
0
0
0
0
0
0
0
0
1
1
1
3
3
2
2
0
0
0
0
0
0
0
0
0
0
0
0
0
0
0
0
0
0
0
0
0
0
0
0
1
1
1
3
3
2
2
0
0
0
0
0
0
0
0
0
0
0
0
0
0
0
0
0
0
0
0
0
0
0
0
1
1
1
3
3
2
2
0
0
0
0
0
0
0
0
0
0
0
0
0
0
0
0
0
0
0
0
0
0
0
0
1
1
1
3
3
2
2
0
0
0
0
0
0
0
0
0
0
0
0
0
0
0
0
0
0
0
0
0
0
0
0
3
3
2
2
0
0
0
0
0
0
0
0
0
0
0
0
0
0
0
0
0
0
0
0
0
0
0
0
3
3
2
2
0
0
0
0
0
0
0
0
0
0
0
0
0
0
0
0
0
0
0
0
0
0
0
0
3
3
2
2
0
0
0
0
0
0
0
0
0
0
0
0
0
0
0
0
0
0
0
0
0
0
0
0
3
3
2
2
0
0
0
0
0
0
0
0
0
0
0
0
0
0
0
0
0
0
0
0
0
0
0
0
3
3
2
2
0
0
0
0
0
0
0
0
0
0
0
0
0
0
0
0
0
0
0
0
0
0
0
0
3
3
2
2
0
0
0
0
0
0
0
0
0
0
0
0
0
0
0
0
0
0
0
0
0
0
0
0
3
3
2
2
0
0
0
0
0
0
0
0
0
0
0
0
0
0
0
0
0
0
0
0
0
0
0
0
3
3
2
2
0
0
0
0
0
0
0
0
0
0
0
0
0
0
0
0
0
0
0
0
0
0
0
0
3
3
2
2
0
0
0
0
0
0
0
0
0
0
0
0
0
0
0
0
0
0
0
0
0
0
0
0
3
3
2
2
0
0
0
0
0
0
0
0
0
0
0
0
0
0
0
0
0
0
0
0
0
0
0
0
3
3
2
2
0
0
0
0
0
0
0
0
0
0
0
0
0
0
0
0
0
0
0
0
0
0
0
0
3
3
2
2
0
0
0
0
0
0
0
0
0
0
0
0
0
0
0
0
0
0
0
0
0
0
0
0
3
3
2
2
0
0
0
0
0
0
0
0
0
0
0
0
0
0
0
0
0
0
0
0
0
0
0
0
3
3
2
2
0
0
0
0
0
0
0
0
0
0
0
0
0
0
0
0
0
0
0
0
0
0
0
0
3
3
2
2
0
0
0
0
0
0
0
0
0
0
0
0
0
0
0
0
0
0
0
0
0
0
0
0
3
3
2
2
0
0
0
0
0
0
0
0
0
0
0
0
0
0
0
0
0
0
0
0
0
0
0
0
3
3
2
2
0
0
0
0
0
0
0
0
0
0
0
0
0
0
0
0
0
0
0
0
0
0
0
0
3
3
2
2
0
0
0
0
0
0
0
0
0
0
0
0
0
0
0
0
0
0
0
0
0
0
0
0
3
3
2
2
0
0
0
0
0
0
0
0
0
0
0
0
0
0
0
0
0
0
0
0
0
0
0
0
3
3
2
2
0
0
0
0
0
0
0
0
0
0
0
0
0
0
0
0
0
0
0
0
0
0
0
0
3
3
2
2
0
0
0
0
0
0
0
0
0
0
0
0
0
0
0
0
0
0
0
0
0
0
0
0
3
3
2
2
0
0
0
0
0
0
0
0
0
0
0
0
0
0
0
0
0
0
0
0
0
0
0
0
3
3
2
2
0
0
0
0
0
0
0
0
0
0
0
0
0
0
0
0
0
0
0
0
0
0
0
0
3
3
2
2
0
0
0
0
0
0
0
0
0
0
0
0
0
0
0
0
0
0
0
0
0
0
0
0
3
3
2
2
0
0
0
0
0
0
0
0
0
0
0
0
0
0
0
0
0
0
0
0
0
0
0
0
3
3
2
2
0
0
0
0
0
0
0
0
0
0
0
0
0
0
0
0
0
0
0
0
0
0
0
0
3
3
2
2
0
0
0
0
0
0
0
0
0
0
0
0
0
0
0
0
0
0
0
0
0
0
0
0
3
3
2
2
0
0
0
0
0
0
0
0
0
0
0
0
0
0
0
0
0
0
0
0
0
0
0
0
3
3
2
2
0
0
0
0
0
0
0
0
0
0
0
0
0
0
0
0
0
0
0
0
0
0
0
0
3
3
2
2
0
0
0
0
0
0
0
0
0
0
0
0
0
0
0
0
0
0
0
0
0
0
0
0
3
3
2
2
0
0
0
0
0
0
0
0
0
0
0
0
0
0
0
0
0
0
0
0
0
0
0
0
3
3
2
2
0
0
0
0
0
0
0
0
0
0
0
0
0
0
0
0
0
0
0
0
0
0
0
0
3
3
2
2
0
0
0
0
0
0
0
0
0
0
0
0
0
0
0
0
0
0
0
0
0
0
0
0
3
3
2
2
0
0
0
0
0
0
0
0
0
0
0
0
0
0
0
0
0
0
0
0
0
0
0
0
3
3
2
2
0
0
0
0
0
0
0
0
0
0
0
0
0
0
0
0
0
0
0
0
0
0
0
0
3
3
2
2
0
0
0
0
0
0
0
0
0
0
0
0
0
0
0
0
0
0
0
0
0
0
0
0
3
3
2
2
0
0
0
0
0
0
0
0
0
0
0
0
0
0
0
0
0
0
0
0
0
0
0
0
3
3
2
2
0
0
0
0
0
0
0
0
0
0
0
0
0
0
0
0
0
0
0
0
0
0
0
0
3
3
2
2
0
0
0
0
0
0
0
0
0
0
0
0
0
0
0
0
0
0
0
0
0
0
0
0
3
3
2
2
0
0
0
0
0
0
0
0
0
0
0
0
0
0
0
0
0
0
0
0
0
0
0
0
3
3
2
2
0
0
0
0
0
0
0
0
0
0
0
0
0
0
0
0
0
0
0
0
0
0
0
0
3
3
2
2
0
0
0
0
0
0
0
0
0
0
0
0
0
0
0
0
0
0
0
0
0
0
0
0
3
3
2
2
0
0
0
0
0
0
0
0
0
0
0
0
0
0
0
0
0
0
0
0
0
0
0
0
3
3
2
2
0
0
0
0
0
0
0
0
0
0
0
0
0
0
0
0
0
0
0
0
0
0
0
0
3
3
2
2
0
0
0
0
0
0
0
0
0
0
0
0
0
0
0
0
0
0
0
0
0
0
0
0
3
3
2
2
0
0
0
0
0
0
0
0
0
0
0
0
0
0
0
0
0
0
0
0
0
0
0
0
3
3
2
2
0
0
0
0
0
0
0
0
0
0
0
0
0
0
0
0
0
0
0
0
0
0
0
0
3
3
2
2
0
0
0
0
0
0
0
0
0
0
0
0
0
0
0
0
0
0
0
0
0
0
0
0
3
3
2
2
0
0
0
0
0
0
0
0
0
0
0
0
0
0
0
0
0
0
0
0
0
0
0
0
3
3
2
2
0
0
0
0
0
0
0
0
0
0
0
0
0
0
0
0
0
0
0
0
0
0
0
0
3
3
2
2
0
0
0
0
0
0
0
0
0
0
0
0
0
0
0
0
0
0
0
0
0
0
0
0
3
3
2
2
0
0
0
0
0
0
0
0
0
0
0
0
0
0
0
0
0
0
0
0
0
0
0
0
3
3
2
2
0
0
0
0
0
0
0
0
0
0
0
0
0
0
0
0
0
0
0
0
0
0
0
0
3
3
2
2
0
0
0
0
0
0
0
0
0
0
0
0
0
0
0
0
0
0
0
0
0
0
0
0
3
3
2
2
0
0
0
0
0
0
0
0
0
0
0
0
0
0
0
0
0
0
0
0
0
0
0
0
3
3
2
2
0
0
0
0
0
0
0
0
0
0
0
0
0
0
0
0
0
0
0
0
0
0
0
0
3
3
2
2
0
0
0
0
0
0
0
0
0
0
0
0
0
0
0
0
0
0
0
0
0
0
0
0
3
3
2
2
0
0
0
0
0
0
0
0
0
0
0
0
0
0
0
0
0
0
0
0
0
0
0
0
3
3
2
2
0
0
0
0
0
0
0
0
0
0
0
0
0
0
0
0
0
0
0
0
0
0
0
0
3
3
2
2
0
0
0
0
0
0
0
0
0
0
0
0
0
0
0
0
0
0
0
0
0
0
0
0
3
3
2
2
0
0
0
0
0
0
0
0
0
0
0
0
0
0
0
0
0
0
0
0
0
0
0
0
3
3
2
2
0
0
0
0
0
0
0
0
0
0
0
0
0
0
0
0
0
0
0
0
0
0
0
0
3
3
2
2
0
0
0
0
0
0
0
0
0
0
0
0
0
0
0
0
0
0
0
0
0
0
0
0
3
3
2
2
2
2
2
2
2
2
2
2
2
2
2
2
2
2
2
2
2
2
2
2
2
2
2
2
3
3
2
2
2
2
2
2
2
2
2
2
2
2
2
2
2
2
2
2
2
2
2
2
2
2
2
2
3
3
3
3
3
3
3
3
3
3
3
3
3
3
3
3
3
3
3
3
3
3
3
3
3
3
3
3
3
3
3
3
3
3
3
3
3
3
3
3
3
3
3
3
3
3
3
3
3
3
3
3
3
3
3
3
</DataArray>
<DataArray NumberOfComponents='1' type='Float32' Name='Velocity' format='ascii'>
0.000000
0.000000
0.000000
0.000000
0.000000
0.000000
0.000000
0.000000
0.000000
0.000000
0.000000
0.000000
0.000000
0.000000
0.000000
0.000000
0.000000
0.000000
0.000000
0.000000
0.000000
0.000000
0.000000
0.000000
0.000000
0.000000
0.000000
0.000000
0.000000
0.000000
0.000000
0.000000
0.000000
0.000000
0.000000
0.000000
0.000000
0.000000
0.000000
0.000000
0.000000
0.000000
0.000000
0.000000
0.000000
0.000000
0.000000
0.000000
0.000000
0.000000
0.000000
0.000000
0.000000
0.000000
0.000000
0.000000
0.000000
0.000000
0.000000
0.000000
0.000000
0.000000
0.000000
0.000000
0.000000
0.000000
0.000000
0.000000
0.000000
0.000000
0.000000
0.000000
0.000000
0.000000
0.000000
0.000000
0.000000
0.000000
0.000000
0.000000
0.000000
0.000000
0.000000
0.000000
0.000000
0.000000
0.000000
0.000000
0.000000
0.000000
0.000000
0.000000
0.000000
0.000000
0.000000
0.000000
0.000000
0.000000
0.000000
0.000000
0.000000
0.000000
0.000000
0.000000
0.000000
0.000000
0.000000
0.000000
0.000000
0.000000
0.000000
0.000000
0.000000
0.000000
0.000000
0.000000
0.034155
0.058535
0.097980
0.100344
0.202131
0.066915
0.066820
0.095101
0.084300
0.048030
0.122878
0.064604
0.145147
0.032499
0.084303
0.080297
0.039144
0.054716
0.135502
0.177934
0.513139
1.150084
6.342106
3.395995
1.000000
1.000000
1.000000
0.000000
0.000000
0.000000
0.000000
0.114811
0.198621
0.201026
0.138419
0.010821
0.110053
0.034725
0.141780
0.123096
0.037031
0.139981
0.059415
0.157845
0.154303
0.176014
0.156577
0.167656
0.216579
0.135448
0.139727
0.303906
0.138480
0.310264
2.186079
1.000000
1.000000
1.000000
0.000000
0.000000
0.000000
0.000000
0.075407
0.116961
0.024747
0.087826
0.014772
0.313314
0.153557
0.170848
0.116742
0.115595
0.179563
0.161832
0.171009
0.200717
0.080491
0.122393
0.198317
0.154264
0.203682
0.175852
0.131457
0.276834
0.452403
0.374857
1.000000
1.000000
1.000000
0.000000
0.000000
0.000000
0.000000
0.190196
0.114006
0.209598
0.089092
0.204353
0.065679
0.074846
0.059276
0.073992
0.124036
0.023631
0.129365
0.054267
0.043959
0.101035
0.020832
0.049195
0.070302
0.022959
0.165579
0.110857
0.355683
0.568800
2.833021
1.000000
1.000000
1.000000
0.000000
0.000000
0.000000
0.000000
0.130316
0.040601
0.032326
0.072946
0.118797
0.211143
0.149201
0.120421
0.037078
0.148644
0.127333
0.133788
0.108329
0.087746
0.055275
0.061297
0.040655
0.148697
0.139122
0.292363
0.210879
0.375212
0.232637
2.320404
1.000000
1.000000
1.000000
0.000000
0.000000
0.000000
0.000000
0.117812
0.146299
0.153666
0.026430
0.092774
0.044729
0.184708
0.061267
0.025827
0.103910
0.033892
0.112951
0.039937
0.123057
0.159523
0.240470
0.132201
0.172279
0.320095
0.153820
0.173695
0.165920
1.598041
4.375207
1.000000
1.000000
1.000000
0.000000
0.000000
0.000000
0.000000
0.091188
0.156915
0.061747
0.062014
0.032351
0.088672
0.072796
0.159036
0.123203
0.291649
0.092048
0.114913
0.143936
0.106180
0.145185
0.041006
0.153960
0.067714
0.155643
0.136132
0.096539
0.226319
0.168260
1.559980
1.000000
1.000000
1.000000
0.000000
0.000000
0.000000
0.000000
0.127100
0.142504
0.130841
0.141479
0.071945
0.049083
0.115146
0.092978
0.127941
0.047978
0.126706
0.057122
0.218430
0.066597
0.232586
0.126689
0.088879
0.052695
0.238240
0.173314
0.156209
0.069573
0.298416
2.886515
1.000000
1.000000
1.000000
0.000000
0.000000
0.000000
0.000000
0.073763
0.231820
0.084572
0.072869
0.114975
0.050895
0.141239
0.102583
0.156531
0.038075
0.036810
0.157461
0.130452
0.087076
0.025435
0.061601
0.187622
0.193510
0.138769
0.011706
0.169958
0.156906
0.101896
1.637326
1.000000
1.000000
1.000000
0.000000
0.000000
0.000000
0.000000
0.101415
0.131060
0.111073
0.081778
0.045784
0.065510
0.062989
0.048251
0.120589
0.071215
0.075872
0.019699
0.056921
0.072673
0.110927
0.033117
0.134090
0.137532
0.202578
0.027366
0.114758
0.153751
0.040133
2.245905
1.000000
1.000000
1.000000
0.000000
0.000000
0.000000
0.000000
0.049869
0.107608
0.079079
0.054316
0.166038
0.050333
0.106534
0.059303
0.077784
0.044607
0.083393
0.088868
0.146725
0.094167
0.099543
0.029234
0.166601
0.023349
0.076674
0.060201
0.127554
0.044235
0.240379
0.701937
1.000000
1.000000
1.000000
0.000000
0.000000
0.000000
0.000000
0.093232
0.197667
0.069237
0.020565
0.053786
0.097841
0.040111
0.030669
0.086440
0.061819
0.050178
0.088177
0.034448
0.075096
0.030638
0.068612
0.062271
0.082677
0.148236
0.088993
0.053748
0.032107
0.402669
1.180204
1.000000
1.000000
1.000000
0.000000
0.000000
0.000000
0.000000
0.064267
0.057710
0.124557
0.141570
0.082010
0.045619
0.026874
0.060532
0.051088
0.033323
0.064725
0.061153
0.071685
0.052145
0.119964
0.085466
0.075280
0.038268
0.060622
0.078345
0.042477
0.204895
0.181869
0.329434
1.000000
1.000000
1.000000
0.000000
0.000000
0.000000
0.000000
0.010883
0.244994
0.062023
0.080889
0.117136
0.078267
0.057010
0.072965
0.050659
0.019427
0.058526
0.069998
0.050570
0.049252
0.069526
0.072854
0.069842
0.011360
0.104705
0.109344
0.134862
0.131348
0.168942
0.714664
1.000000
1.000000
1.000000
0.000000
0.000000
0.000000
0.000000
0.026936
0.090851
0.072371
0.028866
0.062529
0.128138
0.081125
0.058193
0.048288
0.074380
0.047669
0.151426
0.062416
0.058892
0.051404
0.131477
0.121758
0.053109
0.019854
0.128591
0.125653
0.248991
0.443158
1.581847
1.000000
1.000000
1.000000
0.000000
0.000000
0.000000
0.000000
0.058358
0.178451
0.053323
0.057137
0.030234
0.075251
0.050821
0.084521
0.058705
0.066903
0.007081
0.054103
0.022695
0.158431
0.048184
0.133886
0.037273
0.142817
0.104184
0.180037
0.089884
0.139278
0.140566
1.184994
1.000000
1.000000
1.000000
0.000000
0.000000
0.000000
0.000000
0.036087
0.143610
0.079538
0.069137
0.044407
0.072815
0.075360
0.093428
0.095428
0.070328
0.136536
0.068184
0.132807
0.186789
0.169688
0.109786
0.190721
0.311812
0.088455
0.183309
0.167312
0.437719
0.300212
1.635163
0.000000
0.000000
0.000000
0.000000
0.099569
0.172073
0.108949
0.040873
0.133505
0.097429
0.069741
0.077251
0.141986
0.068458
0.069218
0.063331
0.032139
0.162604
0.177288
0.100451
0.061316
0.212075
0.067370
0.068713
0.224222
0.472693
0.184753
3.849288
0.000000
0.000000
0.000000
0.000000
0.043393
0.122096
0.123904
0.097620
0.101281
0.054507
0.105026
0.093542
0.082511
0.101817
0.136057
0.141646
0.088945
0.205758
0.004250
0.137167
0.187601
0.102118
0.238722
0.199291
0.051804
0.167723
0.103201
1.495519
0.000000
0.000000
0.000000
0.000000
0.060447
0.137894
0.062129
0.053897
0.069885
0.075132
0.066616
0.061972
0.096958
0.069848
0.054074
0.088040
0.052488
0.026381
0.100045
0.176344
0.044951
0.093242
0.128025
0.120023
0.301131
0.321750
0.431232
9.700610
0.000000
0.000000
0.000000
0.000000
0.032764
0.097773
0.062494
0.066610
0.094385
0.121829
0.019383
0.054257
0.062609
0.149563
0.158807
0.183244
0.070106
0.110917
0.033519
0.076626
0.156023
0.127719
0.153038
0.249413
0.041952
0.046471
0.244908
1.989861
0.000000
0.000000
0.000000
0.000000
0.055043
0.132224
0.043353
0.036713
0.060700
0.028395
0.085014
0.062724
0.096102
0.069878
0.076214
0.045130
0.090599
0.097428
0.052932
0.165988
0.088480
0.221495
0.037042
0.109034
0.047274
0.185483
0.156510
1.785733
0.000000
0.000000
0.000000
0.000000
0.052406
0.092638
0.037734
0.051863
0.063442
0.074533
0.022147
0.068719
0.094739
0.028461
0.072222
0.015022
0.094756
0.069321
0.068452
0.029209
0.063249
0.107093
0.049302
0.076661
0.135482
0.075738
0.333304
1.564486
0.000000
0.000000
0.000000
0.000000
0.050699
0.106528
0.013358
0.040189
0.034493
0.048844
0.073739
0.009378
0.103964
0.025226
0.069053
0.043027
0.085109
0.104649
0.015467
0.063191
0.242990
0.111425
0.126756
0.042050
0.056694
0.046198
0.071919
0.426868
0.000000
0.000000
0.000000
0.000000
0.052653
0.064714
0.061920
0.078956
0.030759
0.056367
0.077606
0.053729
0.088898
0.029971
0.055709
0.041264
0.061028
0.078932
0.061795
0.080834
0.086997
0.036970
0.073815
0.055578
0.092226
0.105281
0.045575
0.255815
0.000000
0.000000
0.000000
0.000000
0.070977
0.058428
0.005719
0.023670
0.047078
0.037325
0.109947
0.016830
0.037596
0.022774
0.067622
0.046437
0.086026
0.053974
0.108804
0.006124
0.042273
0.059631
0.119216
0.160316
0.100340
0.227150
0.106841
0.163240
0.000000
0.000000
0.000000
0.000000
0.064460
0.071778
0.084069
0.084598
0.061374
0.025211
0.064542
0.085932
0.088004
0.045869
0.062249
0.059840
0.060135
0.011983
0.062827
0.051741
0.065492
0.053533
0.087018
0.092204
0.118666
0.059129
0.162304
0.277027
0.000000
0.000000
0.000000
0.000000
0.064558
0.050271
0.011798
0.030320
0.086898
0.013618
0.083657
0.045130
0.033575
0.026731
0.048870
0.053295
0.051307
0.054319
0.040814
0.107908
0.048602
0.099875
0.044429
0.136481
0.041638
0.088894
0.066553
0.971012
0.000000
0.000000
0.000000
0.000000
0.065184
0.090596
0.029061
0.053864
0.065666
0.072900
0.079039
0.077328
0.089335
0.051167
0.051141
0.071075
0.006906
0.037579
0.079395
0.077859
0.061025
0.051398
0.040774
0.031050
0.073792
0.117843
0.193642
1.475827
0.000000
0.000000
0.000000
0.000000
0.052278
0.051664
0.024695
0.052771
0.085603
0.057495
0.111474
0.065226
0.066820
0.038704
0.057774
0.069570
0.018350
0.080260
0.026526
0.100653
0.061105
0.080927
0.063744
0.116527
0.068750
0.084121
0.142045
0.809518
0.000000
0.000000
0.000000
0.000000
0.056498
0.087756
0.009413
0.048141
0.078416
0.070125
0.096129
0.008651
0.071822
0.013958
0.038069
0.044184
0.076065
0.031426
0.074488
0.075429
0.043783
0.063699
0.040192
0.010751
0.015999
0.036566
0.034920
0.968643
0.000000
0.000000
0.000000
0.000000
0.060252
0.017586
0.049437
0.045057
0.089923
0.029878
0.088506
0.034195
0.081012
0.053351
0.067044
0.032695
0.042010
0.041686
0.017277
0.043966
0.068147
0.064750
0.135192
0.195593
0.097576
0.095882
0.020637
0.788987
0.000000
0.000000
0.000000
0.000000
0.042156
0.064421
0.044037
0.042441
0.081236
0.038909
0.084048
0.022925
0.095892
0.018048
0.109078
0.015751
0.096973
0.026466
0.034464
0.027941
0.029250
0.026202
0.012914
0.027805
0.049631
0.028617
0.068349
0.459917
0.000000
0.000000
0.000000
0.000000
0.072959
0.031560
0.077348
0.041574
0.070519
0.027331
0.076075
0.030023
0.076693
0.025534
0.068007
0.027667
0.072176
0.039796
0.020277
0.051379
0.031259
0.135308
0.060005
0.127165
0.069145
0.078303
0.056647
0.270050
0.000000
0.000000
0.000000
0.000000
0.048458
0.043853
0.058934
0.038874
0.089777
0.032859
0.061711
0.031010
0.088831
0.030436
0.078618
0.032126
0.057393
0.050220
0.038646
0.068135
0.067920
0.074746
0.103761
0.083237
0.035450
0.063614
0.048883
0.112181
0.000000
0.000000
0.000000
0.000000
0.072039
0.038862
0.081813
0.034630
0.069340
0.044392
0.068184
0.037781
0.069954
0.022469
0.061204
0.039830
0.050966
0.047440
0.030129
0.052626
0.030058
0.066192
0.055402
0.120536
0.116528
0.091217
0.030128
0.105701
0.000000
0.000000
0.000000
0.000000
0.067803
0.020892
0.067816
0.026169
0.098451
0.050778
0.065739
0.027979
0.075854
0.038564
0.062021
0.028390
0.042376
0.039656
0.027541
0.063724
0.024237
0.054924
0.065055
0.096879
0.093213
0.079760
0.061654
0.182969
0.000000
0.000000
0.000000
0.000000
0.061516
0.035772
0.082892
0.029736
0.075871
0.038422
0.070437
0.051250
0.081595
0.037484
0.073040
0.052835
0.069541
0.050148
0.035786
0.059679
0.029211
0.116679
0.090029
0.140947
0.168997
0.228384
0.044455
0.951626
0.000000
0.000000
0.000000
0.000000
0.085048
0.015829
0.080765
0.014357
0.087112
0.059926
0.079821
0.044944
0.084453
0.052875
0.077021
0.020103
0.043142
0.027862
0.031055
0.073862
0.037351
0.099169
0.118190
0.157806
0.264847
0.233895
0.197858
1.460136
0.000000
0.000000
0.000000
0.000000
0.068298
0.024309
0.084651
0.024894
0.072650
0.049237
0.080121
0.053420
0.095062
0.060100
0.109997
0.049506
0.097298
0.042082
0.064910
0.061288
0.043826
0.106813
0.018082
0.151125
0.153715
0.108567
0.310729
1.822118
0.000000
0.000000
0.000000
0.000000
0.079625
0.025030
0.084570
0.010836
0.059036
0.055820
0.075486
0.062478
0.085897
0.054876
0.078591
0.033595
0.077160
0.020160
0.064040
0.060316
0.052977
0.108275
0.011110
0.135248
0.071943
0.146886
0.197609
2.925460
0.000000
0.000000
0.000000
0.000000
0.053371
0.009140
0.063491
0.013681
0.047450
0.078871
0.086153
0.068111
0.096170
0.072528
0.118377
0.040293
0.099161
0.044558
0.100822
0.067791
0.060725
0.090928
0.040437
0.126821
0.024477
0.105516
0.083219
3.133678
0.000000
0.000000
0.000000
0.000000
0.072234
0.020894
0.067368
0.009879
0.029296
0.064284
0.082098
0.061938
0.090455
0.051945
0.084283
0.040119
0.090396
0.017333
0.079262
0.060453
0.093642
0.118839
0.102740
0.091823
0.024006
0.134932
0.110956
3.092792
0.000000
0.000000
0.000000
0.000000
0.048495
0.008378
0.060493
0.016651
0.009684
0.072954
0.090528
0.075867
0.098268
0.068190
0.120312
0.047575
0.124662
0.043110
0.122755
0.056891
0.095226
0.060930
0.087950
0.111024
0.117691
0.062434
0.029478
3.604263
0.000000
0.000000
0.000000
0.000000
0.057603
0.019745
0.055672
0.019185
0.032816
0.057341
0.077567
0.055375
0.091902
0.044496
0.091606
0.042129
0.092779
0.044098
0.103160
0.059142
0.112098
0.092230
0.148023
0.122576
0.107651
0.135180
0.138708
3.271796
0.000000
0.000000
0.000000
0.000000
0.055255
0.013306
0.049740
0.005898
0.031246
0.058185
0.079542
0.052524
0.079098
0.030765
0.094276
0.016074
0.130162
0.028225
0.122195
0.047840
0.147655
0.110622
0.103470
0.026374
0.199848
0.110145
0.150328
3.938215
0.000000
0.000000
0.000000
0.000000
0.045045
0.022004
0.043182
0.013555
0.061067
0.043660
0.064722
0.049849
0.091997
0.053325
0.113084
0.048360
0.103606
0.042322
0.146950
0.041846
0.159452
0.040134
0.018385
0.056688
0.143503
0.096255
0.257147
3.446575
0.000000
0.000000
0.000000
0.000000
0.063342
0.021278
0.039650
0.022371
0.072596
0.032618
0.064267
0.038320
0.096800
0.020085
0.102826
0.053287
0.145992
0.116117
0.179141
0.148714
0.123235
0.023127
0.029092
0.094757
0.191287
0.120987
0.490491
4.203922
0.000000
0.000000
0.000000
0.000000
0.040823
0.029660
0.028477
0.011729
0.073516
0.038058
0.063075
0.046087
0.095873
0.036084
0.120190
0.029552
0.149130
0.037556
0.171128
0.017488
0.068880
0.081669
0.066031
0.152914
0.265643
0.114730
0.444168
3.875100
0.000000
0.000000
0.000000
0.000000
0.054715
0.030343
0.020956
0.027607
0.084406
0.018214
0.056757
0.025610
0.101369
0.047447
0.129471
0.112840
0.185854
0.150187
0.141958
0.061828
0.110245
0.041944
0.080868
0.072117
0.073704
0.093667
0.378844
5.320004
0.000000
0.000000
0.000000
0.000000
0.047489
0.030801
0.018470
0.019100
0.090722
0.017567
0.039929
0.027483
0.113120
0.019196
0.154216
0.015558
0.177742
0.037250
0.070105
0.084994
0.159053
0.108361
0.106146
0.046042
0.186487
0.024858
0.311746
4.824811
0.000000
0.000000
0.000000
0.000000
0.039358
0.045984
0.015288
0.037983
0.089557
0.027628
0.067458
0.029955
0.121326
0.063385
0.157565
0.097797
0.126988
0.074044
0.110588
0.062477
0.103309
0.091502
0.072119
0.038990
0.173527
0.097051
0.098334
5.820674
0.000000
0.000000
0.000000
0.000000
0.049072
0.039483
0.008608
0.036267
0.080591
0.005614
0.049215
0.025076
0.128567
0.021371
0.153180
0.014166
0.058282
0.053813
0.127373
0.079090
0.084241
0.037410
0.063005
0.077447
0.144526
0.030501
0.335339