<?xml version='1.0' encoding='UTF-8'?>
<VTKFile xmlns='VTK' byte_order='LittleEndian' version='0.1' type='UnstructuredGrid'>
<UnstructuredGrid>
<Piece NumberOfCells='2512' NumberOfPoints='2512'>
<Points>
<DataArray NumberOfComponents='3' type='Float32' Name='Position' format='ascii'>
-0.075000 -0.075000 0.000000
-0.075000 -0.050000 0.000000
-0.075000 -0.025000 0.000000
-0.075000 0.000000 0.000000
-0.075000 0.025000 0.000000
-0.075000 0.050000 0.000000
-0.075000 0.075000 0.000000
-0.075000 0.100000 0.000000
-0.075000 0.125000 0.000000
-0.075000 0.150000 0.000000
-0.075000 0.175000 0.000000
-0.075000 0.200000 0.000000
-0.075000 0.225000 0.000000
-0.075000 0.250000 0.000000
-0.075000 0.275000 0.000000
-0.075000 0.300000 0.000000
-0.075000 0.325000 0.000000
-0.075000 0.350000 0.000000
-0.075000 0.375000 0.000000
-0.075000 0.400000 0.000000
-0.075000 0.425000 0.000000
-0.075000 0.450000 0.000000
-0.075000 0.475000 0.000000
-0.075000 0.500000 0.000000
-0.075000 0.525000 0.000000
-0.075000 0.550000 0.000000
-0.075000 0.575000 0.000000
-0.075000 0.600000 0.000000
-0.050000 -0.075000 0.000000
-0.050000 -0.050000 0.000000
-0.050000 -0.025000 0.000000
-0.050000 0.000000 0.000000
-0.050000 0.025000 0.000000
-0.050000 0.050000 0.000000
-0.050000 0.075000 0.000000
-0.050000 0.100000 0.000000
-0.050000 0.125000 0.000000
-0.050000 0.150000 0.000000
-0.050000 0.175000 0.000000
-0.050000 0.200000 0.000000
-0.050000 0.225000 0.000000
-0.050000 0.250000 0.000000
-0.050000 0.275000 0.000000
-0.050000 0.300000 0.000000
-0.050000 0.325000 0.000000
-0.050000 0.350000 0.000000
-0.050000 0.375000 0.000000
-0.050000 0.400000 0.000000
-0.050000 0.425000 0.000000
-0.050000 0.450000 0.000000
-0.050000 0.475000 0.000000
-0.050000 0.500000 0.000000
-0.050000 0.525000 0.000000
-0.050000 0.550000 0.000000
-0.050000 0.575000 0.000000
-0.050000 0.600000 0.000000
-0.025000 -0.075000 0.000000
-0.025000 -0.050000 0.000000
-0.025000 -0.025000 0.000000
-0.025000 0.000000 0.000000
-0.025000 0.025000 0.000000
-0.025000 0.050000 0.000000
-0.025000 0.075000 0.000000
-0.025000 0.100000 0.000000
-0.025000 0.125000 0.000000
-0.025000 0.150000 0.000000
-0.025000 0.175000 0.000000
-0.025000 0.200000 0.000000
-0.025000 0.225000 0.000000
-0.025000 0.250000 0.000000
-0.025000 0.275000 0.000000
-0.025000 0.300000 0.000000
-0.025000 0.325000 0.000000
-0.025000 0.350000 0.000000
-0.025000 0.375000 0.000000
-0.025000 0.400000 0.000000
-0.025000 0.425000 0.000000
-0.025000 0.450000 0.000000
-0.025000 0.475000 0.000000
-0.025000 0.500000 0.000000
-0.025000 0.525000 0.000000
-0.025000 0.550000 0.000000
-0.025000 0.575000 0.000000
-0.025000 0.600000 0.000000
0.000000 -0.075000 0.000000
0.000000 -0.050000 0.000000
0.000000 -0.025000 0.000000
0.000000 0.000000 0.000000
0.000000 0.025000 0.000000
0.000000 0.050000 0.000000
0.000000 0.075000 0.000000
0.000000 0.100000 0.000000
0.000000 0.125000 0.000000
0.000000 0.150000 0.000000
0.000000 0.175000 0.000000
0.000000 0.200000 0.000000
0.000000 0.225000 0.000000
0.000000 0.250000 0.000000
0.000000 0.275000 0.000000
0.000000 0.300000 0.000000
0.000000 0.325000 0.000000
0.000000 0.350000 0.000000
0.000000 0.375000 0.000000
0.000000 0.400000 0.000000
0.000000 0.425000 0.000000
0.000000 0.450000 0.000000
0.000000 0.475000 0.000000
0.000000 0.500000 0.000000
0.000000 0.525000 0.000000
0.000000 0.550000 0.000000
0.000000 0.575000 0.000000
0.000000 0.600000 0.000000
0.025000 -0.075000 0.000000
0.025000 -0.050000 0.000000
0.025000 -0.025000 0.000000
0.025000 0.000000 0.000000
0.024233 0.026114 0.000000
0.025009 0.051867 0.000000
0.026459 0.074364 0.000000
0.023594 0.100651 0.000000
0.024169 0.130899 0.000000
0.022680 0.162711 0.000000
0.022870 0.191230 0.000000
0.027016 0.218041 0.000000
0.024663 0.242499 0.000000
0.025852 0.266326 0.000000
0.024456 0.290225 0.000000
0.026578 0.314116 0.000000
0.024668 0.338722 0.000000
0.023425 0.365903 0.000000
0.027299 0.389933 0.000000
0.022835 0.416254 0.000000
0.023756 0.448700 0.000000
0.025268 0.473185 0.000000
0.025481 0.498827 0.000000
0.024661 0.524978 0.000000
0.029172 0.574222 0.000000
0.032988 0.600000 0.000000
0.050574 0.600000 0.000000
0.014293 0.600000 0.000000
0.735000 0.625000 0.000000
0.735000 0.650000 0.000000
0.735000 0.675000 0.000000
0.050000 -0.075000 0.000000
0.050000 -0.050000 0.000000
0.050000 -0.025000 0.000000
0.050000 0.000000 0.000000
0.047477 0.025284 0.000000
0.058033 0.049969 0.000000
0.048135 0.069104 0.000000
0.041640 0.112142 0.000000
0.042669 0.146907 0.000000
0.046372 0.175235 0.000000
0.047603 0.198573 0.000000
0.049070 0.227058 0.000000
0.052374 0.253441 0.000000
0.052444 0.276358 0.000000
0.050554 0.302683 0.000000
0.050604 0.330264 0.000000
0.047770 0.353240 0.000000
0.053419 0.375080 0.000000
0.045404 0.404274 0.000000
0.042624 0.432121 0.000000
0.047595 0.462047 0.000000
0.055346 0.487527 0.000000
0.045984 0.510075 0.000000
0.051930 0.533010 0.000000
0.023714 0.550135 0.000000
0.070057 0.575618 0.000000
0.101174 0.576776 0.000000
0.067944 0.600000 0.000000
0.760000 0.625000 0.000000
0.760000 0.650000 0.000000
0.760000 0.675000 0.000000
0.075000 -0.075000 0.000000
0.075000 -0.050000 0.000000
0.075000 -0.025000 0.000000
0.075000 0.000000 0.000000
0.093168 0.025280 0.000000
0.070376 0.025861 0.000000
0.071622 0.081258 0.000000
0.062134 0.102652 0.000000
0.060586 0.131036 0.000000
0.066841 0.158616 0.000000
0.075542 0.181691 0.000000
0.071635 0.204019 0.000000
0.071534 0.235046 0.000000
0.079637 0.258046 0.000000
0.075309 0.284048 0.000000
0.070783 0.314825 0.000000
0.075959 0.346344 0.000000
0.078192 0.370250 0.000000
0.069732 0.397163 0.000000
0.071385 0.420766 0.000000
0.066104 0.443938 0.000000
0.074149 0.468749 0.000000
0.078704 0.492822 0.000000
0.076516 0.525072 0.000000
0.072746 0.553520 0.000000
0.048622 0.557825 0.000000
0.086492 0.600000 0.000000
0.104798 0.600000 0.000000
0.785000 0.625000 0.000000
0.785000 0.650000 0.000000
0.785000 0.675000 0.000000
0.100000 -0.075000 0.000000
0.100000 -0.050000 0.000000
0.100000 -0.025000 0.000000
0.100000 0.000000 0.000000
0.120705 0.024555 0.000000
0.082405 0.060111 0.000000
0.087229 0.098779 0.000000
0.087734 0.123474 0.000000
0.087279 0.146536 0.000000
0.106087 0.159878 0.000000
0.098025 0.187290 0.000000
0.092711 0.219166 0.000000
0.100353 0.240142 0.000000
0.103851 0.272139 0.000000
0.091750 0.299184 0.000000
0.093683 0.325443 0.000000
0.099276 0.351643 0.000000
0.105005 0.375121 0.000000
0.092946 0.399201 0.000000
0.105805 0.422722 0.000000
0.090047 0.439541 0.000000
0.096743 0.475813 0.000000
0.114193 0.490776 0.000000
0.093304 0.513640 0.000000
0.095459 0.540668 0.000000
0.113105 0.550553 0.000000
0.127997 0.573452 0.000000
0.123344 0.600000 0.000000
0.810000 0.625000 0.000000
0.810000 0.650000 0.000000
0.810000 0.675000 0.000000
0.125000 -0.075000 0.000000
0.125000 -0.050000 0.000000
0.125000 -0.025000 0.000000
0.125000 0.000000 0.000000
0.141358 0.026410 0.000000
0.102048 0.047273 0.000000
0.103514 0.079962 0.000000
0.119501 0.105486 0.000000
0.111865 0.127866 0.000000
0.129791 0.148111 0.000000
0.122170 0.177283 0.000000
0.113808 0.203977 0.000000
0.127661 0.230611 0.000000
0.119280 0.253473 0.000000
0.116073 0.289317 0.000000
0.133311 0.311279 0.000000
0.116927 0.325142 0.000000
0.125157 0.359853 0.000000
0.138206 0.382643 0.000000
0.118580 0.397194 0.000000
0.130507 0.419328 0.000000
0.115106 0.446915 0.000000
0.122925 0.464643 0.000000
0.127818 0.534133 0.000000
0.152550 0.547587 0.000000
0.152166 0.566414 0.000000
0.180475 0.582475 0.000000
0.141121 0.600000 0.000000
0.835000 0.625000 0.000000
0.835000 0.650000 0.000000
0.835000 0.675000 0.000000
0.150000 -0.075000 0.000000
0.150000 -0.050000 0.000000
0.150000 -0.025000 0.000000
0.150000 0.000000 0.000000
0.166917 0.026887 0.000000
0.121758 0.058582 0.000000
0.127374 0.079906 0.000000
0.146400 0.097593 0.000000
0.137246 0.123658 0.000000
0.153277 0.153859 0.000000
0.144465 0.178616 0.000000
0.139303 0.208610 0.000000
0.149776 0.230296 0.000000
0.143046 0.264708 0.000000
0.141128 0.287341 0.000000
0.159406 0.312549 0.000000
0.136765 0.340251 0.000000
0.156391 0.359511 0.000000
0.151720 0.403598 0.000000
0.158031 0.427603 0.000000
0.144545 0.446041 0.000000
0.146917 0.476960 0.000000
0.123737 0.509305 0.000000
0.147536 0.498353 0.000000
0.150431 0.522123 0.000000
0.178477 0.549688 0.000000
0.175585 0.600000 0.000000
0.158515 0.600000 0.000000
0.860000 0.625000 0.000000
0.860000 0.650000 0.000000
0.860000 0.675000 0.000000
0.175000 -0.075000 0.000000
0.175000 -0.050000 0.000000
0.175000 -0.025000 0.000000
0.175000 0.000000 0.000000
0.188287 0.023282 0.000000
0.148550 0.050781 0.000000
0.156963 0.077142 0.000000
0.177008 0.105255 0.000000
0.160499 0.122082 0.000000
0.174710 0.149504 0.000000
0.171566 0.175280 0.000000
0.162017 0.198455 0.000000
0.173341 0.222233 0.000000
0.163241 0.259395 0.000000
0.168255 0.285630 0.000000
0.181992 0.310805 0.000000
0.162959 0.337656 0.000000
0.184423 0.366646 0.000000
0.164491 0.383450 0.000000
0.180658 0.415704 0.000000
0.165859 0.455374 0.000000
0.192468 0.459147 0.000000
0.171641 0.482309 0.000000
0.180433 0.502900 0.000000
0.176623 0.526930 0.000000
0.201851 0.549149 0.000000
0.206137 0.568289 0.000000
0.200923 0.600000 0.000000
0.885000 0.625000 0.000000
0.885000 0.650000 0.000000
0.885000 0.675000 0.000000
0.200000 -0.075000 0.000000
0.200000 -0.050000 0.000000
0.200000 -0.025000 0.000000
0.200000 0.000000 0.000000
0.216251 0.027331 0.000000
0.170006 0.055771 0.000000
0.182666 0.079772 0.000000
0.201955 0.098978 0.000000
0.189041 0.126867 0.000000
0.199772 0.153685 0.000000
0.189552 0.194762 0.000000
0.196150 0.216569 0.000000
0.181235 0.246894 0.000000
0.201683 0.266680 0.000000
0.190154 0.290167 0.000000
0.210017 0.308450 0.000000
0.186409 0.341976 0.000000
0.209535 0.359822 0.000000
0.189772 0.391664 0.000000
0.204658 0.412699 0.000000
0.187705 0.438695 0.000000
0.218915 0.450571 0.000000
0.201819 0.480971 0.000000
0.215138 0.501275 0.000000
0.200099 0.518069 0.000000
0.224546 0.545172 0.000000
[...]
<PointData>
<DataArray NumberOfComponents='1' type='Int32' Name='ParticleType' format='ascii'>
3
3
3
3
3
3
3
3
3
3
3
3
3
3
3
3
3
3
3
3
3
3
3
3
3
3
3
3
3
3
3
3
3
3
3
3
3
3
3
3
3
3
3
3
3
3
3
3
3
3
3
3
3
3
3
3
3
3
2
2
2
2
2
2
2
2
2
2
2
2
2
2
2
2
2
2
2
2
2
2
2
2
2
2
3
3
2
2
2
2
2
2
2
2
2
2
2
2
2
2
2
2
2
2
2
2
2
2
2
2
2
2
3
3
2
2
0
0
0
0
0
0
0
0
0
0
0
0
0
0
0
0
0
0
0
0
0
0
0
0
1
1
1
3
3
2
2
0
0
0
0
0
0
0
0
0
0
0
0
0
0
0
0
0
0
0
0
0
0
0
0
1
1
1
3
3
2
2
0
0
0
0
0
0
0
0
0
0
0
0
0
0
0
0
0
0
0
0
0
0
0
0
1
1
1
3
3
2
2
0
0
0
0
0
0
0
0
0
0
0
0
0
0
0
0
0
0
0
0
0
0
0
0
1
1
1
3
3
2
2
0
0
0
0
0
0
0
0
0
0
0
0
0
0
0
0
0
0
0
0
0
0
0
0
1
1
1
3
3
2
2
0
0
0
0
0
0
0
0
0
0
0
0
0
0
0
0
0
0
0
0
0
0
0
0
1
1
1
3
3
2
2
0
0
0
0
0
0
0
0
0
0
0
0
0
0
0
0
0
0
0
0
0
0
0
0
1
1
1
3
3
2
2
0
0
0
0
0
0
0
0
0
0
0
0
0
0
0
0
0
0
0
0
0
0
0
0
1
1
1
3
3
2
2
0
0
0
0
0
0
0
0
0
0
0
0
0
0
0
0
0
0
0
0
0
0
0
0
1
1
1
3
3
2
2
0
0
0
0
0
0
0
0
0
0
0
0
0
0
0
0
0
0
0
0
0
0
0
0
1
1
1
3
3
2
2
0
0
0
0
0
0
0
0
0
0
0
0
0
0
0
0
0
0
0
0
0
0
0
0
1
1
1
3
3
2
2
0
0
0
0
0
0
0
0
0
0
0
0
0
0
0
0
0
0
0
0
0
0
0
0
1
1
1
3
3
2
2
0
0
0
0
0
0
0
0
0
0
0
0
0
0
0
0
0
0
0
0
0
0
0
0
1
1
1
3
3
2
2
0
0
0
0
0
0
0
0
0
0
0
0
0
0
0
0
0
0
0
0
0
0
0
0
1
1
1
3
3
2
2
0
0
0
0
0
0
0
0
0
0
0
0
0
0
0
0
0
0
0
0
0
0
0
0
1
1
1
3
3
2
2
0
0
0
0
0
0
0
0
0
0
0
0
0
0
0
0
0
0
0
0
0
0
0
0
1
1
1
3
3
2
2
0
0
0
0
0
0
0
0
0
0
0
0
0
0
0
0
0
0
0
0
0
0
0
0
3
3
2
2
0
0
0
0
0
0
0
0
0
0
0
0
0
0
0
0
0
0
0
0
0
0
0
0
3
3
2
2
0
0
0
0
0
0
0
0
0
0
0
0
0
0
0
0
0
0
0
0
0
0
0
0
3
3
2
2
0
0
0
0
0
0
0
0
0
0
0
0
0
0
0
0
0
0
0
0
0
0
0
0
3
3
2
2
0
0
0
0
0
0
0
0
0
0
0
0
0
0
0
0
0
0
0
0
0
0
0
0
3
3
2
2
0
0
0
0
0
0
0
0
0
0
0
0
0
0
0
0
0
0
0
0
0
0
0
0
3
3
2
2
0
0
0
0
0
0
0
0
0
0
0
0
0
0
0
0
0
0
0
0
0
0
0
0
3
3
2
2
0
0
0
0
0
0
0
0
0
0
0
0
0
0
0
0
0
0
0
0
0
0
0
0
3
3
2
2
0
0
0
0
0
0
0
0
0
0
0
0
0
0
0
0
0
0
0
0
0
0
0
0
3
3
2
2
0
0
0
0
0
0
0
0
0
0
0
0
0
0
0
0
0
0
0
0
0
0
0
0
3
3
2
2
0
0
0
0
0
0
0
0
0
0
0
0
0
0
0
0
0
0
0
0
0
0
0
0
3
3
2
2
0
0
0
0
0
0
0
0
0
0
0
0
0
0
0
0
0
0
0
0
0
0
0
0
3
3
2
2
0
0
0
0
0
0
0
0
0
0
0
0
0
0
0
0
0
0
0
0
0
0
0
0
3
3
2
2
0
0
0
0
0
0
0
0
0
0
0
0
0
0
0
0
0
0
0
0
0
0
0
0
3
3
2
2
0
0
0
0
0
0
0
0
0
0
0
0
0
0
0
0
0
0
0
0
0
0
0
0
3
3
2
2
0
0
0
0
0
0
0
0
0
0
0
0
0
0
0
0
0
0
0
0
0
0
0
0
3
3
2
2
0
0
0
0
0
0
0
0
0
0
0
0
0
0
0
0
0
0
0
0
0
0
0
0
3
3
2
2
0
0
0
0
0
0
0
0
0
0
0
0
0
0
0
0
0
0
0
0
0
0
0
0
3
3
2
2
0
0
0
0
0
0
0
0
0
0
0
0
0
0
0
0
0
0
0
0
0
0
0
0
3
3
2
2
0
0
0
0
0
0
0
0
0
0
0
0
0
0
0
0
0
0
0
0
0
0
0
0
3
3
2
2
0
0
0
0
0
0
0
0
0
0
0
0
0
0
0
0
0
0
0
0
0
0
0
0
3
3
2
2
0
0
0
0
0
0
0
0
0
0
0
0
0
0
0
0
0
0
0
0
0
0
0
0
3
3
2
2
0
0
0
0
0
0
0
0
0
0
0
0
0
0
0
0
0
0
0
0
0
0
0
0
3
3
2
2
0
0
0
0
0
0
0
0
0
0
0
0
0
0
0
0
0
0
0
0
0
0
0
0
3
3
2
2
0
0
0
0
0
0
0
0
0
0
0
0
0
0
0
0
0
0
0
0
0
0
0
0
3
3
2
2
0
0
0
0
0
0
0
0
0
0
0
0
0
0
0
0
0
0
0
0
0
0
0
0
3
3
2
2
0
0
0
0
0
0
0
0
0
0
0
0
0
0
0
0
0
0
0
0
0
0
0
0
3
3
2
2
0
0
0
0
0
0
0
0
0
0
0
0
0
0
0
0
0
0
0
0
0
0
0
0
3
3
2
2
0
0
0
0
0
0
0
0
0
0
0
0
0
0
0
0
0
0
0
0
0
0
0
0
3
3
2
2
0
0
0
0
0
0
0
0
0
0
0
0
0
0
0
0
0
0
0
0
0
0
0
0
3
3
2
2
0
0
0
0
0
0
0
0
0
0
0
0
0
0
0
0
0
0
0
0
0
0
0
0
3
3
2
2
0
0
0
0
0
0
0
0
0
0
0
0
0
0
0
0
0
0
0
0
0
0
0
0
3
3
2
2
0
0
0
0
0
0
0
0
0
0
0
0
0
0
0
0
0
0
0
0
0
0
0
0
3
3
2
2
0
0
0
0
0
0
0
0
0
0
0
0
0
0
0
0
0
0
0
0
0
0
0
0
3
3
2
2
0
0
0
0
0
0
0
0
0
0
0
0
0
0
0
0
0
0
0
0
0
0
0
0
3
3
2
2
0
0
0
0
0
0
0
0
0
0
0
0
0
0
0
0
0
0
0
0
0
0
0
0
3
3
2
2
0
0
0
0
0
0
0
0
0
0
0
0
0
0
0
0
0
0
0
0
0
0
0
0
3
3
2
2
0
0
0
0
0
0
0
0
0
0
0
0
0
0
0
0
0
0
0
0
0
0
0
0
3
3
2
2
0
0
0
0
0
0
0
0
0
0
0
0
0
0
0
0
0
0
0
0
0
0
0
0
3
3
2
2
0
0
0
0
0
0
0
0
0
0
0
0
0
0
0
0
0
0
0
0
0
0
0
0
3
3
2
2
0
0
0
0
0
0
0
0
0
0
0
0
0
0
0
0
0
0
0
0
0
0
0
0
3
3
2
2
0
0
0
0
0
0
0
0
0
0
0
0
0
0
0
0
0
0
0
0
0
0
0
0
3
3
2
2
0
0
0
0
0
0
0
0
0
0
0
0
0
0
0
0
0
0
0
0
0
0
0
0
3
3
2
2
0
0
0
0
0
0
0
0
0
0
0
0
0
0
0
0
0
0
0
0
0
0
0
0
3
3
2
2
0
0
0
0
0
0
0
0
0
0
0
0
0
0
0
0
0
0
0
0
0
0
0
0
3
3
2
2
0
0
0
0
0
0
0
0
0
0
0
0
0
0
0
0
0
0
0
0
0
0
0
0
3
3
2
2
0
0
0
0
0
0
0
0
0
0
0
0
0
0
0
0
0
0
0
0
0
0
0
0
3
3
2
2
0
0
0
0
0
0
0
0
0
0
0
0
0
0
0
0
0
0
0
0
0
0
0
0
3
3
2
2
0
0
0
0
0
0
0
0
0
0
0
0
0
0
0
0
0
0
0
0
0
0
0
0
3
3
2
2
0
0
0
0
0
0
0
0
0
0
0
0
0
0
0
0
0
0
0
0
0
0
0
0
3
3
2
2
0
0
0
0
0
0
0
0
0
0
0
0
0
0
0
0
0
0
0
0
0
0
0
0
3
3
2
2
0
0
0
0
0
0
0
0
0
0
0
0
0
0
0
0
0
0
0
0
0
0
0
0
3
3
2
2
0
0
0
0
0
0
0
0
0
0
0
0
0
0
0
0
0
0
0
0
0
0
0
0
3
3
2
2
0
0
0
0
0
0
0
0
0
0
0
0
0
0
0
0
0
0
0
0
0
0
0
0
3
3
2
2
0
0
0
0
0
0
0
0
0
0
0
0
0
0
0
0
0
0
0
0
0
0
0
0
3
3
2
2
0
0
0
0
0
0
0
0
0
0
0
0
0
0
0
0
0
0
0
0
0
0
0
0
3
3
2
2
0
0
0
0
0
0
0
0
0
0
0
0
0
0
0
0
0
0
0
0
0
0
0
0
3
3
2
2
0
0
0
0
0
0
0
0
0
0
0
0
0
0
0
0
0
0
0
0
0
0
0
0
3
3
2
2
0
0
0
0
0
0
0
0
0
0
0
0
0
0
0
0
0
0
0
0
0
0
0
0
3
3
2
2
0
0
0
0
0
0
0
0
0
0
0
0
0
0
0
0
0
0
0
0
0
0
0
0
3
3
2
2
0
0
0
0
0
0
0
0
0
0
0
0
0
0
0
0
0
0
0
0
0
0
0
0
3
3
2
2
0
0
0
0
0
0
0
0
0
0
0
0
0
0
0
0
0
0
0
0
0
0
0
0
3
3
2
2
0
0
0
0
0
0
0
0
0
0
0
0
0
0
0
0
0
0
0
0
0
0
0
0
3
3
2
2
0
0
0
0
0
0
0
0
0
0
0
0
0
0
0
0
0
0
0
0
0
0
0
0
3
3
2
2
2
2
2
2
2
2
2
2
2
2
2
2
2
2
2
2
2
2
2
2
2
2
2
2
3
3
2
2
2
2
2
2
2
2
2
2
2
2
2
2
2
2
2
2
2
2
2
2
2
2
2
2
3
3
3
3
3
3
3
3
3
3
3
3
3
3
3
3
3
3
3
3
3
3
3
3
3
3
3
3
3
3
3
3
3
3
3
3
3
3
3
3
3
3
3
3
3
3
3
3
3
3
3
3
3
3
3
3
</DataArray>
<DataArray NumberOfComponents='1' type='Float32' Name='Velocity' format='ascii'>
0.000000
0.000000
0.000000
0.000000
0.000000
0.000000
0.000000
0.000000
0.000000
0.000000
0.000000
0.000000
0.000000
0.000000
0.000000
0.000000
0.000000
0.000000
0.000000
0.000000
0.000000
0.000000
0.000000
0.000000
0.000000
0.000000
0.000000
0.000000
0.000000
0.000000
0.000000
0.000000
0.000000
0.000000
0.000000
0.000000
0.000000
0.000000
0.000000
0.000000
0.000000
0.000000
0.000000
0.000000
0.000000
0.000000
0.000000
0.000000
0.000000
0.000000
0.000000
0.000000
0.000000
0.000000
0.000000
0.000000
0.000000
0.000000
0.000000
0.000000
0.000000
0.000000
0.000000
0.000000
0.000000
0.000000
0.000000
0.000000
0.000000
0.000000
0.000000
0.000000
0.000000
0.000000
0.000000
0.000000
0.000000
0.000000
0.000000
0.000000
0.000000
0.000000
0.000000
0.000000
0.000000
0.000000
0.000000
0.000000
0.000000
0.000000
0.000000
0.000000
0.000000
0.000000
0.000000
0.000000
0.000000
0.000000
0.000000
0.000000
0.000000
0.000000
0.000000
0.000000
0.000000
0.000000
0.000000
0.000000
0.000000
0.000000
0.000000
0.000000
0.000000
0.000000
0.000000
0.000000
0.033331
0.115990
0.075450
0.090872
0.222575
0.159490
0.127230
0.166960
0.230227
0.252670
0.173718
0.223034
0.088685
0.154735
0.044592
0.219492
0.206147
0.334222
0.180048
0.175936
0.433556
23.171593
16.293724
20.861279
1.000000
1.000000
1.000000
0.000000
0.000000
0.000000
0.000000
0.099305
0.183727
0.101860
0.088762
0.165789
0.179869
0.053136
0.122152
0.057358
0.045878
0.112943
0.099178
0.178300
0.066069
0.088141
0.054227
0.108840
0.135997
0.424120
0.393628
0.239035
0.143936
0.179309
11.708161
1.000000
1.000000
1.000000
0.000000
0.000000
0.000000
0.000000
0.153998
0.233630
0.165347
0.357814
0.026627
0.105578
0.081510
0.185520
0.112431
0.097867
0.143932
0.057666
0.141977
0.126247
0.190000
0.079404
0.051335
0.115023
0.227478
0.087551
0.102485
0.409847
1.183692
9.172371
1.000000
1.000000
1.000000
0.000000
0.000000
0.000000
0.000000
0.185320
0.172800
0.050764
0.045531
0.081779
0.121519
0.054023
0.098566
0.149210
0.120854
0.140276
0.180394
0.096458
0.055652
0.144968
0.129839
0.149712
0.247205
0.145699
0.099959
0.207892
0.140467
0.378061
10.964993
1.000000
1.000000
1.000000
0.000000
0.000000
0.000000
0.000000
0.135051
0.012008
0.302518
0.201866
0.225068
0.024950
0.051697
0.198086
0.045144
0.034939
0.214785
0.152289
0.048632
0.025392
0.146004
0.117946
0.140532
0.217387
0.058816
0.126588
0.189039
0.139222
0.343247
6.682064
1.000000
1.000000
1.000000
0.000000
0.000000
0.000000
0.000000
0.245622
0.083930
0.308717
0.067107
0.184153
0.074957
0.138469
0.020438
0.175658
0.032662
0.120435
0.122671
0.026036
0.088507
0.069042
0.092975
0.091803
0.127565
0.044329
0.277837
0.082466
0.331761
14.489497
11.542106
1.000000
1.000000
1.000000
0.000000
0.000000
0.000000
0.000000
0.103218
0.200453
0.268177
0.090888
0.109073
0.125823
0.173151
0.199484
0.067529
0.099763
0.016170
0.201574
0.194723
0.005071
0.178003
0.032277
0.205430
0.195481
0.276383
0.307731
0.228721
0.067677
0.129060
4.799878
1.000000
1.000000
1.000000
0.000000
0.000000
0.000000
0.000000
0.121817
0.267792
0.128076
0.247081
0.155623
0.028041
0.063771
0.058989
0.068343
0.154685
0.161752
0.223282
0.269972
0.248596
0.095391
0.182466
0.233176
0.032972
0.067676
0.086613
0.111839
0.183596
0.459273
5.573473
1.000000
1.000000
1.000000
0.000000
0.000000
0.000000
0.000000
0.132849
0.243664
0.190974
0.210541
0.243757
0.088892
0.095711
0.227828
0.212450
0.063498
0.131690
0.080072
0.180571
0.082674
0.179790
0.263341
0.252512
0.201172
0.309865
0.223961
0.162944
0.252991
0.434707
6.812095
1.000000
1.000000
1.000000
0.000000
0.000000
0.000000
0.000000
0.160165
0.105173
0.216588
0.094374
0.155320
0.257587
0.155138
0.157908
0.122178
0.026699
0.017677
0.173243
0.188298
0.031654
0.020974
0.065892
0.142228
0.196888
0.079793
0.120665
0.114900
0.192254
1.312225
6.540369
1.000000
1.000000
1.000000
0.000000
0.000000
0.000000
0.000000
0.088515
0.027749
0.193134
0.121417
0.034968
0.009816
0.074119
0.094621
0.132200
0.055605
0.172094
0.067226
0.066132
0.040558
0.109560
0.204299
0.027371
0.081505
0.039434
0.013089
0.154661
0.256976
0.365175
3.263411
1.000000
1.000000
1.000000
0.000000
0.000000
0.000000
0.000000
0.144194
0.047865
0.095174
0.070692
0.052231
0.169553
0.122191
0.065931
0.084209
0.055355
0.146445
0.068158
0.190882
0.083960
0.119794
0.312314
0.079295
0.064564
0.189578
0.148591
0.077589
0.097903
5.731042
5.017369
1.000000
1.000000
1.000000
0.000000
0.000000
0.000000
0.000000
0.039305
0.053708
0.067527
0.187003
0.037974
0.107379
0.129154
0.090488
0.069258
0.086793
0.081058
0.130290
0.012174
0.110745
0.139422
0.105626
0.073325
0.069333
0.152904
0.329456
0.130764
0.023624
0.117900
4.173298
1.000000
1.000000
1.000000
0.000000
0.000000
0.000000
0.000000
0.169717
0.116846
0.036520
0.111156
0.059012
0.140165
0.145276
0.051697
0.042158
0.046038
0.071984
0.078735
0.043306
0.057038
0.056572
0.105409
0.133668
0.150924
0.026430
0.186053
0.262005
0.236061
0.262980
9.536509
1.000000
1.000000
1.000000
0.000000
0.000000
0.000000
0.000000
0.069786
0.105993
0.123985
0.158406
0.073969
0.183466
0.046343
0.180491
0.065277
0.061621
0.027687
0.116323
0.170721
0.162718
0.070237
0.109001
0.048777
0.132728
0.152412
0.255772
0.240926
0.106621
7.449602
7.345993
1.000000
1.000000
1.000000
0.000000
0.000000
0.000000
0.000000
0.065105
0.023342
0.110113
0.093648
0.150927
0.151528
0.126849
0.073189
0.046649
0.119664
0.075021
0.152973
0.182842
0.234379
0.116034
0.016839
0.069293
0.223380
0.165085
0.401698
0.180562
0.094304
0.173592
8.274742
1.000000
1.000000
1.000000
0.000000
0.000000
0.000000
0.000000
0.077281
0.025938
0.158574
0.139636
0.044782
0.063699
0.141780
0.069787
0.086798
0.062975
0.025577
0.121843
0.150117
0.007782
0.225562
0.038483
0.264445
0.119979
0.033301
0.291310
0.036563
0.409386
0.424155
10.138377
0.000000
0.000000
0.000000
0.000000
0.123601
0.062073
0.141027
0.143239
0.070399
0.024076
0.143552
0.092035
0.056413
0.132173
0.108220
0.196065
0.058767
0.007700
0.196019
0.106287
0.287597
0.269031
0.030381
0.125751
0.239303
0.409341
0.538276
11.915272
0.000000
0.000000
0.000000
0.000000
0.028081
0.068999
0.108895
0.161718
0.054773
0.050131
0.178900
0.117783
0.059461
0.114939
0.179571
0.065316
0.096239
0.061481
0.101400
0.192347
0.236907
0.223919
0.035073
0.067548
0.253767
0.103308
0.370759
8.670987
0.000000
0.000000
0.000000
0.000000
0.120805
0.111531
0.033924
0.166582
0.082579
0.083720
0.092973
0.069014
0.017273
0.163635
0.094637
0.215476
0.075144
0.195400
0.229116
0.142294
0.260654
0.128289
0.117358
0.505538
0.052893
0.330309
9.857741
19.059811
0.000000
0.000000
0.000000
0.000000
0.069859
0.080256
0.065019
0.097216
0.045809
0.044596
0.073685
0.140337
0.148626
0.116325
0.228204
0.052035
0.204557
0.120795
0.341343
0.188464
0.165226
0.215523
0.151390
0.057541
0.140205
0.032486
8.878130
16.447857
0.000000
0.000000
0.000000
0.000000
0.067575
0.120350
0.041192
0.042054
0.072880
0.118188
0.142140
0.047417
0.065878
0.126247
0.024048
0.040152
0.078850
0.028078
0.031951
0.186035
0.131091
0.144001
0.384255
0.200037
0.013706
0.416310
0.487448
26.707245
0.000000
0.000000
0.000000
0.000000
0.041080
0.139495
0.051096
0.008090
0.057568
0.072875
0.013320
0.079577
0.221794
0.054184
0.034260
0.092907
0.022747
0.052405
0.168353
0.194859
0.105398
0.080312
0.243832
0.107622
0.099298
0.137190
22.514589
11.328866
0.000000
0.000000
0.000000
0.000000
0.058700
0.058922
0.076993
0.012700
0.058691
0.091461
0.116130
0.053661
0.084261
0.065251
0.097112
0.125139
0.155895
0.090721
0.117831
0.037850
0.116085
0.083332
0.058449
0.083636
0.179003
0.076843
0.123394
9.679864
0.000000
0.000000
0.000000
0.000000
0.032368
0.017025
0.078289
0.084853
0.097857
0.116114
0.102662
0.035416
0.033789
0.135482
0.079852
0.040682
0.121378
0.090461
0.053310
0.102444
0.156877
0.112985
0.110294
0.109918
0.055349
0.115619
0.349688
16.493744
0.000000
0.000000
0.000000
0.000000
0.094411
0.014211
0.028468
0.035701
0.051451
0.116719
0.075816
0.093129
0.073403
0.093521
0.142291
0.118458
0.035082
0.127207
0.070045
0.159751
0.059032
0.044041
0.109479
0.070785
0.135388
0.267817
0.228127
19.291534
0.000000
0.000000
0.000000
0.000000
0.046572
0.016856
0.073829
0.069098
0.122575
0.158141
0.099314
0.067211
0.026311
0.046364
0.087464
0.087689
0.059706
0.142478
0.133755
0.093639
0.041733
0.125657
0.123735
0.174763
0.207575
0.119373
0.321211
21.957102
0.000000
0.000000
0.000000
0.000000
0.085514
0.135638
0.083683
0.027875
0.072648
0.106838
0.024602
0.058210
0.007871
0.121611
0.062516
0.043674
0.035514
0.019381
0.009275
0.088792
0.140418
0.099138
0.056411
0.237511
0.218520
0.192463
0.448552
12.385966
0.000000
0.000000
0.000000
0.000000
0.063143
0.073202
0.126335
0.076492
0.139292
0.171306
0.005177
0.073845
0.016183
0.043374
0.009217
0.162529
0.105074
0.153849
0.059231
0.122179
0.014612
0.041788
0.068707
0.126945
0.194371
0.209846
0.231802
8.192693
0.000000
0.000000
0.000000
0.000000
0.036755
0.102746
0.044273
0.001268
0.134761
0.123143
0.130125
0.134777
0.058356
0.077995
0.048698
0.067351
0.052369
0.078841
0.076526
0.033062
0.042314
0.073521
0.043231
0.092568
0.079003
0.161369
0.067304
5.392145
0.000000
0.000000
0.000000
0.000000
0.050863
0.067474
0.035151
0.048368
0.134941
0.081813
0.048412
0.046298
0.015164
0.107190
0.056101
0.132982
0.074451
0.072122
0.104699
0.110428
0.064592
0.030410
0.181982
0.081245
0.137498
0.204579
0.200460
7.613825
0.000000
0.000000
0.000000
0.000000
0.027674
0.089055
0.059601
0.070095
0.050497
0.090413
0.161172
0.069302
0.043448
0.059741
0.031061
0.091581
0.066638
0.062315
0.115843
0.066198
0.094038
0.015980
0.079446
0.166216
0.227738
0.129620
0.302319
9.134755
0.000000
0.000000
0.000000
0.000000
0.006071
0.055878
0.047160
0.033826
0.022305
0.034856
0.047309
0.069274
0.023994
0.106023
0.044189
0.074458
0.014511
0.086548
0.039982
0.086144
0.078372
0.047213
0.076107
0.027383
0.100394
0.155649
0.187823
7.437782
0.000000
0.000000
0.000000
0.000000
0.052650
0.083666
0.061618
0.051179
0.068299
0.093229
0.093656
0.082585
0.029154
0.042979
0.042678
0.102454
0.071138
0.066884
0.068327
0.095524
0.018600
0.132851
0.062450
0.170481
0.200626
0.258679
0.154401
5.769779
0.000000
0.000000
0.000000
0.000000
0.021004
0.067931
0.034716
0.038983
0.038197
0.040762
0.027828
0.085111
0.038000
0.117750
0.053600
0.081447
0.037727
0.063582
0.048542
0.032720
0.104847
0.070304
0.038048
0.066265
0.171743
0.222305
0.139575
4.587749
0.000000
0.000000
0.000000
0.000000
0.046706
0.114988
0.074284
0.023433
0.089993
0.075790
0.070913
0.042070
0.045717
0.016203
0.067426
0.095363
0.039558
0.115420
0.048668
0.067102
0.101624
0.088819
0.057658
0.078382
0.066067
0.078704
0.243823
4.859962
0.000000
0.000000
0.000000
0.000000
0.054965
0.058843
0.037557
0.034017
0.005337
0.030473
0.034063
0.062120
0.051671
0.049265
0.036667
0.052486
0.080763
0.055756
0.130406
0.072006
0.066548
0.051555
0.037635
0.088819
0.087088
0.062554
0.059535
5.651305
0.000000
0.000000
0.000000
0.000000
0.046189
0.080831
0.073460
0.024145
0.048008
0.091143
0.056711
0.013734
0.058924
0.036560
0.059690
0.048836
0.043086
0.052225
0.068101
0.023054
0.060041
0.030418
0.071558
0.041729
0.184712
0.128281
0.328640
6.658198
0.000000
0.000000
0.000000
0.000000
0.027396
0.049409
0.023620
0.050400
0.037421
0.005201
0.028136
0.069121
0.019920
0.044591
0.028882
0.063989
0.056950
0.062648
0.069168
0.034260
0.060144
0.185409
0.205524
0.126719
0.202974
0.259548
0.150356
6.239763
0.000000
0.000000
0.000000
0.000000
0.051055
0.035683
0.057540
0.047317
0.062005
0.084058
0.032038
0.016109
0.087457
0.042106
0.034608
0.052062
0.041195
0.067173
0.065552
0.067803
0.027824
0.019466
0.095931
0.111016
0.342800
0.097007
0.019647
7.102343
0.000000
0.000000
0.000000
0.000000
0.016376
0.046035
0.037744
0.077452
0.056999
0.029709
0.054569
0.064847
0.041784
0.042396
0.051256
0.072922
0.052875
0.075026
0.092260
0.076101
0.018983
0.166795
0.135736
0.158889
0.068768
0.294498
0.506705
7.710380
0.000000
0.000000
0.000000
0.000000
0.031259
0.052026
0.026119
0.067798
0.068088
0.006096
0.055843
0.040882
0.070938
0.025636
0.030031
0.053167
0.092909
0.038723
0.081156
0.046440
0.079930
0.041268
0.055400
0.149880
0.162669
0.210822
0.228900
9.134671
0.000000
0.000000
0.000000
0.000000
0.035545
0.018844
0.064492
0.103650
0.037194
0.042317
0.090674
0.043136
0.074845
0.069381
0.033564
0.037025
0.120757
0.069856
0.106995
0.070843
0.081980
0.227167
0.101358
0.141540
0.151245
0.268969
0.661888
18.806448
0.000000
0.000000
0.000000
0.000000
0.048194
0.064665
0.104959
0.070205
0.031617
0.034497
0.078630
0.062847
0.039918
0.030438
0.043194
0.014431
0.131397
0.042430
0.062211
0.132899
0.059369
0.030223
0.179979
0.066118
0.099882
0.126388
0.602430
19.797541
0.000000
0.000000
0.000000
0.000000
0.046571
0.038997
0.044067
0.047830
0.085024
0.057591
0.114394
0.053999
0.006626
0.061138
0.065095
0.071206
0.126425
0.098987
0.187558
0.112601
0.220912
0.139124
0.198123
0.105988
0.183287
0.142410
8.817371
21.395061
0.000000
0.000000
0.000000
0.000000
0.054667
0.095828
0.039025
0.079800
0.028452
0.059409
0.136544
0.038654
0.035029
0.071626
0.080369
0.037254
0.147689
0.063607
0.092037
0.180529
0.062158
0.070569
0.090991
0.040562
0.039113
0.217124
0.240666
20.541010
0.000000
0.000000
0.000000
0.000000
0.044513
0.057374
0.058524
0.073026
0.127267
0.077184
0.062296
0.023511
0.054688
0.014149
0.122842
0.134649
0.070015
0.011218
0.080086
0.066261
0.094094
0.118564
0.252539
0.215291
0.048683
0.448095
0.472327
13.609982
0.000000
0.000000
0.000000
0.000000
0.050008
0.110589
0.034354
0.081523
0.102685
0.047447
0.012233
0.016195
0.067910
0.105883
0.020681
0.081446
0.087719
0.277032
0.160339
0.134897
0.231881
0.170349
0.064816
0.079277
0.243032
0.383131
0.236523
14.888452
0.000000
0.000000
0.000000
0.000000
0.045565
0.085673
0.044081
0.102241
0.144803
0.108961
0.034527
0.019420
0.093689
0.090115
0.096757
0.189792
0.136456
0.092858
0.140236
0.250279
0.210982
0.045855
0.115368
0.209934
0.163962
0.138511
5.540742
15.165909
0.000000
0.000000
0.000000
0.000000
0.055954
0.070212
0.060687
0.065690
0.103675
0.078307
0.082839
0.023613
0.083139
0.068009
0.088709
0.072987
0.121012
0.189270
0.302143
0.133237
0.072171
0.208114
0.046883
0.258346
0.043547
0.472953
0.671693
19.179644
0.000000
0.000000
0.000000
0.000000
0.031183
0.078298
0.051695
0.024831
0.098477
0.097725
0.016038
0.055977
0.054008
0.018493
0.065810
0.200871
0.101833
0.214558
0.124407
0.193935
0.065801
0.083650
0.125420
0.203491
0.117894
0.301222
8.430830
19.465139
0.000000
0.000000
0.000000
0.000000
0.022662
0.058107
0.045707
0.059143
0.055598
0.070895
0.031698
0.039371
0.103884
0.041345
0.010527
0.114142
0.121922
0.187312
0.168072
0.153127
0.147914
0.128517
0.070507
0.187126
0.090710
0.330784
0.161478
20.639746
0.000000
0.000000
0.000000
0.000000
0.013062
0.040962
0.069173
0.036241
0.020451
0.151073
0.072465
0.080089
0.193194
0.118999
0.168068
0.178221
0.140399
0.062924
0.362413
0.038678
0.138387
0.074768
0.100992