<?xml version='1.0' encoding='UTF-8'?>
<VTKFile xmlns='VTK' byte_order='LittleEndian' version='0.1' type='UnstructuredGrid'>
<UnstructuredGrid>
<Piece NumberOfCells='2512' NumberOfPoints='2512'>
<Points>
<DataArray NumberOfComponents='3' type='Float32' Name='Position' format='ascii'>
-0.075000 -0.075000 0.000000
-0.075000 -0.050000 0.000000
-0.075000 -0.025000 0.000000
-0.075000 0.000000 0.000000
-0.075000 0.025000 0.000000
-0.075000 0.050000 0.000000
-0.075000 0.075000 0.000000
-0.075000 0.100000 0.000000
-0.075000 0.125000 0.000000
-0.075000 0.150000 0.000000
-0.075000 0.175000 0.000000
-0.075000 0.200000 0.000000
-0.075000 0.225000 0.000000
-0.075000 0.250000 0.000000
-0.075000 0.275000 0.000000
-0.075000 0.300000 0.000000
-0.075000 0.325000 0.000000
-0.075000 0.350000 0.000000
-0.075000 0.375000 0.000000
-0.075000 0.400000 0.000000
-0.075000 0.425000 0.000000
-0.075000 0.450000 0.000000
-0.075000 0.475000 0.000000
-0.075000 0.500000 0.000000
-0.075000 0.525000 0.000000
-0.075000 0.550000 0.000000
-0.075000 0.575000 0.000000
-0.075000 0.600000 0.000000
-0.050000 -0.075000 0.000000
-0.050000 -0.050000 0.000000
-0.050000 -0.025000 0.000000
-0.050000 0.000000 0.000000
-0.050000 0.025000 0.000000
-0.050000 0.050000 0.000000
-0.050000 0.075000 0.000000
-0.050000 0.100000 0.000000
-0.050000 0.125000 0.000000
-0.050000 0.150000 0.000000
-0.050000 0.175000 0.000000
-0.050000 0.200000 0.000000
-0.050000 0.225000 0.000000
-0.050000 0.250000 0.000000
-0.050000 0.275000 0.000000
-0.050000 0.300000 0.000000
-0.050000 0.325000 0.000000
-0.050000 0.350000 0.000000
-0.050000 0.375000 0.000000
-0.050000 0.400000 0.000000
-0.050000 0.425000 0.000000
-0.050000 0.450000 0.000000
-0.050000 0.475000 0.000000
-0.050000 0.500000 0.000000
-0.050000 0.525000 0.000000
-0.050000 0.550000 0.000000
-0.050000 0.575000 0.000000
-0.050000 0.600000 0.000000
-0.025000 -0.075000 0.000000
-0.025000 -0.050000 0.000000
-0.025000 -0.025000 0.000000
-0.025000 0.000000 0.000000
-0.025000 0.025000 0.000000
-0.025000 0.050000 0.000000
-0.025000 0.075000 0.000000
-0.025000 0.100000 0.000000
-0.025000 0.125000 0.000000
-0.025000 0.150000 0.000000
-0.025000 0.175000 0.000000
-0.025000 0.200000 0.000000
-0.025000 0.225000 0.000000
-0.025000 0.250000 0.000000
-0.025000 0.275000 0.000000
-0.025000 0.300000 0.000000
-0.025000 0.325000 0.000000
-0.025000 0.350000 0.000000
-0.025000 0.375000 0.000000
-0.025000 0.400000 0.000000
-0.025000 0.425000 0.000000
-0.025000 0.450000 0.000000
-0.025000 0.475000 0.000000
-0.025000 0.500000 0.000000
-0.025000 0.525000 0.000000
-0.025000 0.550000 0.000000
-0.025000 0.575000 0.000000
-0.025000 0.600000 0.000000
0.000000 -0.075000 0.000000
0.000000 -0.050000 0.000000
0.000000 -0.025000 0.000000
0.000000 0.000000 0.000000
0.000000 0.025000 0.000000
0.000000 0.050000 0.000000
0.000000 0.075000 0.000000
0.000000 0.100000 0.000000
0.000000 0.125000 0.000000
0.000000 0.150000 0.000000
0.000000 0.175000 0.000000
0.000000 0.200000 0.000000
0.000000 0.225000 0.000000
0.000000 0.250000 0.000000
0.000000 0.275000 0.000000
0.000000 0.300000 0.000000
0.000000 0.325000 0.000000
0.000000 0.350000 0.000000
0.000000 0.375000 0.000000
0.000000 0.400000 0.000000
0.000000 0.425000 0.000000
0.000000 0.450000 0.000000
0.000000 0.475000 0.000000
0.000000 0.500000 0.000000
0.000000 0.525000 0.000000
0.000000 0.550000 0.000000
0.000000 0.575000 0.000000
0.000000 0.600000 0.000000
0.025000 -0.075000 0.000000
0.025000 -0.050000 0.000000
0.025000 -0.025000 0.000000
0.025000 0.000000 0.000000
0.024879 0.024924 0.000000
0.025112 0.049899 0.000000
0.024981 0.074881 0.000000
0.024948 0.099809 0.000000
0.025068 0.124873 0.000000
0.025036 0.149755 0.000000
0.024884 0.174838 0.000000
0.025120 0.199788 0.000000
0.024946 0.224886 0.000000
0.025026 0.249834 0.000000
0.024919 0.275076 0.000000
0.025102 0.299953 0.000000
0.024925 0.325293 0.000000
0.024985 0.350228 0.000000
0.024957 0.375591 0.000000
0.025062 0.400641 0.000000
0.024797 0.426004 0.000000
0.025150 0.451082 0.000000
0.024804 0.476536 0.000000
0.025027 0.501515 0.000000
0.024870 0.527048 0.000000
0.024823 0.551627 0.000000
0.025745 0.576873 0.000000
0.021499 0.600000 0.000000
0.295000 0.625000 0.000000
0.295000 0.650000 0.000000
0.295000 0.675000 0.000000
0.050000 -0.075000 0.000000
0.050000 -0.050000 0.000000
0.050000 -0.025000 0.000000
0.050000 0.000000 0.000000
0.050062 0.024940 0.000000
0.050043 0.049953 0.000000
0.050004 0.074995 0.000000
0.050084 0.099968 0.000000
0.049966 0.125016 0.000000
0.050012 0.150019 0.000000
0.050009 0.175098 0.000000
0.049924 0.199970 0.000000
0.049880 0.225202 0.000000
0.049915 0.250055 0.000000
0.049818 0.275201 0.000000
0.049816 0.300128 0.000000
0.049706 0.325363 0.000000
0.049794 0.350148 0.000000
0.049539 0.375534 0.000000
0.049707 0.400270 0.000000
0.049478 0.425743 0.000000
0.049637 0.450523 0.000000
0.049411 0.475981 0.000000
0.049725 0.500756 0.000000
0.049650 0.526215 0.000000
0.050418 0.550312 0.000000
0.050840 0.575385 0.000000
0.050053 0.599854 0.000000
0.320000 0.625000 0.000000
0.320000 0.650000 0.000000
0.320000 0.675000 0.000000
0.075000 -0.075000 0.000000
0.075000 -0.050000 0.000000
0.075000 -0.025000 0.000000
0.075000 0.000000 0.000000
0.074977 0.024923 0.000000
0.075053 0.049962 0.000000
0.074989 0.074952 0.000000
0.074965 0.099949 0.000000
0.074982 0.124979 0.000000
0.075039 0.149967 0.000000
0.074905 0.174969 0.000000
0.075023 0.199940 0.000000
0.074972 0.224942 0.000000
0.074950 0.249787 0.000000
0.074929 0.274890 0.000000
0.075002 0.299577 0.000000
0.074861 0.324663 0.000000
0.074977 0.349336 0.000000
0.074749 0.374270 0.000000
0.074993 0.398979 0.000000
0.074582 0.423859 0.000000
0.074904 0.448447 0.000000
0.074624 0.473491 0.000000
0.074753 0.498045 0.000000
0.075096 0.523087 0.000000
0.075820 0.547774 0.000000
0.076289 0.572365 0.000000
0.070918 0.597954 0.000000
0.345000 0.625000 0.000000
0.345000 0.650000 0.000000
0.345000 0.675000 0.000000
0.100000 -0.075000 0.000000
0.100000 -0.050000 0.000000
0.100000 -0.025000 0.000000
0.100000 0.000000 0.000000
0.100067 0.024984 0.000000
0.100040 0.049901 0.000000
0.100014 0.074897 0.000000
0.100003 0.099860 0.000000
0.099990 0.124879 0.000000
0.100002 0.149825 0.000000
0.099955 0.174883 0.000000
0.100026 0.199888 0.000000
0.099856 0.224964 0.000000
0.100042 0.249988 0.000000
0.099875 0.275116 0.000000
0.100000 0.300112 0.000000
0.099872 0.325333 0.000000
0.100037 0.350239 0.000000
0.099782 0.375633 0.000000
0.100070 0.400370 0.000000
0.099610 0.425832 0.000000
0.100099 0.450601 0.000000
0.099453 0.475841 0.000000
0.100044 0.500594 0.000000
0.099619 0.526059 0.000000
0.100940 0.550774 0.000000
0.100178 0.577069 0.000000
0.098314 0.599908 0.000000
0.370000 0.625000 0.000000
0.370000 0.650000 0.000000
0.370000 0.675000 0.000000
0.125000 -0.075000 0.000000
0.125000 -0.050000 0.000000
0.125000 -0.025000 0.000000
0.125000 0.000000 0.000000
0.125096 0.024912 0.000000
0.125124 0.049952 0.000000
0.125009 0.074931 0.000000
0.125043 0.099930 0.000000
0.124983 0.124937 0.000000
0.125015 0.149920 0.000000
0.124939 0.174961 0.000000
0.124926 0.199872 0.000000
0.124907 0.224922 0.000000
0.124894 0.249851 0.000000
0.124826 0.274845 0.000000
0.124919 0.299759 0.000000
0.124716 0.324789 0.000000
0.124911 0.349670 0.000000
0.124556 0.374726 0.000000
0.124924 0.399615 0.000000
0.124464 0.424775 0.000000
0.124919 0.449445 0.000000
0.124450 0.474851 0.000000
0.124974 0.499357 0.000000
0.124527 0.524560 0.000000
0.126072 0.549336 0.000000
0.124964 0.574007 0.000000
0.123472 0.599465 0.000000
0.395000 0.625000 0.000000
0.395000 0.650000 0.000000
0.395000 0.675000 0.000000
0.150000 -0.075000 0.000000
0.150000 -0.050000 0.000000
0.150000 -0.025000 0.000000
0.150000 0.000000 0.000000
0.150089 0.024965 0.000000
0.150070 0.049954 0.000000
0.149989 0.074964 0.000000
0.150002 0.100003 0.000000
0.149965 0.124951 0.000000
0.150042 0.150008 0.000000
0.149918 0.174910 0.000000
0.150025 0.199965 0.000000
0.149954 0.224922 0.000000
0.149973 0.249857 0.000000
0.149958 0.274945 0.000000
0.150033 0.299845 0.000000
0.149872 0.324934 0.000000
0.150072 0.349790 0.000000
0.149760 0.374902 0.000000
0.150093 0.399679 0.000000
0.149572 0.424742 0.000000
0.150111 0.449601 0.000000
0.149573 0.474565 0.000000
0.150141 0.499509 0.000000
0.149633 0.524623 0.000000
0.150919 0.549673 0.000000
0.149865 0.575575 0.000000
0.149048 0.599313 0.000000
0.420000 0.625000 0.000000
0.420000 0.650000 0.000000
0.420000 0.675000 0.000000
0.175000 -0.075000 0.000000
0.175000 -0.050000 0.000000
0.175000 -0.025000 0.000000
0.175000 0.000000 0.000000
0.175192 0.024900 0.000000
0.175079 0.049901 0.000000
0.175034 0.074856 0.000000
0.175028 0.099821 0.000000
0.175029 0.124810 0.000000
0.175025 0.149753 0.000000
0.174984 0.174741 0.000000
0.175043 0.199749 0.000000
0.174840 0.224667 0.000000
0.175042 0.249744 0.000000
0.174808 0.274718 0.000000
0.174939 0.299667 0.000000
0.174802 0.324747 0.000000
0.174967 0.349691 0.000000
0.174655 0.374741 0.000000
0.175082 0.399658 0.000000
0.174527 0.424805 0.000000
0.175188 0.449547 0.000000
0.174329 0.474842 0.000000
0.175239 0.499458 0.000000
0.174149 0.524757 0.000000
0.175801 0.549588 0.000000
0.174431 0.574829 0.000000
0.174115 0.599561 0.000000
0.445000 0.625000 0.000000
0.445000 0.650000 0.000000
0.445000 0.675000 0.000000
0.200000 -0.075000 0.000000
0.200000 -0.050000 0.000000
0.200000 -0.025000 0.000000
0.200000 0.000000 0.000000
0.200182 0.024988 0.000000
0.200135 0.049916 0.000000
0.199990 0.074949 0.000000
0.200073 0.099951 0.000000
0.200003 0.124882 0.000000
0.200070 0.149949 0.000000
0.199969 0.174931 0.000000
0.199996 0.199868 0.000000
0.200001 0.224960 0.000000
0.199974 0.249875 0.000000
0.199884 0.274790 0.000000
0.200133 0.299895 0.000000
0.199772 0.324775 0.000000
0.200129 0.349695 0.000000
0.199725 0.374805 0.000000
0.200121 0.399615 0.000000
0.199578 0.424800 0.000000
0.200171 0.449636 0.000000
0.199539 0.474749 0.000000
0.200316 0.499680 0.000000
0.199351 0.524678 0.000000
0.200720 0.549501 0.000000
[...]
<PointData>
<DataArray NumberOfComponents='1' type='Int32' Name='ParticleType' format='ascii'>
3
3
3
3
3
3
3
3
3
3
3
3
3
3
3
3
3
3
3
3
3
3
3
3
3
3
3
3
3
3
3
3
3
3
3
3
3
3
3
3
3
3
3
3
3
3
3
3
3
3
3
3
3
3
3
3
3
3
2
2
2
2
2
2
2
2
2
2
2
2
2
2
2
2
2
2
2
2
2
2
2
2
2
2
3
3
2
2
2
2
2
2
2
2
2
2
2
2
2
2
2
2
2
2
2
2
2
2
2
2
2
2
3
3
2
2
0
0
0
0
0
0
0
0
0
0
0
0
0
0
0
0
0
0
0
0
0
0
0
0
1
1
1
3
3
2
2
0
0
0
0
0
0
0
0
0
0
0
0
0
0
0
0
0
0
0
0
0
0
0
0
1
1
1
3
3
2
2
0
0
0
0
0
0
0
0
0
0
0
0
0
0
0
0
0
0
0
0
0
0
0
0
1
1
1
3
3
2
2
0
0
0
0
0
0
0
0
0
0
0
0
0
0
0
0
0
0
0
0
0
0
0
0
1
1
1
3
3
2
2
0
0
0
0
0
0
0
0
0
0
0
0
0
0
0
0
0
0
0
0
0
0
0
0
1
1
1
3
3
2
2
0
0
0
0
0
0
0
0
0
0
0
0
0
0
0
0
0
0
0
0
0
0
0
0
1
1
1
3
3
2
2
0
0
0
0
0
0
0
0
0
0
0
0
0
0
0
0
0
0
0
0
0
0
0
0
1
1
1
3
3
2
2
0
0
0
0
0
0
0
0
0
0
0
0
0
0
0
0
0
0
0
0
0
0
0
0
1
1
1
3
3
2
2
0
0
0
0
0
0
0
0
0
0
0
0
0
0
0
0
0
0
0
0
0
0
0
0
1
1
1
3
3
2
2
0
0
0
0
0
0
0
0
0
0
0
0
0
0
0
0
0
0
0
0
0
0
0
0
1
1
1
3
3
2
2
0
0
0
0
0
0
0
0
0
0
0
0
0
0
0
0
0
0
0
0
0
0
0
0
1
1
1
3
3
2
2
0
0
0
0
0
0
0
0
0
0
0
0
0
0
0
0
0
0
0
0
0
0
0
0
1
1
1
3
3
2
2
0
0
0
0
0
0
0
0
0
0
0
0
0
0
0
0
0
0
0
0
0
0
0
0
1
1
1
3
3
2
2
0
0
0
0
0
0
0
0
0
0
0
0
0
0
0
0
0
0
0
0
0
0
0
0
1
1
1
3
3
2
2
0
0
0
0
0
0
0
0
0
0
0
0
0
0
0
0
0
0
0
0
0
0
0
0
1
1
1
3
3
2
2
0
0
0
0
0
0
0
0
0
0
0
0
0
0
0
0
0
0
0
0
0
0
0
0
1
1
1
3
3
2
2
0
0
0
0
0
0
0
0
0
0
0
0
0
0
0
0
0
0
0
0
0
0
0
0
3
3
2
2
0
0
0
0
0
0
0
0
0
0
0
0
0
0
0
0
0
0
0
0
0
0
0
0
3
3
2
2
0
0
0
0
0
0
0
0
0
0
0
0
0
0
0
0
0
0
0
0
0
0
0
0
3
3
2
2
0
0
0
0
0
0
0
0
0
0
0
0
0
0
0
0
0
0
0
0
0
0
0
0
3
3
2
2
0
0
0
0
0
0
0
0
0
0
0
0
0
0
0
0
0
0
0
0
0
0
0
0
3
3
2
2
0
0
0
0
0
0
0
0
0
0
0
0
0
0
0
0
0
0
0
0
0
0
0
0
3
3
2
2
0
0
0
0
0
0
0
0
0
0
0
0
0
0
0
0
0
0
0
0
0
0
0
0
3
3
2
2
0
0
0
0
0
0
0
0
0
0
0
0
0
0
0
0
0
0
0
0
0
0
0
0
3
3
2
2
0
0
0
0
0
0
0
0
0
0
0
0
0
0
0
0
0
0
0
0
0
0
0
0
3
3
2
2
0
0
0
0
0
0
0
0
0
0
0
0
0
0
0
0
0
0
0
0
0
0
0
0
3
3
2
2
0
0
0
0
0
0
0
0
0
0
0
0
0
0
0
0
0
0
0
0
0
0
0
0
3
3
2
2
0
0
0
0
0
0
0
0
0
0
0
0
0
0
0
0
0
0
0
0
0
0
0
0
3
3
2
2
0
0
0
0
0
0
0
0
0
0
0
0
0
0
0
0
0
0
0
0
0
0
0
0
3
3
2
2
0
0
0
0
0
0
0
0
0
0
0
0
0
0
0
0
0
0
0
0
0
0
0
0
3
3
2
2
0
0
0
0
0
0
0
0
0
0
0
0
0
0
0
0
0
0
0
0
0
0
0
0
3
3
2
2
0
0
0
0
0
0
0
0
0
0
0
0
0
0
0
0
0
0
0
0
0
0
0
0
3
3
2
2
0
0
0
0
0
0
0
0
0
0
0
0
0
0
0
0
0
0
0
0
0
0
0
0
3
3
2
2
0
0
0
0
0
0
0
0
0
0
0
0
0
0
0
0
0
0
0
0
0
0
0
0
3
3
2
2
0
0
0
0
0
0
0
0
0
0
0
0
0
0
0
0
0
0
0
0
0
0
0
0
3
3
2
2
0
0
0
0
0
0
0
0
0
0
0
0
0
0
0
0
0
0
0
0
0
0
0
0
3
3
2
2
0
0
0
0
0
0
0
0
0
0
0
0
0
0
0
0
0
0
0
0
0
0
0
0
3
3
2
2
0
0
0
0
0
0
0
0
0
0
0
0
0
0
0
0
0
0
0
0
0
0
0
0
3
3
2
2
0
0
0
0
0
0
0
0
0
0
0
0
0
0
0
0
0
0
0
0
0
0
0
0
3
3
2
2
0
0
0
0
0
0
0
0
0
0
0
0
0
0
0
0
0
0
0
0
0
0
0
0
3
3
2
2
0
0
0
0
0
0
0
0
0
0
0
0
0
0
0
0
0
0
0
0
0
0
0
0
3
3
2
2
0
0
0
0
0
0
0
0
0
0
0
0
0
0
0
0
0
0
0
0
0
0
0
0
3
3
2
2
0
0
0
0
0
0
0
0
0
0
0
0
0
0
0
0
0
0
0
0
0
0
0
0
3
3
2
2
0
0
0
0
0
0
0
0
0
0
0
0
0
0
0
0
0
0
0
0
0
0
0
0
3
3
2
2
0
0
0
0
0
0
0
0
0
0
0
0
0
0
0
0
0
0
0
0
0
0
0
0
3
3
2
2
0
0
0
0
0
0
0
0
0
0
0
0
0
0
0
0
0
0
0
0
0
0
0
0
3
3
2
2
0
0
0
0
0
0
0
0
0
0
0
0
0
0
0
0
0
0
0
0
0
0
0
0
3
3
2
2
0
0
0
0
0
0
0
0
0
0
0
0
0
0
0
0
0
0
0
0
0
0
0
0
3
3
2
2
0
0
0
0
0
0
0
0
0
0
0
0
0
0
0
0
0
0
0
0
0
0
0
0
3
3
2
2
0
0
0
0
0
0
0
0
0
0
0
0
0
0
0
0
0
0
0
0
0
0
0
0
3
3
2
2
0
0
0
0
0
0
0
0
0
0
0
0
0
0
0
0
0
0
0
0
0
0
0
0
3
3
2
2
0
0
0
0
0
0
0
0
0
0
0
0
0
0
0
0
0
0
0
0
0
0
0
0
3
3
2
2
0
0
0
0
0
0
0
0
0
0
0
0
0
0
0
0
0
0
0
0
0
0
0
0
3
3
2
2
0
0
0
0
0
0
0
0
0
0
0
0
0
0
0
0
0
0
0
0
0
0
0
0
3
3
2
2
0
0
0
0
0
0
0
0
0
0
0
0
0
0
0
0
0
0
0
0
0
0
0
0
3
3
2
2
0
0
0
0
0
0
0
0
0
0
0
0
0
0
0
0
0
0
0
0
0
0
0
0
3
3
2
2
0
0
0
0
0
0
0
0
0
0
0
0
0
0
0
0
0
0
0
0
0
0
0
0
3
3
2
2
0
0
0
0
0
0
0
0
0
0
0
0
0
0
0
0
0
0
0
0
0
0
0
0
3
3
2
2
0
0
0
0
0
0
0
0
0
0
0
0
0
0
0
0
0
0
0
0
0
0
0
0
3
3
2
2
0
0
0
0
0
0
0
0
0
0
0
0
0
0
0
0
0
0
0
0
0
0
0
0
3
3
2
2
0
0
0
0
0
0
0
0
0
0
0
0
0
0
0
0
0
0
0
0
0
0
0
0
3
3
2
2
0
0
0
0
0
0
0
0
0
0
0
0
0
0
0
0
0
0
0
0
0
0
0
0
3
3
2
2
0
0
0
0
0
0
0
0
0
0
0
0
0
0
0
0
0
0
0
0
0
0
0
0
3
3
2
2
0
0
0
0
0
0
0
0
0
0
0
0
0
0
0
0
0
0
0
0
0
0
0
0
3
3
2
2
0
0
0
0
0
0
0
0
0
0
0
0
0
0
0
0
0
0
0
0
0
0
0
0
3
3
2
2
0
0
0
0
0
0
0
0
0
0
0
0
0
0
0
0
0
0
0
0
0
0
0
0
3
3
2
2
0
0
0
0
0
0
0
0
0
0
0
0
0
0
0
0
0
0
0
0
0
0
0
0
3
3
2
2
0
0
0
0
0
0
0
0
0
0
0
0
0
0
0
0
0
0
0
0
0
0
0
0
3
3
2
2
0
0
0
0
0
0
0
0
0
0
0
0
0
0
0
0
0
0
0
0
0
0
0
0
3
3
2
2
0
0
0
0
0
0
0
0
0
0
0
0
0
0
0
0
0
0
0
0
0
0
0
0
3
3
2
2
0
0
0
0
0
0
0
0
0
0
0
0
0
0
0
0
0
0
0
0
0
0
0
0
3
3
2
2
0
0
0
0
0
0
0
0
0
0
0
0
0
0
0
0
0
0
0
0
0
0
0
0
3
3
2
2
0
0
0
0
0
0
0
0
0
0
0
0
0
0
0
0
0
0
0
0
0
0
0
0
3
3
2
2
0
0
0
0
0
0
0
0
0
0
0
0
0
0
0
0
0
0
0
0
0
0
0
0
3
3
2
2
0
0
0
0
0
0
0
0
0
0
0
0
0
0
0
0
0
0
0
0
0
0
0
0
3
3
2
2
0
0
0
0
0
0
0
0
0
0
0
0
0
0
0
0
0
0
0
0
0
0
0
0
3
3
2
2
0
0
0
0
0
0
0
0
0
0
0
0
0
0
0
0
0
0
0
0
0
0
0
0
3
3
2
2
0
0
0
0
0
0
0
0
0
0
0
0
0
0
0
0
0
0
0
0
0
0
0
0
3
3
2
2
0
0
0
0
0
0
0
0
0
0
0
0
0
0
0
0
0
0
0
0
0
0
0
0
3
3
2
2
0
0
0
0
0
0
0
0
0
0
0
0
0
0
0
0
0
0
0
0
0
0
0
0
3
3
2
2
2
2
2
2
2
2
2
2
2
2
2
2
2
2
2
2
2
2
2
2
2
2
2
2
3
3
2
2
2
2
2
2
2
2
2
2
2
2
2
2
2
2
2
2
2
2
2
2
2
2
2
2
3
3
3
3
3
3
3
3
3
3
3
3
3
3
3
3
3
3
3
3
3
3
3
3
3
3
3
3
3
3
3
3
3
3
3
3
3
3
3
3
3
3
3
3
3
3
3
3
3
3
3
3
3
3
3
3
</DataArray>
<DataArray NumberOfComponents='1' type='Float32' Name='Velocity' format='ascii'>
0.000000
0.000000
0.000000
0.000000
0.000000
0.000000
0.000000
0.000000
0.000000
0.000000
0.000000
0.000000
0.000000
0.000000
0.000000
0.000000
0.000000
0.000000
0.000000
0.000000
0.000000
0.000000
0.000000
0.000000
0.000000
0.000000
0.000000
0.000000
0.000000
0.000000
0.000000
0.000000
0.000000
0.000000
0.000000
0.000000
0.000000
0.000000
0.000000
0.000000
0.000000
0.000000
0.000000
0.000000
0.000000
0.000000
0.000000
0.000000
0.000000
0.000000
0.000000
0.000000
0.000000
0.000000
0.000000
0.000000
0.000000
0.000000
0.000000
0.000000
0.000000
0.000000
0.000000
0.000000
0.000000
0.000000
0.000000
0.000000
0.000000
0.000000
0.000000
0.000000
0.000000
0.000000
0.000000
0.000000
0.000000
0.000000
0.000000
0.000000
0.000000
0.000000
0.000000
0.000000
0.000000
0.000000
0.000000
0.000000
0.000000
0.000000
0.000000
0.000000
0.000000
0.000000
0.000000
0.000000
0.000000
0.000000
0.000000
0.000000
0.000000
0.000000
0.000000
0.000000
0.000000
0.000000
0.000000
0.000000
0.000000
0.000000
0.000000
0.000000
0.000000
0.000000
0.000000
0.000000
0.002314
0.004075
0.005500
0.002977
0.006360
0.009598
0.007466
0.000887
0.003005
0.002676
0.003065
0.002550
0.006619
0.005649
0.006806
0.011726
0.012007
0.007998
0.013646
0.011940
0.017263
0.016674
0.024753
0.100594
1.000000
1.000000
1.000000
0.000000
0.000000
0.000000
0.000000
0.004501
0.003323
0.001588
0.002773
0.004698
0.006266
0.003614
0.004259
0.003768
0.009633
0.003055
0.005137
0.009402
0.006492
0.008629
0.008061
0.009176
0.009251
0.010731
0.009276
0.007462
0.001972
0.008211
0.019490
1.000000
1.000000
1.000000
0.000000
0.000000
0.000000
0.000000
0.004141
0.002855
0.002400
0.003942
0.005620
0.002129
0.000861
0.005244
0.002687
0.002655
0.003662
0.001795
0.007448
0.001403
0.013688
0.007777
0.012662
0.014467
0.020571
0.017304
0.025867
0.034659
0.053973
0.030051
1.000000
1.000000
1.000000
0.000000
0.000000
0.000000
0.000000
0.002853
0.000623
0.001658
0.002101
0.001602
0.004217
0.007200
0.006471
0.004276
0.004160
0.004865
0.007409
0.007874
0.008203
0.014845
0.013413
0.012191
0.020957
0.020286
0.014817
0.024729
0.029361
0.036062
0.027246
1.000000
1.000000
1.000000
0.000000
0.000000
0.000000
0.000000
0.002510
0.001901
0.003534
0.001388
0.001762
0.004594
0.002813
0.002399
0.005802
0.003560
0.008263
0.001192
0.006858
0.000765
0.005487
0.003126
0.005832
0.001225
0.011674
0.004633
0.005051
0.019368
0.018096
0.008966
1.000000
1.000000
1.000000
0.000000
0.000000
0.000000
0.000000
0.004120
0.002947
0.000550
0.002567
0.003990
0.005418
0.000512
0.004974
0.010243
0.005778
0.004390
0.003934
0.002470
0.003998
0.004818
0.004865
0.005419
0.003265
0.003543
0.005010
0.008967
0.014775
0.005586
0.011994
1.000000
1.000000
1.000000
0.000000
0.000000
0.000000
0.000000
0.002226
0.002619
0.002153
0.003553
0.000395
0.001566
0.006452
0.005492
0.008390
0.004181
0.004454
0.010894
0.002110
0.001186
0.004203
0.002036
0.007916
0.005640
0.007086
0.005874
0.002657
0.019923
0.007609
0.017523
1.000000
1.000000
1.000000
0.000000
0.000000
0.000000
0.000000
0.002902
0.000063
0.001639
0.003270
0.002052
0.002063
0.006149
0.006768
0.003127
0.008660
0.014243
0.006948
0.005318
0.005804
0.003078
0.001728
0.003182
0.007931
0.009612
0.012162
0.009931
0.012572
0.007893
0.012379
1.000000
1.000000
1.000000
0.000000
0.000000
0.000000
0.000000
0.005218
0.001859
0.001304
0.001540
0.003020
0.003076
0.005329
0.003475
0.008510
0.015977
0.006572
0.005135
0.015547
0.008635
0.007872
0.000362
0.010407
0.004042
0.006749
0.004799
0.008787
0.022624
0.018198
0.021469
1.000000
1.000000
1.000000
0.000000
0.000000
0.000000
0.000000
0.004793
0.002570
0.001275
0.003119
0.001091
0.002046
0.006650
0.002290
0.006981
0.006079
0.001100
0.016094
0.012429
0.006895
0.008863
0.006409
0.009561
0.008067
0.017059
0.006053
0.006725
0.005064
0.016272
0.019952
1.000000
1.000000
1.000000
0.000000
0.000000
0.000000
0.000000
0.005235
0.001518
0.002000
0.002294
0.002516
0.001580
0.002007
0.006372
0.006192
0.004618
0.013781
0.016122
0.010364
0.012754
0.015556
0.009235
0.007347
0.001984
0.009284
0.013553
0.021755
0.011119
0.035003
0.019409
1.000000
1.000000
1.000000
0.000000
0.000000
0.000000
0.000000
0.003013
0.001607
0.001497
0.003647
0.002232
0.000420
0.006525
0.004602
0.003674
0.005942
0.003541
0.005461
0.011443
0.015252
0.017625
0.009019
0.005587
0.006712
0.011195
0.003539
0.015918
0.018501
0.034897
0.042822
1.000000
1.000000
1.000000
0.000000
0.000000
0.000000
0.000000
0.004491
0.001647
0.002927
0.002534
0.002556
0.004872
0.000958
0.003904
0.004331
0.003191
0.010945
0.006083
0.008399
0.022957
0.012655
0.012618
0.026474
0.010763
0.022540
0.010264
0.022417
0.039771
0.015598
0.012394
1.000000
1.000000
1.000000
0.000000
0.000000
0.000000
0.000000
0.004729
0.002141
0.004406
0.002451
0.002421
0.002678
0.004429
0.004649
0.004017
0.003906
0.007721
0.009699
0.015502
0.004827
0.010376
0.029880
0.002557
0.012425
0.021352
0.013408
0.015774
0.016247
0.022698
0.029547
1.000000
1.000000
1.000000
0.000000
0.000000
0.000000
0.000000
0.004747
0.002040
0.003255
0.000985
0.004745
0.003211
0.003267
0.004970
0.002238
0.004060
0.005440
0.001989
0.003196
0.009608
0.024553
0.017582
0.013356
0.007661
0.011461
0.004914
0.005063
0.026465
0.008875
0.023064
1.000000
1.000000
1.000000
0.000000
0.000000
0.000000
0.000000
0.007148
0.002620
0.002568
0.001925
0.003275
0.002164
0.004693
0.002692
0.004556
0.006115
0.008381
0.005620
0.003297
0.017198
0.018358
0.011728
0.034693
0.038993
0.037165
0.013854
0.020769
0.025082
0.007344
0.004774
1.000000
1.000000
1.000000
0.000000
0.000000
0.000000
0.000000
0.005831
0.004207
0.001753
0.002820
0.002089
0.004611
0.003295
0.004307
0.008382
0.002717
0.014995
0.006254
0.019496
0.011003
0.004865
0.027769
0.020438
0.017750
0.035260
0.020107
0.018078
0.028152
0.043667
0.029057
0.000000
0.000000
0.000000
0.000000
0.006609
0.001327
0.002013
0.001481
0.002660
0.001158
0.003282
0.001364
0.003351
0.009161
0.006118
0.010227
0.007972
0.009914
0.016815
0.023712
0.021138
0.009350
0.021746
0.014621
0.012258
0.021090
0.031125
0.025302
0.000000
0.000000
0.000000
0.000000
0.006268
0.003480
0.003749
0.005302
0.003780
0.005230
0.002965
0.006194
0.006636
0.004455
0.015393
0.001449
0.016645
0.012380
0.004088
0.013586
0.039195
0.040576
0.055986
0.026184
0.017995
0.027020
0.034174
0.022946
0.000000
0.000000
0.000000
0.000000
0.008023
0.003889
0.004596
0.002996
0.002086
0.002329
0.002551
0.001394
0.000747
0.006846
0.007832
0.012194
0.006053
0.005251
0.001027
0.011501
0.014624
0.016755
0.026114
0.046999
0.048830
0.050659
0.031757
0.047207
0.000000
0.000000
0.000000
0.000000
0.007949
0.004085
0.001292
0.003846
0.002997
0.003559
0.004080
0.002981
0.008217
0.001645
0.013786
0.002057
0.017202
0.005389
0.021592
0.015106
0.036344
0.005826
0.017542
0.041213
0.006916
0.033876
0.022277
0.046297
0.000000
0.000000
0.000000
0.000000
0.006393
0.002134
0.003391
0.003684
0.001521
0.003555
0.001727
0.003941
0.003723
0.006819
0.007751
0.008043
0.006368
0.007777
0.007998
0.014378
0.026555
0.038454
0.073256
0.036359
0.021286
0.069706
0.018483
0.089988
0.000000
0.000000
0.000000
0.000000
0.008448
0.004642
0.001177
0.003824
0.001826
0.003685
0.004541
0.004016
0.009729
0.005472
0.014619
0.002785
0.006739
0.006648
0.003858
0.006303
0.008996
0.010970
0.020408
0.030037
0.088709
0.034970
0.028883
0.040701
0.000000
0.000000
0.000000
0.000000
0.008749
0.000339
0.002160
0.002416
0.001567
0.002340
0.000542
0.003623
0.008761
0.009647
0.010312
0.006950
0.006788
0.006717
0.000407
0.012134
0.009662
0.010309
0.017565
0.058589
0.054295
0.098111
0.062407
0.026918
0.000000
0.000000
0.000000
0.000000
0.005568
0.000860
0.002317
0.003830
0.001220
0.002842
0.005112
0.001969
0.008643
0.004399
0.010965
0.004862
0.007196
0.008097
0.006431
0.003152
0.013511
0.009497
0.014959
0.010617
0.032556
0.042702
0.049062
0.108816
0.000000
0.000000
0.000000
0.000000
0.009132
0.000521
0.000649
0.004248
0.002434
0.003190
0.003293
0.003084
0.004969
0.005023
0.007195
0.006304
0.008225
0.004141
0.008522
0.011299
0.007963
0.013784
0.025040
0.028392
0.051679
0.080864
0.113232
0.179181
0.000000
0.000000
0.000000
0.000000
0.005768
0.000680
0.002466
0.002051
0.003506
0.002602
0.004005
0.002389
0.006282
0.004260
0.008158
0.004409
0.011284
0.005521
0.008298
0.006743
0.016018
0.013306
0.019864
0.028194
0.050166
0.053074
0.107610
0.254688
0.000000
0.000000
0.000000
0.000000
0.008943
0.002103
0.003190
0.005294
0.003646
0.003415
0.004252
0.003292
0.003268
0.003726
0.009364
0.006304
0.010186
0.008705
0.011954
0.012323
0.010936
0.022865
0.018324
0.033273
0.024036
0.069748
0.033032
0.166453
0.000000
0.000000
0.000000
0.000000
0.009150
0.000390
0.002320
0.003529
0.005029
0.005224
0.003346
0.004309
0.006281
0.003918
0.006507
0.007243
0.007770
0.011229
0.006404
0.016689
0.009112
0.018013
0.005579
0.033456
0.008451
0.026276
0.051798
0.098641
0.000000
0.000000
0.000000
0.000000
0.007003
0.002504
0.003535
0.003810
0.001881
0.004010
0.004687
0.004794
0.004207
0.005821
0.005281
0.006467
0.006416
0.009012
0.010735
0.009798
0.013066
0.017068
0.007206
0.016111
0.015445
0.026732
0.015390
0.094175
0.000000
0.000000
0.000000
0.000000
0.009982
0.000580
0.002167
0.005220
0.004158
0.004136
0.003801
0.003715
0.005846
0.004600
0.006686
0.006662
0.007579
0.008793
0.008506
0.015855
0.005592
0.022388
0.005325
0.020415
0.009304
0.019403
0.035312
0.079295
0.000000
0.000000
0.000000
0.000000
0.007776
0.000330
0.002514
0.003390
0.003727
0.004914
0.005790
0.004648
0.004227
0.006280
0.002712
0.008829
0.004762
0.011428
0.003417
0.014840
0.005426
0.011504
0.002436
0.015535
0.007315
0.007579
0.017073
0.059746
0.000000
0.000000
0.000000
0.000000
0.008607
0.001345
0.003043
0.003583
0.004169
0.004133
0.003011
0.006374
0.002710
0.006125
0.005163
0.005408
0.005374
0.008065
0.005443
0.009481
0.006284
0.013575
0.002908
0.012135
0.010161
0.008859
0.017628
0.049882
0.000000
0.000000
0.000000
0.000000
0.009701
0.000809
0.003276
0.004429
0.002786
0.004584
0.003636
0.003984
0.005971
0.005234
0.006249
0.007536
0.002973
0.008663
0.004737
0.011494
0.001293
0.011764
0.003070
0.010109
0.005948
0.009445
0.022139
0.039636
0.000000
0.000000
0.000000
0.000000
0.008426
0.001185
0.002380
0.003502
0.003604
0.005059
0.005069
0.005421
0.004816
0.006345
0.001275
0.007132
0.004168
0.008221
0.001051
0.009806
0.003994
0.010297
0.005053
0.011385
0.007807
0.010067
0.018348
0.024596
0.000000
0.000000
0.000000
0.000000
0.008620
0.000949
0.003188
0.004082
0.003638
0.003970
0.004170
0.005635
0.002627
0.006047
0.005493
0.006375
0.003310
0.007735
0.004987
0.007970
0.002976
0.008092
0.002433
0.007852
0.005393
0.010067
0.011131
0.019308
0.000000
0.000000
0.000000
0.000000
0.008876
0.001294
0.003025
0.003705
0.003978
0.004975
0.003409
0.004943
0.005587
0.006110
0.003564
0.006505
0.003647
0.006559
0.001368
0.008003
0.002111
0.009602
0.003571
0.010938
0.005537
0.010743
0.008082
0.012875
0.000000
0.000000
0.000000
0.000000
0.008540
0.001237
0.003649
0.004069
0.003143
0.004588
0.004483
0.005431
0.003653
0.005618
0.003271
0.006858
0.002407
0.007943
0.003095
0.007991
0.001898
0.007438
0.002725
0.006710
0.001837
0.009314
0.003831
0.011443
0.000000
0.000000
0.000000
0.000000
0.008335
0.001460
0.002656
0.003931
0.003511
0.005059
0.004071
0.005691
0.003600
0.006366
0.003649
0.005681
0.003044
0.005948
0.001555
0.006351
0.002893
0.007326
0.002340
0.008912
0.004814
0.009109
0.004597
0.009423
0.000000
0.000000
0.000000
0.000000
0.008228
0.001248
0.003338
0.003873
0.003897
0.004521
0.003490
0.005289
0.004249
0.005305
0.003201
0.006177
0.002686
0.006569
0.003049
0.007160
0.001556
0.007001
0.002607
0.006735
0.000577
0.007726
0.001018
0.007688
0.000000
0.000000
0.000000
0.000000
0.007649
0.001886
0.003389
0.003845
0.003092
0.004613
0.004292
0.005330
0.003213
0.005923
0.003263
0.005810
0.002204
0.005750
0.001245
0.005348
0.001942
0.006369
0.001167
0.006548
0.003210
0.007665
0.002232
0.007870
0.000000
0.000000
0.000000
0.000000
0.008290
0.001357
0.002944
0.003974
0.003676
0.004835
0.003048
0.004939
0.003978
0.005081
0.002776
0.005324
0.002915
0.005772
0.002424
0.006437
0.002294
0.005890
0.002474
0.007053
0.000829
0.006160
0.001539
0.006006
0.000000
0.000000
0.000000
0.000000
0.007168
0.001402
0.003457
0.003559
0.003088
0.004386
0.004490
0.005329
0.003092
0.005246
0.003418
0.005306
0.001727
0.005107
0.002232
0.004587
0.001023
0.005769
0.001148
0.004742
0.001647
0.006656
0.000850
0.006597
0.000000
0.000000
0.000000
0.000000
0.007804
0.001703
0.003015
0.003385
0.003922
0.004530
0.002872
0.004655
0.003855
0.005017
0.002423
0.004616
0.003473
0.004889
0.001720
0.005379
0.002740
0.005031
0.001914
0.006702
0.001873
0.005478
0.002146
0.005327
0.000000
0.000000
0.000000
0.000000
0.006787
0.001274
0.003701
0.003759
0.002993
0.003872
0.004213
0.004856
0.003206
0.004791
0.003674
0.005010
0.001623
0.004363
0.002817
0.004293
0.001225
0.005095
0.001954
0.004309
0.001279
0.005846
0.001255
0.005576
0.000000
0.000000
0.000000
0.000000
0.007968
0.001586
0.003134
0.003032
0.003676
0.004768
0.003476
0.004285
0.003864
0.004597
0.002451
0.004082
0.003501
0.004467
0.001982
0.004274
0.002744
0.004434
0.001383
0.005641
0.002378
0.005295
0.002260
0.005019
0.000000
0.000000
0.000000
0.000000
0.006290
0.001024
0.003617
0.003222
0.003910
0.003543
0.003838
0.004788
0.003222
0.004204
0.003527
0.004754
0.002452
0.003920
0.002618
0.004295
0.001745
0.004410
0.002699
0.004608
0.001592
0.005098
0.002034
0.004869
0.000000
0.000000
0.000000
0.000000
0.006994
0.002093
0.003662
0.003017
0.003013
0.003997
0.003744
0.004084
0.003909
0.004885
0.003472
0.003679
0.002878
0.003865
0.002507
0.003727
0.002536
0.004572
0.001417
0.004638
0.002291
0.005078
0.002254
0.004764
0.000000
0.000000
0.000000
0.000000
0.007325
0.000949
0.003175
0.002872
0.004253
0.003850
0.004144
0.004319
0.003971
0.003859
0.002575
0.004470
0.002973
0.003819
0.002751
0.004025
0.002716
0.003865
0.002944
0.004886
0.002139
0.004724
0.002612
0.004495
0.000000
0.000000
0.000000
0.000000
0.005294
0.001541
0.003963
0.002916
0.003467
0.003718
0.003691
0.004284
0.003046
0.004114
0.004279
0.003682
0.003150
0.003801
0.002995
0.003698
0.002179
0.004474
0.001915
0.004144
0.002411
0.004902
0.002436
0.004575
0.000000
0.000000
0.000000
0.000000
0.007480
0.002098
0.003359
0.002737
0.003536
0.003601
0.003692
0.003983
0.004694
0.004696
0.003052
0.003950
0.003162
0.003589
0.002518
0.003681
0.003239
0.003923
0.003131
0.004939
0.002672
0.004486
0.002773
0.004162
0.000000
0.000000
0.000000
0.000000
0.005170
0.000605
0.003158
0.002853
0.003758
0.003749
0.004490
0.004682
0.003372
0.003614
0.003578
0.003907
0.003031
0.003494
0.003611
0.003957
0.002656
0.004449
0.002423
0.004197
0.002478
0.004831
0.002777
0.004491
0.000000
0.000000
0.000000
0.000000
0.005801
0.002365
0.003941
0.002643
0.003912
0.003951
0.003375
0.003418
0.003664
0.004412
0.003421
0.003895
0.003535
0.004311
0.002915
0.003587
0.003557
0.003739
0.003401
0.004499
0.003295
0.004531
0.002972