<?xml version='1.0' encoding='UTF-8'?>
<VTKFile xmlns='VTK' byte_order='LittleEndian' version='0.1' type='UnstructuredGrid'>
<UnstructuredGrid>
<Piece NumberOfCells='2512' NumberOfPoints='2512'>
<Points>
<DataArray NumberOfComponents='3' type='Float32' Name='Position' format='ascii'>
-0.075000 -0.075000 0.000000
-0.075000 -0.050000 0.000000
-0.075000 -0.025000 0.000000
-0.075000 0.000000 0.000000
-0.075000 0.025000 0.000000
-0.075000 0.050000 0.000000
-0.075000 0.075000 0.000000
-0.075000 0.100000 0.000000
-0.075000 0.125000 0.000000
-0.075000 0.150000 0.000000
-0.075000 0.175000 0.000000
-0.075000 0.200000 0.000000
-0.075000 0.225000 0.000000
-0.075000 0.250000 0.000000
-0.075000 0.275000 0.000000
-0.075000 0.300000 0.000000
-0.075000 0.325000 0.000000
-0.075000 0.350000 0.000000
-0.075000 0.375000 0.000000
-0.075000 0.400000 0.000000
-0.075000 0.425000 0.000000
-0.075000 0.450000 0.000000
-0.075000 0.475000 0.000000
-0.075000 0.500000 0.000000
-0.075000 0.525000 0.000000
-0.075000 0.550000 0.000000
-0.075000 0.575000 0.000000
-0.075000 0.600000 0.000000
-0.050000 -0.075000 0.000000
-0.050000 -0.050000 0.000000
-0.050000 -0.025000 0.000000
-0.050000 0.000000 0.000000
-0.050000 0.025000 0.000000
-0.050000 0.050000 0.000000
-0.050000 0.075000 0.000000
-0.050000 0.100000 0.000000
-0.050000 0.125000 0.000000
-0.050000 0.150000 0.000000
-0.050000 0.175000 0.000000
-0.050000 0.200000 0.000000
-0.050000 0.225000 0.000000
-0.050000 0.250000 0.000000
-0.050000 0.275000 0.000000
-0.050000 0.300000 0.000000
-0.050000 0.325000 0.000000
-0.050000 0.350000 0.000000
-0.050000 0.375000 0.000000
-0.050000 0.400000 0.000000
-0.050000 0.425000 0.000000
-0.050000 0.450000 0.000000
-0.050000 0.475000 0.000000
-0.050000 0.500000 0.000000
-0.050000 0.525000 0.000000
-0.050000 0.550000 0.000000
-0.050000 0.575000 0.000000
-0.050000 0.600000 0.000000
-0.025000 -0.075000 0.000000
-0.025000 -0.050000 0.000000
-0.025000 -0.025000 0.000000
-0.025000 0.000000 0.000000
-0.025000 0.025000 0.000000
-0.025000 0.050000 0.000000
-0.025000 0.075000 0.000000
-0.025000 0.100000 0.000000
-0.025000 0.125000 0.000000
-0.025000 0.150000 0.000000
-0.025000 0.175000 0.000000
-0.025000 0.200000 0.000000
-0.025000 0.225000 0.000000
-0.025000 0.250000 0.000000
-0.025000 0.275000 0.000000
-0.025000 0.300000 0.000000
-0.025000 0.325000 0.000000
-0.025000 0.350000 0.000000
-0.025000 0.375000 0.000000
-0.025000 0.400000 0.000000
-0.025000 0.425000 0.000000
-0.025000 0.450000 0.000000
-0.025000 0.475000 0.000000
-0.025000 0.500000 0.000000
-0.025000 0.525000 0.000000
-0.025000 0.550000 0.000000
-0.025000 0.575000 0.000000
-0.025000 0.600000 0.000000
0.000000 -0.075000 0.000000
0.000000 -0.050000 0.000000
0.000000 -0.025000 0.000000
0.000000 0.000000 0.000000
0.000000 0.025000 0.000000
0.000000 0.050000 0.000000
0.000000 0.075000 0.000000
0.000000 0.100000 0.000000
0.000000 0.125000 0.000000
0.000000 0.150000 0.000000
0.000000 0.175000 0.000000
0.000000 0.200000 0.000000
0.000000 0.225000 0.000000
0.000000 0.250000 0.000000
0.000000 0.275000 0.000000
0.000000 0.300000 0.000000
0.000000 0.325000 0.000000
0.000000 0.350000 0.000000
0.000000 0.375000 0.000000
0.000000 0.400000 0.000000
0.000000 0.425000 0.000000
0.000000 0.450000 0.000000
0.000000 0.475000 0.000000
0.000000 0.500000 0.000000
0.000000 0.525000 0.000000
0.000000 0.550000 0.000000
0.000000 0.575000 0.000000
0.000000 0.600000 0.000000
0.025000 -0.075000 0.000000
0.025000 -0.050000 0.000000
0.025000 -0.025000 0.000000
0.025000 0.000000 0.000000
-2414.845441 0.600000 0.000000
62.957663 -108.176092 0.000000
-21.232202 -36.284891 0.000000
15.192593 -35.473055 0.000000
0.135931 0.057418 0.000000
-55306981.160927 0.600000 0.000000
9.278410 -66.693990 0.000000
27.094961 -49.269262 0.000000
-40.256666 -7.521777 0.000000
9.953425 -288.688477 0.000000
491.853573 -1699.542202 0.000000
32.476281 -215.801011 0.000000
45007.674215 0.600000 0.000000
-16537.973315 0.600000 0.000000
-76.431022 0.600000 0.000000
-247.714242 -475.797635 0.000000
-71.326516 -70.291155 0.000000
619.613352 -864.243638 0.000000
63.469303 -73.474710 0.000000
-990.952666 0.600000 0.000000
254.606690 -543.746479 0.000000
-646.414931 0.600000 0.000000
-1509.722606 0.600000 0.000000
49497545.739393 0.600000 0.000000
1.595000 0.625000 0.000000
1.595000 0.650000 0.000000
1.595000 0.675000 0.000000
0.050000 -0.075000 0.000000
0.050000 -0.050000 0.000000
0.050000 -0.025000 0.000000
0.050000 0.000000 0.000000
-81.057203 0.600000 0.000000
-72.760245 -22.687091 0.000000
1061.348267 0.600000 0.000000
54.700564 0.600000 0.000000
3095.326145 0.600000 0.000000
-19.885750 -14.759182 0.000000
-18.539472 -37.010112 0.000000
-16.261467 0.510767 0.000000
-13319.775434 -24806.974368 0.000000
12937.830584 0.600000 0.000000
5.761849 -74.868994 0.000000
64.223382 -61.572600 0.000000
-166.899535 -65.133716 0.000000
1606.851828 0.595958 0.000000
13582.112970 0.600000 0.000000
-650.074242 0.600000 0.000000
-78.901254 -39.460562 0.000000
-241.236452 0.600000 0.000000
1243.891396 0.600000 0.000000
-174.121850 -230.043791 0.000000
850.889445 0.600000 0.000000
16421.356642 -3424.912910 0.000000
162.763736 -668.845519 0.000000
1771.641186 0.600000 0.000000
1.620000 0.625000 0.000000
1.620000 0.650000 0.000000
1.620000 0.675000 0.000000
0.075000 -0.075000 0.000000
0.075000 -0.050000 0.000000
0.075000 -0.025000 0.000000
0.075000 0.000000 0.000000
-54.526369 -55.012130 0.000000
20295.961490 0.600000 0.000000
18.101208 0.600000 0.000000
-2619.951202 0.600000 0.000000
-43.147792 -30.649992 0.000000
154.020676 0.600000 0.000000
28.504770 -135.939111 0.000000
3114.008454 0.600000 0.000000
605.204521 0.600000 0.000000
31.396532 -371.368252 0.000000
101.476796 -100.287383 0.000000
-1112.125301 0.600000 0.000000
-519.306443 0.600000 0.000000
773.372455 -511.957488 0.000000
559.349321 0.600000 0.000000
20.106702 -1.732410 0.000000
3104.539752 -1234.810228 0.000000
0.314186 0.122008 0.000000
212.151490 -167.413455 0.000000
50.626301 -72.464403 0.000000
4078.365818 0.600000 0.000000
-74.290030 -204.542048 0.000000
-5712.246032 0.600000 0.000000
-1274.613414 0.600000 0.000000
1.645000 0.625000 0.000000
1.645000 0.650000 0.000000
1.645000 0.675000 0.000000
0.100000 -0.075000 0.000000
0.100000 -0.050000 0.000000
0.100000 -0.025000 0.000000
0.100000 0.000000 0.000000
-1817.109125 0.598031 0.000000
93276929.462986 0.600000 0.000000
-679.109110 -645.651693 0.000000
77464.534304 0.600000 0.000000
-6189.850874 0.600000 0.000000
-3.159737 0.600000 0.000000
-131972.839060 0.600000 0.000000
103.981930 -1.976024 0.000000
16.121127 -23.861086 0.000000
66.569115 -30.155536 0.000000
-24.744562 -43.668585 0.000000
-1927.292103 0.600000 0.000000
-128.892493 0.600000 0.000000
211.881141 -51.769605 0.000000
-140.950694 0.600000 0.000000
-123.759728 -104.826151 0.000000
0.059094 0.019932 0.000000
-23.769437 0.600000 0.000000
62.066063 -40.855970 0.000000
-191.352998 0.600000 0.000000
0.987100 0.196551 0.000000
87.444014 -129.765027 0.000000
1968.046386 0.600000 0.000000
-24740.503702 0.600000 0.000000
1.670000 0.625000 0.000000
1.670000 0.650000 0.000000
1.670000 0.675000 0.000000
0.125000 -0.075000 0.000000
0.125000 -0.050000 0.000000
0.125000 -0.025000 0.000000
0.125000 0.000000 0.000000
-556.798806 0.600000 0.000000
1747.265824 0.600000 0.000000
-1622.497345 0.600000 0.000000
-501.395795 0.600000 0.000000
6.642196 -40.549734 0.000000
121.802174 -86.018308 0.000000
-716.314911 0.600000 0.000000
-12.447255 -82.070481 0.000000
47674.105057 0.600000 0.000000
-304.912965 -1004.976002 0.000000
-404.321361 0.600000 0.000000
-5868.855838 0.600000 0.000000
-18.713987 -2.269566 0.000000
-272.252968 0.600000 0.000000
-381.625164 0.600000 0.000000
-543.168982 0.600000 0.000000
5614.412591 0.600000 0.000000
1206.129884 0.600000 0.000000
-25.956426 -97.478856 0.000000
-208.976119 -129.929950 0.000000
-117.369342 -1.417839 0.000000
2380.210105 0.600000 0.000000
597083.263897 0.600000 0.000000
-188955.499429 0.600000 0.000000
1.695000 0.625000 0.000000
1.695000 0.650000 0.000000
1.695000 0.675000 0.000000
0.150000 -0.075000 0.000000
0.150000 -0.050000 0.000000
0.150000 -0.025000 0.000000
0.150000 0.000000 0.000000
-37.242158 0.600000 0.000000
-1302.055308 0.600000 0.000000
-1.190948 -41.508918 0.000000
-149.074306 -92.034789 0.000000
-4432.812683 0.600000 0.000000
1.323764 0.033847 0.000000
268.949466 0.600000 0.000000
7.579902 -22.596123 0.000000
-160.199463 0.600000 0.000000
-3808.828977 0.600000 0.000000
-470.715346 -212.104185 0.000000
22.880414 -53.787139 0.000000
-78.881273 -71.810937 0.000000
-25466.629881 0.600000 0.000000
-7645.063466 0.600000 0.000000
-148.316393 -60.325482 0.000000
-192.583767 0.600000 0.000000
9.716174 -4150.897885 0.000000
7927.821258 0.600000 0.000000
5477.459201 0.600000 0.000000
-7651.331669 0.600000 0.000000
127.715475 -307.880175 0.000000
3139.873319 0.600000 0.000000
1265.953426 0.600000 0.000000
1.720000 0.625000 0.000000
1.720000 0.650000 0.000000
1.720000 0.675000 0.000000
0.175000 -0.075000 0.000000
0.175000 -0.050000 0.000000
0.175000 -0.025000 0.000000
0.175000 0.000000 0.000000
-345.510814 0.600000 0.000000
-3862.572687 0.600000 0.000000
8.580881 -35.250500 0.000000
62728.124888 0.600000 0.000000
707.379382 0.600000 0.000000
-159.117106 -121.890205 0.000000
18.285030 -153.865748 0.000000
236.682231 0.600000 0.000000
-1525.234176 0.600000 0.000000
-896.842607 -458.049175 0.000000
18159.610204 0.600000 0.000000
-2798.401306 0.600000 0.000000
3102.103978 0.600000 0.000000
4975.103329 0.600000 0.000000
1836.204044 -883.785497 0.000000
-470.285079 0.600000 0.000000
-4370.074375 -9756.195531 0.000000
4047.409320 0.600000 0.000000
22133237.658636 0.600000 0.000000
732.334484 0.600000 0.000000
7738.725342 0.600000 0.000000
-611.973312 -282.485505 0.000000
-89.113684 -548.308565 0.000000
2198.592071 0.600000 0.000000
1.745000 0.625000 0.000000
1.745000 0.650000 0.000000
1.745000 0.675000 0.000000
0.200000 -0.075000 0.000000
0.200000 -0.050000 0.000000
0.200000 -0.025000 0.000000
[...]
<PointData>
<DataArray NumberOfComponents='1' type='Int32' Name='ParticleType' format='ascii'>
3
3
3
3
3
3
3
3
3
3
3
3
3
3
3
3
3
3
3
3
3
3
3
3
3
3
3
3
3
3
3
3
3
3
3
3
3
3
3
3
3
3
3
3
3
3
3
3
3
3
3
3
3
3
3
3
3
3
2
2
2
2
2
2
2
2
2
2
2
2
2
2
2
2
2
2
2
2
2
2
2
2
2
2
3
3
2
2
2
2
2
2
2
2
2
2
2
2
2
2
2
2
2
2
2
2
2
2
2
2
2
2
3
3
2
2
0
0
0
0
0
0
0
0
0
0
0
0
0
0
0
0
0
0
0
0
0
0
0
0
1
1
1
3
3
2
2
0
0
0
0
0
0
0
0
0
0
0
0
0
0
0
0
0
0
0
0
0
0
0
0
1
1
1
3
3
2
2
0
0
0
0
0
0
0
0
0
0
0
0
0
0
0
0
0
0
0
0
0
0
0
0
1
1
1
3
3
2
2
0
0
0
0
0
0
0
0
0
0
0
0
0
0
0
0
0
0
0
0
0
0
0
0
1
1
1
3
3
2
2
0
0
0
0
0
0
0
0
0
0
0
0
0
0
0
0
0
0
0
0
0
0
0
0
1
1
1
3
3
2
2
0
0
0
0
0
0
0
0
0
0
0
0
0
0
0
0
0
0
0
0
0
0
0
0
1
1
1
3
3
2
2
0
0
0
0
0
0
0
0
0
0
0
0
0
0
0
0
0
0
0
0
0
0
0
0
1
1
1
3
3
2
2
0
0
0
0
0
0
0
0
0
0
0
0
0
0
0
0
0
0
0
0
0
0
0
0
1
1
1
3
3
2
2
0
0
0
0
0
0
0
0
0
0
0
0
0
0
0
0
0
0
0
0
0
0
0
0
1
1
1
3
3
2
2
0
0
0
0
0
0
0
0
0
0
0
0
0
0
0
0
0
0
0
0
0
0
0
0
1
1
1
3
3
2
2
0
0
0
0
0
0
0
0
0
0
0
0
0
0
0
0
0
0
0
0
0
0
0
0
1
1
1
3
3
2
2
0
0
0
0
0
0
0
0
0
0
0
0
0
0
0
0
0
0
0
0
0
0
0
0
1
1
1
3
3
2
2
0
0
0
0
0
0
0
0
0
0
0
0
0
0
0
0
0
0
0
0
0
0
0
0
1
1
1
3
3
2
2
0
0
0
0
0
0
0
0
0
0
0
0
0
0
0
0
0
0
0
0
0
0
0
0
1
1
1
3
3
2
2
0
0
0
0
0
0
0
0
0
0
0
0
0
0
0
0
0
0
0
0
0
0
0
0
1
1
1
3
3
2
2
0
0
0
0
0
0
0
0
0
0
0
0
0
0
0
0
0
0
0
0
0
0
0
0
1
1
1
3
3
2
2
0
0
0
0
0
0
0
0
0
0
0
0
0
0
0
0
0
0
0
0
0
0
0
0
3
3
2
2
0
0
0
0
0
0
0
0
0
0
0
0
0
0
0
0
0
0
0
0
0
0
0
0
3
3
2
2
0
0
0
0
0
0
0
0
0
0
0
0
0
0
0
0
0
0
0
0
0
0
0
0
3
3
2
2
0
0
0
0
0
0
0
0
0
0
0
0
0
0
0
0
0
0
0
0
0
0
0
0
3
3
2
2
0
0
0
0
0
0
0
0
0
0
0
0
0
0
0
0
0
0
0
0
0
0
0
0
3
3
2
2
0
0
0
0
0
0
0
0
0
0
0
0
0
0
0
0
0
0
0
0
0
0
0
0
3
3
2
2
0
0
0
0
0
0
0
0
0
0
0
0
0
0
0
0
0
0
0
0
0
0
0
0
3
3
2
2
0
0
0
0
0
0
0
0
0
0
0
0
0
0
0
0
0
0
0
0
0
0
0
0
3
3
2
2
0
0
0
0
0
0
0
0
0
0
0
0
0
0
0
0
0
0
0
0
0
0
0
0
3
3
2
2
0
0
0
0
0
0
0
0
0
0
0
0
0
0
0
0
0
0
0
0
0
0
0
0
3
3
2
2
0
0
0
0
0
0
0
0
0
0
0
0
0
0
0
0
0
0
0
0
0
0
0
0
3
3
2
2
0
0
0
0
0
0
0
0
0
0
0
0
0
0
0
0
0
0
0
0
0
0
0
0
3
3
2
2
0
0
0
0
0
0
0
0
0
0
0
0
0
0
0
0
0
0
0
0
0
0
0
0
3
3
2
2
0
0
0
0
0
0
0
0
0
0
0
0
0
0
0
0
0
0
0
0
0
0
0
0
3
3
2
2
0
0
0
0
0
0
0
0
0
0
0
0
0
0
0
0
0
0
0
0
0
0
0
0
3
3
2
2
0
0
0
0
0
0
0
0
0
0
0
0
0
0
0
0
0
0
0
0
0
0
0
0
3
3
2
2
0
0
0
0
0
0
0
0
0
0
0
0
0
0
0
0
0
0
0
0
0
0
0
0
3
3
2
2
0
0
0
0
0
0
0
0
0
0
0
0
0
0
0
0
0
0
0
0
0
0
0
0
3
3
2
2
0
0
0
0
0
0
0
0
0
0
0
0
0
0
0
0
0
0
0
0
0
0
0
0
3
3
2
2
0
0
0
0
0
0
0
0
0
0
0
0
0
0
0
0
0
0
0
0
0
0
0
0
3
3
2
2
0
0
0
0
0
0
0
0
0
0
0
0
0
0
0
0
0
0
0
0
0
0
0
0
3
3
2
2
0
0
0
0
0
0
0
0
0
0
0
0
0
0
0
0
0
0
0
0
0
0
0
0
3
3
2
2
0
0
0
0
0
0
0
0
0
0
0
0
0
0
0
0
0
0
0
0
0
0
0
0
3
3
2
2
0
0
0
0
0
0
0
0
0
0
0
0
0
0
0
0
0
0
0
0
0
0
0
0
3
3
2
2
0
0
0
0
0
0
0
0
0
0
0
0
0
0
0
0
0
0
0
0
0
0
0
0
3
3
2
2
0
0
0
0
0
0
0
0
0
0
0
0
0
0
0
0
0
0
0
0
0
0
0
0
3
3
2
2
0
0
0
0
0
0
0
0
0
0
0
0
0
0
0
0
0
0
0
0
0
0
0
0
3
3
2
2
0
0
0
0
0
0
0
0
0
0
0
0
0
0
0
0
0
0
0
0
0
0
0
0
3
3
2
2
0
0
0
0
0
0
0
0
0
0
0
0
0
0
0
0
0
0
0
0
0
0
0
0
3
3
2
2
0
0
0
0
0
0
0
0
0
0
0
0
0
0
0
0
0
0
0
0
0
0
0
0
3
3
2
2
0
0
0
0
0
0
0
0
0
0
0
0
0
0
0
0
0
0
0
0
0
0
0
0
3
3
2
2
0
0
0
0
0
0
0
0
0
0
0
0
0
0
0
0
0
0
0
0
0
0
0
0
3
3
2
2
0
0
0
0
0
0
0
0
0
0
0
0
0
0
0
0
0
0
0
0
0
0
0
0
3
3
2
2
0
0
0
0
0
0
0
0
0
0
0
0
0
0
0
0
0
0
0
0
0
0
0
0
3
3
2
2
0
0
0
0
0
0
0
0
0
0
0
0
0
0
0
0
0
0
0
0
0
0
0
0
3
3
2
2
0
0
0
0
0
0
0
0
0
0
0
0
0
0
0
0
0
0
0
0
0
0
0
0
3
3
2
2
0
0
0
0
0
0
0
0
0
0
0
0
0
0
0
0
0
0
0
0
0
0
0
0
3
3
2
2
0
0
0
0
0
0
0
0
0
0
0
0
0
0
0
0
0
0
0
0
0
0
0
0
3
3
2
2
0
0
0
0
0
0
0
0
0
0
0
0
0
0
0
0
0
0
0
0
0
0
0
0
3
3
2
2
0
0
0
0
0
0
0
0
0
0
0
0
0
0
0
0
0
0
0
0
0
0
0
0
3
3
2
2
0
0
0
0
0
0
0
0
0
0
0
0
0
0
0
0
0
0
0
0
0
0
0
0
3
3
2
2
0
0
0
0
0
0
0
0
0
0
0
0
0
0
0
0
0
0
0
0
0
0
0
0
3
3
2
2
0
0
0
0
0
0
0
0
0
0
0
0
0
0
0
0
0
0
0
0
0
0
0
0
3
3
2
2
0
0
0
0
0
0
0
0
0
0
0
0
0
0
0
0
0
0
0
0
0
0
0
0
3
3
2
2
0
0
0
0
0
0
0
0
0
0
0
0
0
0
0
0
0
0
0
0
0
0
0
0
3
3
2
2
0
0
0
0
0
0
0
0
0
0
0
0
0
0
0
0
0
0
0
0
0
0
0
0
3
3
2
2
0
0
0
0
0
0
0
0
0
0
0
0
0
0
0
0
0
0
0
0
0
0
0
0
3
3
2
2
0
0
0
0
0
0
0
0
0
0
0
0
0
0
0
0
0
0
0
0
0
0
0
0
3
3
2
2
0
0
0
0
0
0
0
0
0
0
0
0
0
0
0
0
0
0
0
0
0
0
0
0
3
3
2
2
0
0
0
0
0
0
0
0
0
0
0
0
0
0
0
0
0
0
0
0
0
0
0
0
3
3
2
2
0
0
0
0
0
0
0
0
0
0
0
0
0
0
0
0
0
0
0
0
0
0
0
0
3
3
2
2
0
0
0
0
0
0
0
0
0
0
0
0
0
0
0
0
0
0
0
0
0
0
0
0
3
3
2
2
0
0
0
0
0
0
0
0
0
0
0
0
0
0
0
0
0
0
0
0
0
0
0
0
3
3
2
2
0
0
0
0
0
0
0
0
0
0
0
0
0
0
0
0
0
0
0
0
0
0
0
0
3
3
2
2
0
0
0
0
0
0
0
0
0
0
0
0
0
0
0
0
0
0
0
0
0
0
0
0
3
3
2
2
0
0
0
0
0
0
0
0
0
0
0
0
0
0
0
0
0
0
0
0
0
0
0
0
3
3
2
2
0
0
0
0
0
0
0
0
0
0
0
0
0
0
0
0
0
0
0
0
0
0
0
0
3
3
2
2
0
0
0
0
0
0
0
0
0
0
0
0
0
0
0
0
0
0
0
0
0
0
0
0
3
3
2
2
0
0
0
0
0
0
0
0
0
0
0
0
0
0
0
0
0
0
0
0
0
0
0
0
3
3
2
2
0
0
0
0
0
0
0
0
0
0
0
0
0
0
0
0
0
0
0
0
0
0
0
0
3
3
2
2
0
0
0
0
0
0
0
0
0
0
0
0
0
0
0
0
0
0
0
0
0
0
0
0
3
3
2
2
0
0
0
0
0
0
0
0
0
0
0
0
0
0
0
0
0
0
0
0
0
0
0
0
3
3
2
2
0
0
0
0
0
0
0
0
0
0
0
0
0
0
0
0
0
0
0
0
0
0
0
0
3
3
2
2
0
0
0
0
0
0
0
0
0
0
0
0
0
0
0
0
0
0
0
0
0
0
0
0
3
3
2
2
2
2
2
2
2
2
2
2
2
2
2
2
2
2
2
2
2
2
2
2
2
2
2
2
3
3
2
2
2
2
2
2
2
2
2
2
2
2
2
2
2
2
2
2
2
2
2
2
2
2
2
2
3
3
3
3
3
3
3
3
3
3
3
3
3
3
3
3
3
3
3
3
3
3
3
3
3
3
3
3
3
3
3
3
3
3
3
3
3
3
3
3
3
3
3
3
3
3
3
3
3
3
3
3
3
3
3
3
</DataArray>
<DataArray NumberOfComponents='1' type='Float32' Name='Velocity' format='ascii'>
0.000000
0.000000
0.000000
0.000000
0.000000
0.000000
0.000000
0.000000
0.000000
0.000000
0.000000
0.000000
0.000000
0.000000
0.000000
0.000000
0.000000
0.000000
0.000000
0.000000
0.000000
0.000000
0.000000
0.000000
0.000000
0.000000
0.000000
0.000000
0.000000
0.000000
0.000000
0.000000
0.000000
0.000000
0.000000
0.000000
0.000000
0.000000
0.000000
0.000000
0.000000
0.000000
0.000000
0.000000
0.000000
0.000000
0.000000
0.000000
0.000000
0.000000
0.000000
0.000000
0.000000
0.000000
0.000000
0.000000
0.000000
0.000000
0.000000
0.000000
0.000000
0.000000
0.000000
0.000000
0.000000
0.000000
0.000000
0.000000
0.000000
0.000000
0.000000
0.000000
0.000000
0.000000
0.000000
0.000000
0.000000
0.000000
0.000000
0.000000
0.000000
0.000000
0.000000
0.000000
0.000000
0.000000
0.000000
0.000000
0.000000
0.000000
0.000000
0.000000
0.000000
0.000000
0.000000
0.000000
0.000000
0.000000
0.000000
0.000000
0.000000
0.000000
0.000000
0.000000
0.000000
0.000000
0.000000
0.000000
0.000000
0.000000
0.000000
0.000000
0.000000
0.000000
0.000000
0.000000
4401.133789
213.082291
73.425461
67.685310
0.626846
95356864.000000
116.407539
97.661003
69.448616
527.243225
2976.837158
369.604126
76158.234375
28429.144531
148.577499
903.268799
170.636734
1790.241577
169.191849
1675.719238
1007.511780
1149.101685
2536.201416
83049576.000000
1.000000
1.000000
1.000000
0.000000
0.000000
0.000000
0.000000
136.537308
131.007141
1853.333618
101.680069
5235.595703
44.291195
72.572197
51.831146
47325.265625
49281.792969
129.554733
154.989029
302.523376
3767.474854
23500.083984
1095.191895
149.539948
433.152863
2117.539795
490.456390
1533.520020
28240.955078
1154.572632
2971.983643
1.000000
1.000000
1.000000
0.000000
0.000000
0.000000
0.000000
132.661789
35737.617188
37.900887
4700.343262
90.845413
290.244446
243.201401
5296.806641
1010.527832
647.605774
242.614258
1881.081055
907.425720
1563.259399
945.429016
33.664574
5673.384766
1.545949
459.145569
152.011505
6866.518555
369.141113
9610.131836
2171.261963
1.000000
1.000000
1.000000
0.000000
0.000000
0.000000
0.000000
4556.876465
164219952.000000
1582.289673
135656.203125
10448.506836
131.712570
227129.031250
175.716995
51.191738
124.879898
87.714851
3279.460449
321.167542
368.235626
330.654694
277.192841
0.589868
432.146942
130.249741
347.130920
1.425220
266.707611
3320.296875
41519.199219
1.000000
1.000000
1.000000
0.000000
0.000000
0.000000
0.000000
1027.497925
3409.178467
2795.876953
887.374023
72.942375
251.856705
1507.682861
143.384903
81647.429688
1774.158203
886.095215
12657.931641
35.874992
470.797516
662.711365
1093.399658
10192.209961
2078.253662
174.752640
417.185760
196.299393
4303.634766
998466.625000
324624.781250
1.000000
1.000000
1.000000
0.000000
0.000000
0.000000
0.000000
38.592152
2227.007568
72.906685
298.416931
7623.879883
1.592235
466.702972
43.469444
232.336029
6514.477539
870.636169
101.164116
185.062775
42874.472656
12942.625977
270.788391
357.093323
7003.694336
13420.360352
9315.267578
12991.091797
560.716003
5252.274902
2126.127197
1.000000
1.000000
1.000000
0.000000
0.000000
0.000000
0.000000
622.458557
6834.475098
64.085938
107050.984375
1221.920532
338.996307
263.883270
438.475311
2641.814209
1697.084106
31802.392578
5007.625488
5385.768555
8406.678711
3479.157715
805.132202
17939.970703
6927.362793
37641568.000000
1239.940308
12991.621094
1130.762207
931.267700
3816.174316
1.000000
1.000000
1.000000
0.000000
0.000000
0.000000
0.000000
996.949402
2530.343750
1055.583252
940.724915
2521.635010
118.384270
27921.132812
287566.156250
1586.202026
1610.680176
100.018402
129.403122
322.831848
24645172.000000
1351.273071
15051.239258
1124.960938
1789.636108
1779.807495
4261.499023
17893.658203
2291.399414
1940.484131
2322.584717
1.000000
1.000000
1.000000
0.000000
0.000000
0.000000
0.000000
52.592613
10989698.000000
2051.142578
83.156593
770.802551
195.421295
20260.876953
485.534912
2113.439453
369.173401
6044.631836
392.485931
8532.513672
1166.967529
155.488693
0.310729
174150.984375
203.504211
265.323547
68543.257812
1492.261230
26142.533203
95.963089
191028.375000
1.000000
1.000000
1.000000
0.000000
0.000000
0.000000
0.000000
43348.945312
296.509796
130.272842
8021.451660
16063.666016
668.331177
1159.177734
12930.017578
190196.281250
588.934326
165.150726
943.869629
1673.529297
203.320740
92.859535
118.489906
266763.218750
159.117264
352.566772
289706.187500
498.415222
1077.460083
95400.984375
95085.890625
1.000000
1.000000
1.000000
0.000000
0.000000
0.000000
0.000000
609.986023
134.903809
1756.504761
38.060905
1788.999146
155.386505
94.116409
162.352097
247.460632
164.138870
859.368713
2964.833252
2010.825439
671.437866
304234.031250
60897.402344
109189544.000000
856.450195
43348.003906
5689.739746
127.730034
9136.460938
3866.509766
3980.647461
1.000000
1.000000
1.000000
0.000000
0.000000
0.000000
0.000000
293.907959
1010911488.000000
272.643860
313831.718750
43311.792969
41954936.000000
8093.022461
9932.358398
330.790710
408.944824
1308.316284
11015329.000000
863.645691
7859819520.000000
31.483999
57765.031250
117242.046875
1863.479126
622.807495
52.972614
7545.462402
6939.767578
161842336.000000
7707.932617
1.000000
1.000000
1.000000
0.000000
0.000000
0.000000
0.000000
817.483154
299.480103
102.479332
90.458084
107.509865
10577.926758
167.603271
163.877518
140.553925
2429.422852
6692.486328
1624.170288
348.774628
59.332691
2803.445557
382.042480
340.076538
65.449745
430.033569
1685.604126
695.952209
73.685310
39987.757812
4008.712158
1.000000
1.000000
1.000000
0.000000
0.000000
0.000000
0.000000
85.020248
1914.596191
186.406967
32.749218
239.797729
335.635010
2331.926758
7077.270996
854.780518
1094.488525
20026.845703
75.755501
403.811157
252.594238
248.320770
9486.785156
49153.613281
267.028320
90296.828125
276.419189
6454.222168
1103.460205
5125.350586
998081.687500
1.000000
1.000000
1.000000
0.000000
0.000000
0.000000
0.000000
118.403648
81898.585938
125.098289
1.052087
143.897522
595.442200
107.020683
2075.620605
41956152.000000
84.644714
884.608643
1017.095093
339448.062500
24146.179688
484.278412
712.785950
1162.185669
222.648346
1295.896606
53.362541
1557.806030
82941672.000000
955.954163
15229.222656
1.000000
1.000000
1.000000
0.000000
0.000000
0.000000
0.000000
1401.935059
44920.687500
322.235321
287.083008
467.587616
909.613831
142.677063
1768.310547
215.612473
2586.007324
17707.933594
451.207062
2946.408203
694.703979
225.835632
48621.316406
96.957802
12590.278320
3797.492676
1774.751465
127.478905
1779.070190
1132.586548
15809.693359
1.000000
1.000000
1.000000
0.000000
0.000000
0.000000
0.000000
242.332642
1066.654541
200.089005
515.880493
23249.570312
36.610676
1825.991333
2049.099121
4755.397949
128.060638
612.933716
4968.321289
3716.955811
182.047363
277.069672
133.409180
361.924927
384.719727
159659.765625
192.871826
5987.994141
72.562744
103.577362
4414.888672
0.000000
0.000000
0.000000
0.000000
61.145947
39281.585938
2572.924561
154.872620
2680.097168
4977.421387
2318.363770
9501.795898
2524.064453
21143.998047
6729.145508
7730.217285
194.715820
98441824.000000
1942.889893
495978.718750
6310.338867
25976.507812
420.970764
553.305237
96046.179688
27242.648438
148.025604
1062.079590
0.000000
0.000000
0.000000
0.000000
1952.553711
669.135742
134.805328
378.760101
298.383881
5029.089355
123.069420
64.241684
172.452820
8015.231445
1055.170776
3710.504150
98599.765625
235.186630
130.838730
161.185699
288.319611
529.759216
4829300.500000
19885750.000000
1419.888794
2157.572998
609.387634
15961.960938
0.000000
0.000000
0.000000
0.000000
55.106312
1297.855103
471.929779
3293.989014
3090.916992
182.403305
13265.583008
469.756653
124.450073
288258.031250
49.693810
1297.338135
527.335876
43177.519531
902.634583
1069.600342
1930363.250000
14035.971680
197.854141
53.742588
2958.241699
697.150696
1277.578735
4774220.000000
0.000000
0.000000
0.000000
0.000000
1512.778076
1345.807251
161.998215
4118.714844
43065.175781
606.395142
408.651733
352.141510
686.705688
302.436523
1742.296875
270.497345
580.066345
168.363113
118.433846
101.221222
5530499.500000
211.077499
1230.932251
351.558380
4797.659180
2164.406738
1834.713745
2571.342773
0.000000
0.000000
0.000000
0.000000
128.185501
731.708923
57.112652
1666460.000000
23588.003906
280.303619
64.087830
73.153870
1927.992554
6807.703613
203547328.000000
138.559143
2088.140137
816.304626
277.328278
116.941803
736.242310
198.529495
187.621155
329.683624
1228.413940
307293.531250
347.043488
1176.250732
0.000000
0.000000
0.000000
0.000000
416.630341
1507.814087
265.869781
1457.504639
124.193581
2293.197510
467.008423
39930.304688
96.846245
30677.167969
1210.817017
225.971405
3374.766357
63.962288
3205.653564
102359.640625
1633.756958
153.225647
3967.235840
253.639877
38518.195312
121.245514
709.265137
2748.388916
0.000000
0.000000
0.000000
0.000000
69.516502
1.363373
9624.397461
367294.187500
353.449341
209.846436
57535692.000000
21694.847656
797.381104
891.041565
6318.934570
1935943.625000
142.155716
101.062004
1904.986206
986.223938
1160.729736
1434.247925
4917.692871
1235.664062
203547792.000000
40052.703125
4401.776367
9517.357422
0.000000
0.000000
0.000000
0.000000
65.971855
420902.468750
288.745667
2.653767
139927.187500
86.213730
15248.729492
1196.824097
371.620605
335.783142
795.499268
2211.823242
17535.980469
28250.283203
1567.414673
190.493240
258.361542
310.918488
1241.685425
1.046548
15372175.000000
92.703033
417.519867
1086.550537
0.000000
0.000000
0.000000
0.000000
621.366150
48.717873
3202.872803
902.154297
2151.237061
296.142151
709960.875000
351.599030
447.639648
9597.031250
676.437195
127.180382
43.153954
48.855389
443.479706
3.299680
1018.938782
852.636047
3773.913330
300.592590
3790.544678
12455.856445
5500.596191
4545.110352
0.000000
0.000000
0.000000
0.000000
1068.338257
163.459518
10160.026367
24003.619141
1.606993
79958.921875
81155.101562
140151.859375
2077.228760
92.342705
107.376877
329.453857
1349.159790
1.302632
883.994873
616.027405
70.395447
58.518398
937.295532
1080.009521
2232.812012
994.874207
158.022934
1799.713257
0.000000
0.000000
0.000000
0.000000
16077.413086
69402.570312
861.774353
102.206757
205149.765625
798.720764
164.848312
4412.473145
1245.905640
89.676926
24622.763672
22168.845703
259.168488
10533.983398
371.171997
288.522247
1438.534912
2014.928101
539.911194
27196.554688
235.453598
6550.547363
87.372299
8849.828125
0.000000
0.000000
0.000000
0.000000
16156.094727
112181.320312
710.086548
1524.406372
125.917030
94768.734375
305.100403
3325.598145
3162.069824
480.017578
453.876617
218.993256
1074.685669
4889.977051
12373.028320
82307.070312
81594.234375
25816.574219
579.498901
965.776001
163329.265625
107688.375000
1086.796387
2166.614258
0.000000
0.000000
0.000000
0.000000
475.167236
77.473854
67.624512
84.598740
107776.632812
3959.483154
1710.398682
336.593292
697.980957
663460.062500
2240.164551
1528.700562
1049.820190
23744.462891
52.557297
154.220566
104.798508
110.562973
960.785095
228.363541
227.083130
2352.570801
370.440186
2052.032227
0.000000
0.000000
0.000000
0.000000
12854.631836
63.346828
786193.125000
726.680298
260.614319
309.254639
359.277313
1898.097046
8.621558
22492.326172
29818181648384.000000
498.898712
619.778076
803.582458
175.284958
812.864014
301.863129
140.969482
296.802826
65.207909
715.668335
32273.298828
7110.839355
6860.398438
0.000000
0.000000
0.000000
0.000000
2045.675903
11138.363281
1782.404053
154.811691
1587.623535
4642.219727
335.146027
12982.689453
19754.939453
345.156647
3009.671143
49007.937500
865.595642
251.298813
6126.145508
614.677185
1225.218384
544.131592
82.152840
3513.021729
90958.132812
379.010803
1721.973145
20953.013672
0.000000
0.000000
0.000000
0.000000
83.367020
70.482735
3367.313965
208.720413
19580.980469
1960.655518
801.586487
481.678619
550.147888
124.969101
45.927826
71.076630
111.143181
1251777920.000000
3622.290771
156.792343
239.289917
204.658890
131.146729
39098.238281
278.240479
5787.429688
22681.105469
5685.144043
0.000000
0.000000
0.000000
0.000000
109266000.000000
4917.507812
1118.050293
93.425575
297.187988
1107.614380
0.475265
95356440.000000
1634.085327
16804.074219
1749.478149
146.920609
24.433588
83.192017
24338.177734
249.906250
3994.021729
833.494690
1148.247437
167.096954
303.977936
2318.896484
11944.695312
5083.676270
0.000000
0.000000
0.000000
0.000000
128181.062500
1.957394
215609.859375
535.994568
122.396255
6.871136
152.517975
386.402222
549.705139
13220.641602
46276.195312
185422.359375
1103.406738
29612.644531
1146.784180
2676.391602
6082527.000000
244.844589
579.040894
48.239365
14900.020508
373.493713
2858.652832
23664962.000000
0.000000
0.000000
0.000000
0.000000
190374.984375
104.312218
550.666992
228.142029
22320.236328
3954.855225
9132.176758
117335.429688
1645.596069
545.567200
75.050873
686.618652
36312.183594
161.796844
45.500858
169.737427
202056.750000
4899.821777
1321.847412
118.668228
1745.243286
452.474518
712.952576
3154.003662
0.000000
0.000000
0.000000
0.000000
67.980255
1.087636
19159504.000000
962.321716
131.913193
501.035522
357.861664
2869.004395
367.886444
15209.125000
346.872589
344.537231
2974.685547
286.193787
413.233826
113043.062500
1574.410278
3447.260498
2708.917725
3052.348145
904.511414
760.115112
39001.921875
11095.366211
0.000000
0.000000
0.000000
0.000000
58.780548
402.593506
487.751923
7979.324219
699.017395
831.844971
2775.760742
171.578156
15610.635742
13.302703
1795.711670
283.813843
113.821053
77766.062500
1173.969482
2779.939941
652.492920
307.982269
3431.933594
1632.926270
534.399353
174260.406250
450.867645
79955.390625
0.000000
0.000000
0.000000
0.000000
33.660782
123.506783
117.145920
810.326965
103.930641
206.134232
77.849915
45.226261
15372272.000000
124.872826
80961.039062
448975.000000
1671.845459
157.203049
287.949524
98099.492188
2749.401367
944355.062500
363.296600
128.775650
21629.808594
69.661049
136.451355
4928.884277
0.000000
0.000000
0.000000
0.000000
83570.046875
172.262558
2606.000977
2179.980225
1035.268799
173769.968750
77.278984
644.465576
586.228821
57.760372
210.202103
482.895416
1.024246
4055.236084
3391.472412
587638.875000
260.407715
312.703400
219.454254
794.440613
696.149292
111.739601
206.888245
954.691040
0.000000
0.000000
0.000000
0.000000
110.624611
106.038414
174.722534
319320.937500
2215.842285
1.715071
221.088394
3293.490723
571.149414
6087.378906
27423.615234
21588.666016
41.610779
431.155823
8697.540039
172.260651
29.906900
128166.570312
17506.292969
4535.474121
7180.115723
196822.296875
146.820236
8062.236816
0.000000
0.000000
0.000000
0.000000
337.795898
2884.257080
397.656311
93.395828
10510.988281
2768.858398
3398.724609
8100.895020
68835.500000
170.162399
215246224.000000
4244.243164
875.362305
228.436157
101.172096
488973.312500
37.547939
112331.820312
2133.432373
118.008476
2611.535156
2138.434814
90.278854