<?xml version='1.0' encoding='UTF-8'?>
<VTKFile xmlns='VTK' byte_order='LittleEndian' version='0.1' type='UnstructuredGrid'>
<UnstructuredGrid>
<Piece NumberOfCells='2512' NumberOfPoints='2512'>
<Points>
<DataArray NumberOfComponents='3' type='Float32' Name='Position' format='ascii'>
-0.075000 -0.075000 0.000000
-0.075000 -0.050000 0.000000
-0.075000 -0.025000 0.000000
-0.075000 0.000000 0.000000
-0.075000 0.025000 0.000000
-0.075000 0.050000 0.000000
-0.075000 0.075000 0.000000
-0.075000 0.100000 0.000000
-0.075000 0.125000 0.000000
-0.075000 0.150000 0.000000
-0.075000 0.175000 0.000000
-0.075000 0.200000 0.000000
-0.075000 0.225000 0.000000
-0.075000 0.250000 0.000000
-0.075000 0.275000 0.000000
-0.075000 0.300000 0.000000
-0.075000 0.325000 0.000000
-0.075000 0.350000 0.000000
-0.075000 0.375000 0.000000
-0.075000 0.400000 0.000000
-0.075000 0.425000 0.000000
-0.075000 0.450000 0.000000
-0.075000 0.475000 0.000000
-0.075000 0.500000 0.000000
-0.075000 0.525000 0.000000
-0.075000 0.550000 0.000000
-0.075000 0.575000 0.000000
-0.075000 0.600000 0.000000
-0.050000 -0.075000 0.000000
-0.050000 -0.050000 0.000000
-0.050000 -0.025000 0.000000
-0.050000 0.000000 0.000000
-0.050000 0.025000 0.000000
-0.050000 0.050000 0.000000
-0.050000 0.075000 0.000000
-0.050000 0.100000 0.000000
-0.050000 0.125000 0.000000
-0.050000 0.150000 0.000000
-0.050000 0.175000 0.000000
-0.050000 0.200000 0.000000
-0.050000 0.225000 0.000000
-0.050000 0.250000 0.000000
-0.050000 0.275000 0.000000
-0.050000 0.300000 0.000000
-0.050000 0.325000 0.000000
-0.050000 0.350000 0.000000
-0.050000 0.375000 0.000000
-0.050000 0.400000 0.000000
-0.050000 0.425000 0.000000
-0.050000 0.450000 0.000000
-0.050000 0.475000 0.000000
-0.050000 0.500000 0.000000
-0.050000 0.525000 0.000000
-0.050000 0.550000 0.000000
-0.050000 0.575000 0.000000
-0.050000 0.600000 0.000000
-0.025000 -0.075000 0.000000
-0.025000 -0.050000 0.000000
-0.025000 -0.025000 0.000000
-0.025000 0.000000 0.000000
-0.025000 0.025000 0.000000
-0.025000 0.050000 0.000000
-0.025000 0.075000 0.000000
-0.025000 0.100000 0.000000
-0.025000 0.125000 0.000000
-0.025000 0.150000 0.000000
-0.025000 0.175000 0.000000
-0.025000 0.200000 0.000000
-0.025000 0.225000 0.000000
-0.025000 0.250000 0.000000
-0.025000 0.275000 0.000000
-0.025000 0.300000 0.000000
-0.025000 0.325000 0.000000
-0.025000 0.350000 0.000000
-0.025000 0.375000 0.000000
-0.025000 0.400000 0.000000
-0.025000 0.425000 0.000000
-0.025000 0.450000 0.000000
-0.025000 0.475000 0.000000
-0.025000 0.500000 0.000000
-0.025000 0.525000 0.000000
-0.025000 0.550000 0.000000
-0.025000 0.575000 0.000000
-0.025000 0.600000 0.000000
0.000000 -0.075000 0.000000
0.000000 -0.050000 0.000000
0.000000 -0.025000 0.000000
0.000000 0.000000 0.000000
0.000000 0.025000 0.000000
0.000000 0.050000 0.000000
0.000000 0.075000 0.000000
0.000000 0.100000 0.000000
0.000000 0.125000 0.000000
0.000000 0.150000 0.000000
0.000000 0.175000 0.000000
0.000000 0.200000 0.000000
0.000000 0.225000 0.000000
0.000000 0.250000 0.000000
0.000000 0.275000 0.000000
0.000000 0.300000 0.000000
0.000000 0.325000 0.000000
0.000000 0.350000 0.000000
0.000000 0.375000 0.000000
0.000000 0.400000 0.000000
0.000000 0.425000 0.000000
0.000000 0.450000 0.000000
0.000000 0.475000 0.000000
0.000000 0.500000 0.000000
0.000000 0.525000 0.000000
0.000000 0.550000 0.000000
0.000000 0.575000 0.000000
0.000000 0.600000 0.000000
0.025000 -0.075000 0.000000
0.025000 -0.050000 0.000000
0.025000 -0.025000 0.000000
0.025000 0.000000 0.000000
-1490.623604 0.600000 0.000000
40.787528 -69.522086 0.000000
-13.714822 -23.037216 0.000000
9.842108 -22.519680 0.000000
0.277836 0.024985 0.000000
-35282039.680890 0.600000 0.000000
6.013504 -42.682476 0.000000
17.491545 -31.362907 0.000000
-26.063818 -4.380911 0.000000
6.599266 -178.233276 0.000000
318.266550 -1099.205600 0.000000
21.042210 -139.246029 0.000000
29014.522936 0.600000 0.000000
-10691.242707 0.600000 0.000000
-45.305531 0.600000 0.000000
-160.428136 -307.602237 0.000000
-46.191138 -44.966680 0.000000
400.926813 -558.656224 0.000000
40.666859 -46.441839 0.000000
-639.099906 0.600000 0.000000
165.200721 -352.202322 0.000000
-413.718850 0.600000 0.000000
-977.699981 0.600000 0.000000
32057135.452352 0.600000 0.000000
1.385000 0.625000 0.000000
1.385000 0.650000 0.000000
1.385000 0.675000 0.000000
0.050000 -0.075000 0.000000
0.050000 -0.050000 0.000000
0.050000 -0.025000 0.000000
0.050000 0.000000 0.000000
-52.390278 0.600000 0.000000
-46.719661 -14.026867 0.000000
674.587392 0.600000 0.000000
33.361960 0.600000 0.000000
1996.492834 0.600000 0.000000
-12.726386 -9.036657 0.000000
-11.986541 -23.465754 0.000000
-24.021704 0.600000 0.000000
-8618.664953 -16051.078283 0.000000
8371.549618 0.600000 0.000000
3.739890 -47.952798 0.000000
41.144184 -38.837649 0.000000
-107.972782 -41.606683 0.000000
815.682053 0.600000 0.000000
8647.097846 0.600000 0.000000
-420.229916 0.600000 0.000000
-51.130923 -25.013373 0.000000
-152.493725 0.600000 0.000000
799.397166 0.600000 0.000000
-112.298400 -147.881644 0.000000
540.681701 0.600000 0.000000
10615.839333 -2213.520381 0.000000
105.645502 -433.424241 0.000000
1147.737631 0.600000 0.000000
1.410000 0.625000 0.000000
1.410000 0.650000 0.000000
1.410000 0.675000 0.000000
0.075000 -0.075000 0.000000
0.075000 -0.050000 0.000000
0.075000 -0.025000 0.000000
0.075000 0.000000 0.000000
-35.218429 -35.144213 0.000000
12791.069827 0.600000 0.000000
11.380683 0.600000 0.000000
-1664.537299 0.600000 0.000000
-27.906579 -19.390827 0.000000
93.898559 0.600000 0.000000
18.295668 -86.112654 0.000000
2007.971917 0.600000 0.000000
394.460213 0.600000 0.000000
20.157696 -236.051280 0.000000
65.616643 -64.310601 0.000000
-717.242404 0.600000 0.000000
-334.294869 0.600000 0.000000
499.983481 -330.433280 0.000000
360.947385 0.600000 0.000000
13.143732 -0.724472 0.000000
1997.699628 -794.157374 0.000000
0.037920 0.077175 0.000000
136.829563 -107.432723 0.000000
32.734077 -46.242579 0.000000
2636.514563 0.600000 0.000000
-48.077959 -131.803554 0.000000
-3694.224338 0.600000 0.000000
-819.200933 0.600000 0.000000
1.435000 0.625000 0.000000
1.435000 0.650000 0.000000
1.435000 0.675000 0.000000
0.100000 -0.075000 0.000000
0.100000 -0.050000 0.000000
0.100000 -0.025000 0.000000
0.100000 0.000000 0.000000
-860.165077 0.600000 0.000000
58790740.256176 0.600000 0.000000
-438.606390 -416.587463 0.000000
48976.764506 0.600000 0.000000
-3995.701139 0.600000 0.000000
-0.556628 0.600000 0.000000
-84275.746149 0.600000 0.000000
67.108204 -0.783840 0.000000
10.473765 -14.928716 0.000000
43.069641 -18.729560 0.000000
-15.924676 -27.712364 0.000000
-1242.397371 0.600000 0.000000
-61.557677 0.600000 0.000000
136.951634 -32.868779 0.000000
-84.046127 0.600000 0.000000
-79.623900 -67.087420 0.000000
0.038943 0.118941 0.000000
-14.791003 0.600000 0.000000
39.744262 -25.263009 0.000000
-118.445967 0.600000 0.000000
0.949221 0.278379 0.000000
56.544061 -83.266532 0.000000
1272.392397 0.600000 0.000000
-16022.820726 0.600000 0.000000
1.460000 0.625000 0.000000
1.460000 0.650000 0.000000
1.460000 0.675000 0.000000
0.125000 -0.075000 0.000000
0.125000 -0.050000 0.000000
0.125000 -0.025000 0.000000
0.125000 0.000000 0.000000
-357.896118 0.600000 0.000000
1127.700047 0.600000 0.000000
-1036.943940 0.600000 0.000000
-321.407000 0.600000 0.000000
4.381037 -25.614706 0.000000
78.928046 -55.263199 0.000000
-464.471559 0.600000 0.000000
-7.980944 -52.507794 0.000000
30529.404497 0.600000 0.000000
-196.893367 -648.620489 0.000000
-257.962531 0.600000 0.000000
-3210.865609 0.600000 0.000000
-11.365598 -0.823738 0.000000
-173.385647 0.600000 0.000000
-244.582965 0.600000 0.000000
-313.625006 0.600000 0.000000
3626.235790 0.600000 0.000000
778.200409 0.600000 0.000000
-16.720720 -62.177036 0.000000
-134.915918 -83.343034 0.000000
-76.167234 -0.324612 0.000000
1476.774452 0.600000 0.000000
387405.270780 0.600000 0.000000
-120784.298006 0.600000 0.000000
1.485000 0.625000 0.000000
1.485000 0.650000 0.000000
1.485000 0.675000 0.000000
0.150000 -0.075000 0.000000
0.150000 -0.050000 0.000000
0.150000 -0.025000 0.000000
0.150000 0.000000 0.000000
-31.938672 0.600000 0.000000
-837.855330 0.600000 0.000000
-0.754352 -26.419801 0.000000
-96.036672 -58.869737 0.000000
-2783.231468 0.600000 0.000000
1.665043 0.029026 0.000000
171.553707 0.600000 0.000000
4.889178 -14.088167 0.000000
-102.442238 0.600000 0.000000
-2440.836791 0.600000 0.000000
-304.287238 -136.623746 0.000000
14.872914 -34.324618 0.000000
-50.430205 -45.551792 0.000000
-16463.148716 0.600000 0.000000
-4927.217207 0.600000 0.000000
-95.904240 -38.480214 0.000000
-118.783531 0.600000 0.000000
6.330410 -2680.341060 0.000000
5110.949480 0.600000 0.000000
3521.310569 0.600000 0.000000
-4923.215207 0.600000 0.000000
83.014951 -199.159425 0.000000
2037.338984 0.600000 0.000000
820.141363 0.600000 0.000000
1.510000 0.625000 0.000000
1.510000 0.650000 0.000000
1.510000 0.675000 0.000000
0.175000 -0.075000 0.000000
0.175000 -0.050000 0.000000
0.175000 -0.025000 0.000000
0.175000 0.000000 0.000000
-220.687089 0.600000 0.000000
-2441.984492 0.600000 0.000000
5.604876 -22.340683 0.000000
40247.461487 0.600000 0.000000
455.141556 0.600000 0.000000
-102.902565 -78.426545 0.000000
11.879540 -99.036772 0.000000
151.185149 0.600000 0.000000
-970.569144 0.600000 0.000000
-579.691909 -295.698574 0.000000
11481.108115 0.600000 0.000000
-1747.123420 0.600000 0.000000
2001.985061 0.600000 0.000000
3209.740699 0.600000 0.000000
1178.174523 -566.498947 0.000000
-301.433943 0.600000 0.000000
-2830.227846 -6318.078138 0.000000
2592.998051 0.600000 0.000000
14228508.189877 0.600000 0.000000
471.958635 0.600000 0.000000
5012.248121 0.600000 0.000000
-396.672225 -182.537067 0.000000
-57.790250 -355.482207 0.000000
1394.628981 0.600000 0.000000
1.535000 0.625000 0.000000
1.535000 0.650000 0.000000
1.535000 0.675000 0.000000
0.200000 -0.075000 0.000000
0.200000 -0.050000 0.000000
0.200000 -0.025000 0.000000
0.200000 0.000000 0.000000
[...]
<PointData>
<DataArray NumberOfComponents='1' type='Int32' Name='ParticleType' format='ascii'>
3
3
3
3
3
3
3
3
3
3
3
3
3
3
3
3
3
3
3
3
3
3
3
3
3
3
3
3
3
3
3
3
3
3
3
3
3
3
3
3
3
3
3
3
3
3
3
3
3
3
3
3
3
3
3
3
3
3
2
2
2
2
2
2
2
2
2
2
2
2
2
2
2
2
2
2
2
2
2
2
2
2
2
2
3
3
2
2
2
2
2
2
2
2
2
2
2
2
2
2
2
2
2
2
2
2
2
2
2
2
2
2
3
3
2
2
0
0
0
0
0
0
0
0
0
0
0
0
0
0
0
0
0
0
0
0
0
0
0
0
1
1
1
3
3
2
2
0
0
0
0
0
0
0
0
0
0
0
0
0
0
0
0
0
0
0
0
0
0
0
0
1
1
1
3
3
2
2
0
0
0
0
0
0
0
0
0
0
0
0
0
0
0
0
0
0
0
0
0
0
0
0
1
1
1
3
3
2
2
0
0
0
0
0
0
0
0
0
0
0
0
0
0
0
0
0
0
0
0
0
0
0
0
1
1
1
3
3
2
2
0
0
0
0
0
0
0
0
0
0
0
0
0
0
0
0
0
0
0
0
0
0
0
0
1
1
1
3
3
2
2
0
0
0
0
0
0
0
0
0
0
0
0
0
0
0
0
0
0
0
0
0
0
0
0
1
1
1
3
3
2
2
0
0
0
0
0
0
0
0
0
0
0
0
0
0
0
0
0
0
0
0
0
0
0
0
1
1
1
3
3
2
2
0
0
0
0
0
0
0
0
0
0
0
0
0
0
0
0
0
0
0
0
0
0
0
0
1
1
1
3
3
2
2
0
0
0
0
0
0
0
0
0
0
0
0
0
0
0
0
0
0
0
0
0
0
0
0
1
1
1
3
3
2
2
0
0
0
0
0
0
0
0
0
0
0
0
0
0
0
0
0
0
0
0
0
0
0
0
1
1
1
3
3
2
2
0
0
0
0
0
0
0
0
0
0
0
0
0
0
0
0
0
0
0
0
0
0
0
0
1
1
1
3
3
2
2
0
0
0
0
0
0
0
0
0
0
0
0
0
0
0
0
0
0
0
0
0
0
0
0
1
1
1
3
3
2
2
0
0
0
0
0
0
0
0
0
0
0
0
0
0
0
0
0
0
0
0
0
0
0
0
1
1
1
3
3
2
2
0
0
0
0
0
0
0
0
0
0
0
0
0
0
0
0
0
0
0
0
0
0
0
0
1
1
1
3
3
2
2
0
0
0
0
0
0
0
0
0
0
0
0
0
0
0
0
0
0
0
0
0
0
0
0
1
1
1
3
3
2
2
0
0
0
0
0
0
0
0
0
0
0
0
0
0
0
0
0
0
0
0
0
0
0
0
1
1
1
3
3
2
2
0
0
0
0
0
0
0
0
0
0
0
0
0
0
0
0
0
0
0
0
0
0
0
0
3
3
2
2
0
0
0
0
0
0
0
0
0
0
0
0
0
0
0
0
0
0
0
0
0
0
0
0
3
3
2
2
0
0
0
0
0
0
0
0
0
0
0
0
0
0
0
0
0
0
0
0
0
0
0
0
3
3
2
2
0
0
0
0
0
0
0
0
0
0
0
0
0
0
0
0
0
0
0
0
0
0
0
0
3
3
2
2
0
0
0
0
0
0
0
0
0
0
0
0
0
0
0
0
0
0
0
0
0
0
0
0
3
3
2
2
0
0
0
0
0
0
0
0
0
0
0
0
0
0
0
0
0
0
0
0
0
0
0
0
3
3
2
2
0
0
0
0
0
0
0
0
0
0
0
0
0
0
0
0
0
0
0
0
0
0
0
0
3
3
2
2
0
0
0
0
0
0
0
0
0
0
0
0
0
0
0
0
0
0
0
0
0
0
0
0
3
3
2
2
0
0
0
0
0
0
0
0
0
0
0
0
0
0
0
0
0
0
0
0
0
0
0
0
3
3
2
2
0
0
0
0
0
0
0
0
0
0
0
0
0
0
0
0
0
0
0
0
0
0
0
0
3
3
2
2
0
0
0
0
0
0
0
0
0
0
0
0
0
0
0
0
0
0
0
0
0
0
0
0
3
3
2
2
0
0
0
0
0
0
0
0
0
0
0
0
0
0
0
0
0
0
0
0
0
0
0
0
3
3
2
2
0
0
0
0
0
0
0
0
0
0
0
0
0
0
0
0
0
0
0
0
0
0
0
0
3
3
2
2
0
0
0
0
0
0
0
0
0
0
0
0
0
0
0
0
0
0
0
0
0
0
0
0
3
3
2
2
0
0
0
0
0
0
0
0
0
0
0
0
0
0
0
0
0
0
0
0
0
0
0
0
3
3
2
2
0
0
0
0
0
0
0
0
0
0
0
0
0
0
0
0
0
0
0
0
0
0
0
0
3
3
2
2
0
0
0
0
0
0
0
0
0
0
0
0
0
0
0
0
0
0
0
0
0
0
0
0
3
3
2
2
0
0
0
0
0
0
0
0
0
0
0
0
0
0
0
0
0
0
0
0
0
0
0
0
3
3
2
2
0
0
0
0
0
0
0
0
0
0
0
0
0
0
0
0
0
0
0
0
0
0
0
0
3
3
2
2
0
0
0
0
0
0
0
0
0
0
0
0
0
0
0
0
0
0
0
0
0
0
0
0
3
3
2
2
0
0
0
0
0
0
0
0
0
0
0
0
0
0
0
0
0
0
0
0
0
0
0
0
3
3
2
2
0
0
0
0
0
0
0
0
0
0
0
0
0
0
0
0
0
0
0
0
0
0
0
0
3
3
2
2
0
0
0
0
0
0
0
0
0
0
0
0
0
0
0
0
0
0
0
0
0
0
0
0
3
3
2
2
0
0
0
0
0
0
0
0
0
0
0
0
0
0
0
0
0
0
0
0
0
0
0
0
3
3
2
2
0
0
0
0
0
0
0
0
0
0
0
0
0
0
0
0
0
0
0
0
0
0
0
0
3
3
2
2
0
0
0
0
0
0
0
0
0
0
0
0
0
0
0
0
0
0
0
0
0
0
0
0
3
3
2
2
0
0
0
0
0
0
0
0
0
0
0
0
0
0
0
0
0
0
0
0
0
0
0
0
3
3
2
2
0
0
0
0
0
0
0
0
0
0
0
0
0
0
0
0
0
0
0
0
0
0
0
0
3
3
2
2
0
0
0
0
0
0
0
0
0
0
0
0
0
0
0
0
0
0
0
0
0
0
0
0
3
3
2
2
0
0
0
0
0
0
0
0
0
0
0
0
0
0
0
0
0
0
0
0
0
0
0
0
3
3
2
2
0
0
0
0
0
0
0
0
0
0
0
0
0
0
0
0
0
0
0
0
0
0
0
0
3
3
2
2
0
0
0
0
0
0
0
0
0
0
0
0
0
0
0
0
0
0
0
0
0
0
0
0
3
3
2
2
0
0
0
0
0
0
0
0
0
0
0
0
0
0
0
0
0
0
0
0
0
0
0
0
3
3
2
2
0
0
0
0
0
0
0
0
0
0
0
0
0
0
0
0
0
0
0
0
0
0
0
0
3
3
2
2
0
0
0
0
0
0
0
0
0
0
0
0
0
0
0
0
0
0
0
0
0
0
0
0
3
3
2
2
0
0
0
0
0
0
0
0
0
0
0
0
0
0
0
0
0
0
0
0
0
0
0
0
3
3
2
2
0
0
0
0
0
0
0
0
0
0
0
0
0
0
0
0
0
0
0
0
0
0
0
0
3
3
2
2
0
0
0
0
0
0
0
0
0
0
0
0
0
0
0
0
0
0
0
0
0
0
0
0
3
3
2
2
0
0
0
0
0
0
0
0
0
0
0
0
0
0
0
0
0
0
0
0
0
0
0
0
3
3
2
2
0
0
0
0
0
0
0
0
0
0
0
0
0
0
0
0
0
0
0
0
0
0
0
0
3
3
2
2
0
0
0
0
0
0
0
0
0
0
0
0
0
0
0
0
0
0
0
0
0
0
0
0
3
3
2
2
0
0
0
0
0
0
0
0
0
0
0
0
0
0
0
0
0
0
0
0
0
0
0
0
3
3
2
2
0
0
0
0
0
0
0
0
0
0
0
0
0
0
0
0
0
0
0
0
0
0
0
0
3
3
2
2
0
0
0
0
0
0
0
0
0
0
0
0
0
0
0
0
0
0
0
0
0
0
0
0
3
3
2
2
0
0
0
0
0
0
0
0
0
0
0
0
0
0
0
0
0
0
0
0
0
0
0
0
3
3
2
2
0
0
0
0
0
0
0
0
0
0
0
0
0
0
0
0
0
0
0
0
0
0
0
0
3
3
2
2
0
0
0
0
0
0
0
0
0
0
0
0
0
0
0
0
0
0
0
0
0
0
0
0
3
3
2
2
0
0
0
0
0
0
0
0
0
0
0
0
0
0
0
0
0
0
0
0
0
0
0
0
3
3
2
2
0
0
0
0
0
0
0
0
0
0
0
0
0
0
0
0
0
0
0
0
0
0
0
0
3
3
2
2
0
0
0
0
0
0
0
0
0
0
0
0
0
0
0
0
0
0
0
0
0
0
0
0
3
3
2
2
0
0
0
0
0
0
0
0
0
0
0
0
0
0
0
0
0
0
0
0
0
0
0
0
3
3
2
2
0
0
0
0
0
0
0
0
0
0
0
0
0
0
0
0
0
0
0
0
0
0
0
0
3
3
2
2
0
0
0
0
0
0
0
0
0
0
0
0
0
0
0
0
0
0
0
0
0
0
0
0
3
3
2
2
0
0
0
0
0
0
0
0
0
0
0
0
0
0
0
0
0
0
0
0
0
0
0
0
3
3
2
2
0
0
0
0
0
0
0
0
0
0
0
0
0
0
0
0
0
0
0
0
0
0
0
0
3
3
2
2
0
0
0
0
0
0
0
0
0
0
0
0
0
0
0
0
0
0
0
0
0
0
0
0
3
3
2
2
0
0
0
0
0
0
0
0
0
0
0
0
0
0
0
0
0
0
0
0
0
0
0
0
3
3
2
2
0
0
0
0
0
0
0
0
0
0
0
0
0
0
0
0
0
0
0
0
0
0
0
0
3
3
2
2
0
0
0
0
0
0
0
0
0
0
0
0
0
0
0
0
0
0
0
0
0
0
0
0
3
3
2
2
0
0
0
0
0
0
0
0
0
0
0
0
0
0
0
0
0
0
0
0
0
0
0
0
3
3
2
2
0
0
0
0
0
0
0
0
0
0
0
0
0
0
0
0
0
0
0
0
0
0
0
0
3
3
2
2
0
0
0
0
0
0
0
0
0
0
0
0
0
0
0
0
0
0
0
0
0
0
0
0
3
3
2
2
0
0
0
0
0
0
0
0
0
0
0
0
0
0
0
0
0
0
0
0
0
0
0
0
3
3
2
2
0
0
0
0
0
0
0
0
0
0
0
0
0
0
0
0
0
0
0
0
0
0
0
0
3
3
2
2
2
2
2
2
2
2
2
2
2
2
2
2
2
2
2
2
2
2
2
2
2
2
2
2
3
3
2
2
2
2
2
2
2
2
2
2
2
2
2
2
2
2
2
2
2
2
2
2
2
2
2
2
3
3
3
3
3
3
3
3
3
3
3
3
3
3
3
3
3
3
3
3
3
3
3
3
3
3
3
3
3
3
3
3
3
3
3
3
3
3
3
3
3
3
3
3
3
3
3
3
3
3
3
3
3
3
3
3
</DataArray>
<DataArray NumberOfComponents='1' type='Float32' Name='Velocity' format='ascii'>
0.000000
0.000000
0.000000
0.000000
0.000000
0.000000
0.000000
0.000000
0.000000
0.000000
0.000000
0.000000
0.000000
0.000000
0.000000
0.000000
0.000000
0.000000
0.000000
0.000000
0.000000
0.000000
0.000000
0.000000
0.000000
0.000000
0.000000
0.000000
0.000000
0.000000
0.000000
0.000000
0.000000
0.000000
0.000000
0.000000
0.000000
0.000000
0.000000
0.000000
0.000000
0.000000
0.000000
0.000000
0.000000
0.000000
0.000000
0.000000
0.000000
0.000000
0.000000
0.000000
0.000000
0.000000
0.000000
0.000000
0.000000
0.000000
0.000000
0.000000
0.000000
0.000000
0.000000
0.000000
0.000000
0.000000
0.000000
0.000000
0.000000
0.000000
0.000000
0.000000
0.000000
0.000000
0.000000
0.000000
0.000000
0.000000
0.000000
0.000000
0.000000
0.000000
0.000000
0.000000
0.000000
0.000000
0.000000
0.000000
0.000000
0.000000
0.000000
0.000000
0.000000
0.000000
0.000000
0.000000
0.000000
0.000000
0.000000
0.000000
0.000000
0.000000
0.000000
0.000000
0.000000
0.000000
0.000000
0.000000
0.000000
0.000000
0.000000
0.000000
0.000000
0.000000
0.000000
0.000000
4401.146973
211.297104
71.635635
65.783249
0.636732
95356864.000000
114.368309
95.847412
69.004128
525.186157
2974.860107
367.568695
76158.242188
28429.560547
148.735031
901.442139
169.176117
1788.567993
167.618774
1675.754639
1005.646912
1089.286865
2536.298096
83049576.000000
1.000000
1.000000
1.000000
0.000000
0.000000
0.000000
0.000000
136.594589
130.357788
1853.564453
101.775963
5235.666016
43.006611
70.719688
63.775009
47323.453125
49283.636719
127.502525
153.544815
301.760315
3767.476318
23500.085938
1095.267212
148.590210
433.609344
2117.600830
488.811951
1537.103516
28240.535156
1152.572632
2972.037842
1.000000
1.000000
1.000000
0.000000
0.000000
0.000000
0.000000
131.185974
35737.621094
39.042160
4425.506348
89.622711
290.589874
241.185287
5297.025879
1010.771423
645.554871
241.156708
1881.137817
907.920898
1562.120972
952.550293
33.370167
5672.623535
1.745743
457.863556
150.311569
6866.545410
367.205017
9610.153320
2171.364258
1.000000
1.000000
1.000000
0.000000
0.000000
0.000000
0.000000
4556.876953
164219952.000000
1580.870361
135656.203125
10448.518555
133.761749
227129.031250
175.650558
49.452396
123.980080
85.913750
3279.676758
321.291809
367.732269
235.937210
275.855408
0.794560
434.197296
129.071274
365.094635
0.669016
264.993591
3320.437012
41519.234375
1.000000
1.000000
1.000000
0.000000
0.000000
0.000000
0.000000
1028.288086
3410.210205
2796.028809
907.010742
70.907578
250.657166
1508.931030
141.350006
81647.453125
1772.188721
887.367676
12657.956055
35.478123
470.805695
651.062744
1093.453735
10192.971680
2078.658936
172.761658
416.089996
196.244873
4303.690918
998466.625000
324624.781250
1.000000
1.000000
1.000000
0.000000
0.000000
0.000000
0.000000
50.317177
2240.243164
70.849548
297.325836
7866.750000
1.751773
464.796844
41.507309
311.338928
6514.495117
869.786133
99.260941
183.667007
42874.484375
12942.643555
269.996674
339.842804
7001.636230
13420.425781
9315.283203
12991.097656
558.812622
5252.333496
2126.241211
1.000000
1.000000
1.000000
0.000000
0.000000
0.000000
0.000000
623.072632
6834.768555
62.080551
107050.992188
1218.451416
337.737518
261.839172
439.243622
2641.857178
1696.146240
31802.392578
5007.677246
5386.246582
8406.692383
3478.263916
805.241211
17938.093750
6927.407227
37641568.000000
1239.961426
12991.694336
1129.895630
929.236328
4005.444824
1.000000
1.000000
1.000000
0.000000
0.000000
0.000000
0.000000
993.008057
2531.666260
1055.460449
938.669006
2521.857422
117.274597
27921.136719
287566.156250
1584.189331
1610.973999
98.604431
127.349625
320.791656
24645172.000000
1351.422974
15051.682617
1059.113403
1787.589478
1779.875977
4261.518555
17893.667969
2291.425293
1940.504150
2322.677979
1.000000
1.000000
1.000000
0.000000
0.000000
0.000000
0.000000
53.158867
10989698.000000
2051.374268
81.659714
772.525513
193.590286
20260.882812
485.038635
2113.237793
367.245178
6044.644043
390.868256
8532.597656
1277.791626
154.393738
0.848507
174152.937500
201.526184
264.108795
68543.257812
1490.347900
26142.607422
94.014824
191028.375000
1.000000
1.000000
1.000000
0.000000
0.000000
0.000000
0.000000
43348.949219
294.626678
129.081039
8021.462402
16063.669922
668.311951
1159.411377
12930.040039
190196.296875
587.290161
163.701950
941.811646
1673.790283
201.323853
92.310951
118.619667
266763.218750
157.075775
351.353302
289706.187500
496.601776
1081.073608
95400.984375
95085.890625
1.000000
1.000000
1.000000
0.000000
0.000000
0.000000
0.000000
608.882874
132.868790
1758.557251
37.944225
1789.051514
155.500076
92.059654
160.360825
245.830902
163.693497
858.523743
2963.467529
2021.255371
669.589478
304234.031250
60897.402344
109189544.000000
856.001526
43347.992188
5690.989258
126.144455
9136.493164
3866.522949
3981.519043
1.000000
1.000000
1.000000
0.000000
0.000000
0.000000
0.000000
292.051727
1010911488.000000
272.486664
313831.718750
43311.800781
41954936.000000
8093.136230
9932.387695
329.194916
406.480621
1308.410767
11015329.000000
862.844299
7859819520.000000
29.527082
57765.031250
117242.046875
1863.500000
619.311768
51.929790
7545.479004
6939.778320
161842336.000000
7707.962402
1.000000
1.000000
1.000000
0.000000
0.000000
0.000000
0.000000
818.562012
298.292236
101.105850
89.686615
105.508423
10577.954102
167.616440
163.494568
139.624557
2431.025635
6692.493652
1622.585083
346.873810
59.104858
2804.515869
379.996399
340.092529
69.760170
428.017517
1686.076660
705.973999
71.643890
39987.761719
4008.770996
1.000000
1.000000
1.000000
0.000000
0.000000
0.000000
0.000000
83.338196
1914.625366
184.372498
32.626972
238.067230
333.901306
2332.091309
7075.221191
854.854187
1093.532227
20028.587891
73.790649
402.277832
252.029846
246.656265
9487.568359
49153.617188
264.977112
90296.828125
275.644836
6454.316406
1103.638306
5125.628906
998081.687500
1.000000
1.000000
1.000000
0.000000
0.000000
0.000000
0.000000
118.606064
81898.593750
123.435944
1.148062
142.194290
594.963074
106.979561
2076.514893
41956152.000000
82.647446
885.438721
1017.461060
339448.062500
24146.205078
483.490875
710.731689
1162.508545
222.235168
1296.183228
51.463501
1559.075195
82941672.000000
956.181396
15229.242188
1.000000
1.000000
1.000000
0.000000
0.000000
0.000000
0.000000
1401.972412
44920.695312
320.541412
285.027740
477.720032
909.392212
141.699554
1768.375854
215.492676
2586.462158
17709.277344
449.262085
2946.437744
695.402344
225.932220
48621.324219
95.769180
12590.290039
3795.550537
1773.430298
126.668289
1777.934082
1130.591675
15809.708008
1.000000
1.000000
1.000000
0.000000
0.000000
0.000000
0.000000
240.878677
1067.292480
198.444168
514.127380
23249.574219
79.411797
1826.201904
2047.878418
4755.496582
126.023949
612.827759
4968.310547
3887.404785
181.581131
276.779877
131.450607
361.870361
385.123474
159659.765625
190.964096
5988.016602
70.828522
101.603767
4415.030762
0.000000
0.000000
0.000000
0.000000
59.368992
39281.589844
2573.357910
152.815231
2678.072754
4871.105469
2317.484863
10128.697266
2524.782959
21142.867188
6729.226074
7730.234375
194.172104
98441824.000000
1943.036499
495978.718750
6310.360352
25976.511719
419.339874
553.078796
96046.179688
27242.650391
146.361465
1062.314087
0.000000
0.000000
0.000000
0.000000
1974.891113
698.483765
133.197281
376.826385
297.227051
5027.547852
121.071907
62.560516
170.085052
7906.455566
1055.284912
3710.570801
98599.773438
233.137222
129.897171
159.393356
287.230865
529.014221
4829300.500000
19885750.000000
1419.926514
2171.099854
608.865540
15961.974609
0.000000
0.000000
0.000000
0.000000
53.049576
1297.926636
471.762085
3207.317383
3089.565430
261.013489
13265.610352
468.267090
123.932648
288258.031250
47.842281
1296.181519
525.542603
43177.585938
900.672119
1070.372803
1930363.250000
14036.026367
197.120697
52.033257
2958.345215
695.287048
1278.111816
4774220.000000
0.000000
0.000000
0.000000
0.000000
1512.837891
1346.325195
160.162720
4118.797852
43065.179688
604.261719
406.949677
351.767334
684.729553
301.902771
1742.222168
269.730560
585.389526
166.320358
118.166039
101.383644
5530499.500000
210.452377
1231.119751
349.687531
4797.705566
2164.493164
1835.219360
2571.439209
0.000000
0.000000
0.000000
0.000000
126.164742
730.543152
55.120106
1666460.000000
23588.007812
279.487183
62.464863
71.786560
1928.103271
6808.812012
203547328.000000
136.820221
2088.255127
814.367188
275.583405
114.917091
735.618591
200.527054
186.842697
327.647247
1228.467041
307293.531250
344.994446
1176.527832
0.000000
0.000000
0.000000
0.000000
416.746063
1507.876709
264.665314
1455.617432
122.138565
2293.411621
467.164276
39930.308594
95.443214
30677.167969
1210.369873
225.120651
3375.189453
62.126297
3205.731934
102359.640625
1631.704834
152.407532
3961.635010
251.648804
38518.195312
119.671555
709.706909
2748.515137
0.000000
0.000000
0.000000
0.000000
67.833298
0.677561
9624.403320
367294.187500
352.057404
208.827499
57535692.000000
21696.732422
795.441345
888.993835
6319.538574
1935943.625000
140.130859
99.470490
1905.053955
987.099304
1159.524658
1434.093262
4917.751953
1235.738159
203547792.000000
40052.703125
4401.814453
9517.409180
0.000000
0.000000
0.000000
0.000000
60.713322
420902.468750
286.701904
5.293972
139928.656250
84.292870
15248.884766
1195.130981
371.746735
335.711700
795.534119
2211.969971
17536.003906
28250.310547
1568.987549
188.519440
256.305023
308.889832
1241.359619
1.393440
15372175.000000
92.677521
416.818726
1096.162231
0.000000
0.000000
0.000000
0.000000
619.543030
46.740067
3190.041504
903.122131
2151.262695
294.181274
709960.875000
350.460083
446.739532
9597.116211
674.470337
127.060417
42.186901
48.024731
441.963165
3.330688
1016.998474
851.317200
3603.620850
300.517365
3788.651367
12455.858398
5500.624512
4545.190918
0.000000
0.000000
0.000000
0.000000
1067.400024
163.833847
10160.043945
24003.636719
3.246742
79958.921875
81155.101562
140150.390625
2077.960938
91.738037
106.877304
327.488892
1349.345947
1.722707
881.979370
616.670410
68.396812
58.356525
937.525269
1072.491699
2232.904053
993.320068
156.806915
1799.649048
0.000000
0.000000
0.000000
0.000000
16076.104492
69402.578125
860.388489
102.293076
205149.765625
798.660095
163.137283
4412.478516
1244.851196
87.819939
24622.794922
22168.945312
257.116058
10534.062500
369.134430
287.124756
1438.025024
2015.261719
539.909790
27196.580078
234.987335
6550.598145
86.918465
8849.883789
0.000000
0.000000
0.000000
0.000000
16157.388672
112181.328125
699.836975
1522.413086
124.678619
94768.734375
304.407074
3327.283447
3160.281738
478.384094
452.363037
219.090103
1069.542358
4889.994629
12373.292969
82307.070312
81594.234375
25816.574219
578.506226
963.875977
163329.281250
107688.375000
1085.744141
2122.819336
0.000000
0.000000
0.000000
0.000000
475.398071
75.447678
67.012291
83.501587
107776.656250
3959.655518
1708.483887
336.578979
703.357910
663460.062500
2241.189209
1526.827637
1064.542969
23744.474609
50.874561
152.174011
102.826927
108.512680
960.821777
228.278732
225.359756
2353.736328
370.313293
2052.434814
0.000000
0.000000
0.000000
0.000000
12854.771484
61.312431
786193.125000
728.250916
259.582642
307.200043
369.990234
1898.105591
7.528988
22492.894531
29818181648384.000000
496.841217
620.065796
804.677551
173.320160
812.370117
301.146515
139.783707
295.920532
64.377609
714.599792
32273.300781
7108.781738
6861.729980
0.000000
0.000000
0.000000
0.000000
2028.493408
11138.450195
1780.535400
153.771042
1589.056519
4642.447266
333.355438
12982.335938
19754.939453
344.105591
3009.761719
49007.941406
874.248901
250.092300
6126.149902
612.786987
1223.236206
542.618408
81.800278
3513.587158
90958.132812
377.653717
1723.754639
20954.785156
0.000000
0.000000
0.000000
0.000000
81.310486
68.572227
3366.476807
206.840378
19579.244141
1999.978271
801.598145
480.033203
550.244995
123.560822
46.313763
70.088585
109.097557
1251777920.000000
3622.627686
154.973297
238.407578
203.889618
129.115860
39097.652344
276.600006
5787.452148
22679.455078
5686.154785
0.000000
0.000000
0.000000
0.000000
109266000.000000
4917.509766
1116.316528
92.265533
398.068054
1107.807373
0.250329
95356440.000000
1634.575684
16806.013672
1747.629883
145.127213
24.168087
82.929199
24338.183594
247.963623
3994.043457
831.436707
1146.707031
161.427811
302.257874
2317.697266
11944.700195
5083.729492
0.000000
0.000000
0.000000
0.000000
128181.062500
10.224701
215609.859375
536.374817
122.334396
8.924848
152.014404
386.373749
547.868103
13220.782227
46276.207031
185422.375000
1104.032349
29612.666016
1146.796631
2676.446289
6082527.000000
242.803467
578.499939
47.458229
14900.021484
372.644867
2859.615967
23664962.000000
0.000000
0.000000
0.000000
0.000000
190375.000000
103.275070
551.206360
226.627731
22319.664062
3954.918213
9132.239258
117335.429688
1647.227295
545.808838
73.041435
685.813843
36312.187500
160.670990
43.534107
169.555481
202056.750000
4898.444824
1320.488281
118.687180
1744.709106
450.540100
710.895996
3154.097656
0.000000
0.000000
0.000000
0.000000
67.529335
1.604059
19159504.000000
963.640015
130.425125
501.295166
353.608734
2869.976318
365.904572
15207.968750
345.012970
294.919647
2974.724121
284.403687
411.463165
113043.062500
1573.701294
3447.337891
2709.003418
3052.732422
903.211792
758.280640
39002.503906
11095.386719
0.000000
0.000000
0.000000
0.000000
57.914330
400.800812
486.033936
8088.149902
693.891052
831.906616
2774.846436
169.949585
15408.335938
128.900299
1795.996460
281.796356
113.439133
77766.070312
1174.392578
2777.975098
651.685791
306.555511
3431.961426
1633.001099
532.378662
174258.468750
450.221252
79955.398438
0.000000
0.000000
0.000000
0.000000
33.446842
121.564537
115.490143
810.278076
102.146019
206.068970
76.581444
45.205498
15372272.000000
124.547569
80961.046875
448975.000000
1671.830566
155.308670
286.042419
98099.492188
2749.588379
944355.062500
362.932800
127.731598
21627.935547
68.305496
134.533493
4928.937988
0.000000
0.000000
0.000000
0.000000
83570.054688
171.434647
2606.083740
2178.379639
1035.766357
173769.375000
75.511421
644.696289
587.647339
58.932487
208.380905
481.206055
3.875510
3997.194824
3392.789551
587638.875000
258.389679
310.707520
217.540756
793.182434
695.573608
111.525978
205.579575
960.023804
0.000000
0.000000
0.000000
0.000000
109.108810
105.146034
172.868149
319320.937500
2214.419434
3.440404
219.521774
3348.979736
571.276611
6086.169922
27423.615234
21588.724609
39.618839
429.212250
8697.564453
170.264069
29.255571
128166.570312
17504.244141
4533.449219
7180.252930
196820.312500
144.771927
8062.259766
0.000000
0.000000
0.000000
0.000000
335.946045
2884.273926
400.546082
91.776215
10511.005859
2768.916016
3429.566162
8100.899902
68835.500000
168.140442
215246224.000000
4244.303223
873.306396
227.319077
99.797150
488973.312500
36.689949
112331.828125
2133.500000
116.107651
2610.364502
2110.399658
88.509293
1164.855469