<?xml version='1.0' encoding='UTF-8'?>
<VTKFile xmlns='VTK' byte_order='LittleEndian' version='0.1' type='UnstructuredGrid'>
<UnstructuredGrid>
<Piece NumberOfCells='2512' NumberOfPoints='2512'>
<Points>
<DataArray NumberOfComponents='3' type='Float32' Name='Position' format='ascii'>
-0.075000 -0.075000 0.000000
-0.075000 -0.050000 0.000000
-0.075000 -0.025000 0.000000
-0.075000 0.000000 0.000000
-0.075000 0.025000 0.000000
-0.075000 0.050000 0.000000
-0.075000 0.075000 0.000000
-0.075000 0.100000 0.000000
-0.075000 0.125000 0.000000
-0.075000 0.150000 0.000000
-0.075000 0.175000 0.000000
-0.075000 0.200000 0.000000
-0.075000 0.225000 0.000000
-0.075000 0.250000 0.000000
-0.075000 0.275000 0.000000
-0.075000 0.300000 0.000000
-0.075000 0.325000 0.000000
-0.075000 0.350000 0.000000
-0.075000 0.375000 0.000000
-0.075000 0.400000 0.000000
-0.075000 0.425000 0.000000
-0.075000 0.450000 0.000000
-0.075000 0.475000 0.000000
-0.075000 0.500000 0.000000
-0.075000 0.525000 0.000000
-0.075000 0.550000 0.000000
-0.075000 0.575000 0.000000
-0.075000 0.600000 0.000000
-0.050000 -0.075000 0.000000
-0.050000 -0.050000 0.000000
-0.050000 -0.025000 0.000000
-0.050000 0.000000 0.000000
-0.050000 0.025000 0.000000
-0.050000 0.050000 0.000000
-0.050000 0.075000 0.000000
-0.050000 0.100000 0.000000
-0.050000 0.125000 0.000000
-0.050000 0.150000 0.000000
-0.050000 0.175000 0.000000
-0.050000 0.200000 0.000000
-0.050000 0.225000 0.000000
-0.050000 0.250000 0.000000
-0.050000 0.275000 0.000000
-0.050000 0.300000 0.000000
-0.050000 0.325000 0.000000
-0.050000 0.350000 0.000000
-0.050000 0.375000 0.000000
-0.050000 0.400000 0.000000
-0.050000 0.425000 0.000000
-0.050000 0.450000 0.000000
-0.050000 0.475000 0.000000
-0.050000 0.500000 0.000000
-0.050000 0.525000 0.000000
-0.050000 0.550000 0.000000
-0.050000 0.575000 0.000000
-0.050000 0.600000 0.000000
-0.025000 -0.075000 0.000000
-0.025000 -0.050000 0.000000
-0.025000 -0.025000 0.000000
-0.025000 0.000000 0.000000
-0.025000 0.025000 0.000000
-0.025000 0.050000 0.000000
-0.025000 0.075000 0.000000
-0.025000 0.100000 0.000000
-0.025000 0.125000 0.000000
-0.025000 0.150000 0.000000
-0.025000 0.175000 0.000000
-0.025000 0.200000 0.000000
-0.025000 0.225000 0.000000
-0.025000 0.250000 0.000000
-0.025000 0.275000 0.000000
-0.025000 0.300000 0.000000
-0.025000 0.325000 0.000000
-0.025000 0.350000 0.000000
-0.025000 0.375000 0.000000
-0.025000 0.400000 0.000000
-0.025000 0.425000 0.000000
-0.025000 0.450000 0.000000
-0.025000 0.475000 0.000000
-0.025000 0.500000 0.000000
-0.025000 0.525000 0.000000
-0.025000 0.550000 0.000000
-0.025000 0.575000 0.000000
-0.025000 0.600000 0.000000
0.000000 -0.075000 0.000000
0.000000 -0.050000 0.000000
0.000000 -0.025000 0.000000
0.000000 0.000000 0.000000
0.000000 0.025000 0.000000
0.000000 0.050000 0.000000
0.000000 0.075000 0.000000
0.000000 0.100000 0.000000
0.000000 0.125000 0.000000
0.000000 0.150000 0.000000
0.000000 0.175000 0.000000
0.000000 0.200000 0.000000
0.000000 0.225000 0.000000
0.000000 0.250000 0.000000
0.000000 0.275000 0.000000
0.000000 0.300000 0.000000
0.000000 0.325000 0.000000
0.000000 0.350000 0.000000
0.000000 0.375000 0.000000
0.000000 0.400000 0.000000
0.000000 0.425000 0.000000
0.000000 0.450000 0.000000
0.000000 0.475000 0.000000
0.000000 0.500000 0.000000
0.000000 0.525000 0.000000
0.000000 0.550000 0.000000
0.000000 0.575000 0.000000
0.000000 0.600000 0.000000
0.025000 -0.075000 0.000000
0.025000 -0.050000 0.000000
0.025000 -0.025000 0.000000
0.025000 0.000000 0.000000
-962.496827 0.600000 0.000000
28.118880 -47.628123 0.000000
-9.419177 -15.661156 0.000000
6.784688 -15.311791 0.000000
0.238655 0.105959 0.000000
-23839215.978011 0.600000 0.000000
4.147843 -29.155651 0.000000
12.003879 -21.324745 0.000000
-17.953619 -2.780170 0.000000
4.682603 -115.310059 0.000000
219.073966 -756.350154 0.000000
14.508454 -95.694364 0.000000
19875.579348 0.600000 0.000000
-7350.253789 0.600000 0.000000
-26.264966 0.600000 0.000000
-110.550361 -211.684621 0.000000
-31.828065 -30.689591 0.000000
275.963076 -384.228884 0.000000
27.636891 -31.188524 0.000000
-438.041186 0.600000 0.000000
114.111597 -242.942558 0.000000
-284.152372 0.600000 0.000000
-673.687057 0.600000 0.000000
22091186.716899 0.600000 0.000000
1.265000 0.625000 0.000000
1.265000 0.650000 0.000000
1.265000 0.675000 0.000000
0.050000 -0.075000 0.000000
0.050000 -0.050000 0.000000
0.050000 -0.025000 0.000000
0.050000 0.000000 0.000000
-36.009179 0.600000 0.000000
-31.839328 -9.272208 0.000000
453.581177 0.600000 0.000000
21.178577 0.600000 0.000000
1368.588085 0.600000 0.000000
-8.635321 -5.960683 0.000000
-8.242009 -15.920161 0.000000
-16.369218 0.600000 0.000000
-5932.316107 -11047.903131 0.000000
5762.246209 0.600000 0.000000
2.584484 -32.766155 0.000000
27.956070 -26.040289 0.000000
-74.300352 -28.356705 0.000000
417.936520 0.600000 0.000000
5827.089233 0.600000 0.000000
-288.890301 0.600000 0.000000
-35.262163 -16.951876 0.000000
-101.783595 0.600000 0.000000
545.400470 0.600000 0.000000
-76.970714 -101.125885 0.000000
363.576502 0.600000 0.000000
7298.400871 -1521.490119 0.000000
73.006511 -299.091836 0.000000
791.221314 0.600000 0.000000
1.290000 0.625000 0.000000
1.290000 0.650000 0.000000
1.290000 0.675000 0.000000
0.075000 -0.075000 0.000000
0.075000 -0.050000 0.000000
0.075000 -0.025000 0.000000
0.075000 0.000000 0.000000
-24.185321 -23.985157 0.000000
8502.560306 0.600000 0.000000
7.540383 0.600000 0.000000
-1133.352578 0.600000 0.000000
-19.197314 -13.151059 0.000000
59.543085 0.600000 0.000000
12.461896 -57.834433 0.000000
1375.074503 0.600000 0.000000
274.034922 0.600000 0.000000
13.735504 -158.921336 0.000000
45.125126 -43.946479 0.000000
-491.595034 0.600000 0.000000
-228.573970 0.600000 0.000000
343.761210 -226.899201 0.000000
246.246916 0.600000 0.000000
9.164892 -0.342548 0.000000
1365.219558 -542.549783 0.000000
0.018323 0.043562 0.000000
93.788462 -73.352060 0.000000
22.509949 -31.452720 0.000000
1812.599559 0.600000 0.000000
-33.099633 -90.432740 0.000000
-2541.069085 0.600000 0.000000
-559.438423 0.600000 0.000000
1.315000 0.625000 0.000000
1.315000 0.650000 0.000000
1.315000 0.675000 0.000000
0.100000 -0.075000 0.000000
0.100000 -0.050000 0.000000
0.100000 -0.025000 0.000000
0.100000 0.000000 0.000000
-313.339905 0.600000 0.000000
39084346.423713 0.600000 0.000000
-301.176265 -285.887657 0.000000
32698.038906 0.600000 0.000000
-2741.901290 0.600000 0.000000
-1.084164 0.600000 0.000000
-57020.264486 0.600000 0.000000
46.037503 -0.296632 0.000000
7.246701 -10.018544 0.000000
29.641370 -12.394471 0.000000
-10.884741 -18.788563 0.000000
-851.028952 0.600000 0.000000
-28.400458 0.600000 0.000000
94.134772 -22.262347 0.000000
-55.904012 0.600000 0.000000
-54.403427 -45.716471 0.000000
0.079650 0.137272 0.000000
-9.660471 0.600000 0.000000
26.988948 -16.546785 0.000000
-74.655120 0.600000 0.000000
0.927576 0.131099 0.000000
38.886945 -56.890003 0.000000
874.875832 0.600000 0.000000
-11041.287596 0.600000 0.000000
1.340000 0.625000 0.000000
1.340000 0.650000 0.000000
1.340000 0.675000 0.000000
0.125000 -0.075000 0.000000
0.125000 -0.050000 0.000000
0.125000 -0.025000 0.000000
0.125000 0.000000 0.000000
-244.237543 0.600000 0.000000
773.662461 0.600000 0.000000
-702.341993 0.600000 0.000000
-216.641531 0.600000 0.000000
3.088946 -17.274444 0.000000
54.428545 -37.882891 0.000000
-320.561072 0.600000 0.000000
-5.428767 -35.808871 0.000000
20732.432749 0.600000 0.000000
-135.167881 -445.182808 0.000000
-174.959411 0.600000 0.000000
-1692.014022 0.600000 0.000000
-7.166519 -0.191591 0.000000
-117.190712 0.600000 0.000000
-166.575944 0.600000 0.000000
-183.251307 0.600000 0.000000
2490.134760 0.600000 0.000000
533.669295 0.600000 0.000000
-11.443173 -42.198607 0.000000
-92.595803 -56.915978 0.000000
-52.623172 0.106050 0.000000
960.525489 0.600000 0.000000
267589.274714 0.600000 0.000000
-81829.325763 0.600000 0.000000
1.365000 0.625000 0.000000
1.365000 0.650000 0.000000
1.365000 0.675000 0.000000
0.150000 -0.075000 0.000000
0.150000 -0.050000 0.000000
0.150000 -0.025000 0.000000
0.150000 0.000000 0.000000
-29.976726 0.600000 0.000000
-571.746401 0.600000 0.000000
-0.504869 -17.991488 0.000000
-65.729453 -40.112319 0.000000
-1839.225830 0.600000 0.000000
1.843918 0.246502 0.000000
115.177270 0.600000 0.000000
3.351622 -9.420518 0.000000
-65.105433 0.600000 0.000000
-1659.126967 0.600000 0.000000
-209.185461 -93.686107 0.000000
10.297199 -23.397218 0.000000
-34.172451 -30.740606 0.000000
-11318.302336 0.600000 0.000000
-3374.162207 0.600000 0.000000
-65.954438 -26.191244 0.000000
-75.666996 0.600000 0.000000
4.395687 -1840.216914 0.000000
3501.308463 0.600000 0.000000
2403.511350 0.600000 0.000000
-3364.291505 0.600000 0.000000
57.471794 -137.227322 0.000000
1407.319364 0.600000 0.000000
565.391612 0.600000 0.000000
1.390000 0.625000 0.000000
1.390000 0.650000 0.000000
1.390000 0.675000 0.000000
0.175000 -0.075000 0.000000
0.175000 -0.050000 0.000000
0.175000 -0.025000 0.000000
0.175000 0.000000 0.000000
-149.359250 0.600000 0.000000
-1630.219809 0.600000 0.000000
3.904301 -15.157686 0.000000
27401.368115 0.600000 0.000000
311.416865 0.600000 0.000000
-70.779970 -53.784208 0.000000
8.219261 -67.899969 0.000000
102.329674 0.600000 0.000000
-654.957057 0.600000 0.000000
-398.462939 -203.120842 0.000000
7664.821206 0.600000 0.000000
-1146.393202 0.600000 0.000000
1373.345701 0.600000 0.000000
2200.962053 0.600000 0.000000
802.157654 -385.386387 0.000000
-204.013906 0.600000 0.000000
-1950.315545 -4353.633667 0.000000
1761.905974 0.600000 0.000000
9711519.922015 0.600000 0.000000
323.172436 0.600000 0.000000
3454.261137 0.600000 0.000000
-273.643032 -125.617715 0.000000
-39.891146 -245.489756 0.000000
914.126831 0.600000 0.000000
1.415000 0.625000 0.000000
1.415000 0.650000 0.000000
1.415000 0.675000 0.000000
0.200000 -0.075000 0.000000
0.200000 -0.050000 0.000000
0.200000 -0.025000 0.000000
0.200000 0.000000 0.000000
-235.808668 0.600000 0.000000
[...]
<PointData>
<DataArray NumberOfComponents='1' type='Int32' Name='ParticleType' format='ascii'>
3
3
3
3
3
3
3
3
3
3
3
3
3
3
3
3
3
3
3
3
3
3
3
3
3
3
3
3
3
3
3
3
3
3
3
3
3
3
3
3
3
3
3
3
3
3
3
3
3
3
3
3
3
3
3
3
3
3
2
2
2
2
2
2
2
2
2
2
2
2
2
2
2
2
2
2
2
2
2
2
2
2
2
2
3
3
2
2
2
2
2
2
2
2
2
2
2
2
2
2
2
2
2
2
2
2
2
2
2
2
2
2
3
3
2
2
0
0
0
0
0
0
0
0
0
0
0
0
0
0
0
0
0
0
0
0
0
0
0
0
1
1
1
3
3
2
2
0
0
0
0
0
0
0
0
0
0
0
0
0
0
0
0
0
0
0
0
0
0
0
0
1
1
1
3
3
2
2
0
0
0
0
0
0
0
0
0
0
0
0
0
0
0
0
0
0
0
0
0
0
0
0
1
1
1
3
3
2
2
0
0
0
0
0
0
0
0
0
0
0
0
0
0
0
0
0
0
0
0
0
0
0
0
1
1
1
3
3
2
2
0
0
0
0
0
0
0
0
0
0
0
0
0
0
0
0
0
0
0
0
0
0
0
0
1
1
1
3
3
2
2
0
0
0
0
0
0
0
0
0
0
0
0
0
0
0
0
0
0
0
0
0
0
0
0
1
1
1
3
3
2
2
0
0
0
0
0
0
0
0
0
0
0
0
0
0
0
0
0
0
0
0
0
0
0
0
1
1
1
3
3
2
2
0
0
0
0
0
0
0
0
0
0
0
0
0
0
0
0
0
0
0
0
0
0
0
0
1
1
1
3
3
2
2
0
0
0
0
0
0
0
0
0
0
0
0
0
0
0
0
0
0
0
0
0
0
0
0
1
1
1
3
3
2
2
0
0
0
0
0
0
0
0
0
0
0
0
0
0
0
0
0
0
0
0
0
0
0
0
1
1
1
3
3
2
2
0
0
0
0
0
0
0
0
0
0
0
0
0
0
0
0
0
0
0
0
0
0
0
0
1
1
1
3
3
2
2
0
0
0
0
0
0
0
0
0
0
0
0
0
0
0
0
0
0
0
0
0
0
0
0
1
1
1
3
3
2
2
0
0
0
0
0
0
0
0
0
0
0
0
0
0
0
0
0
0
0
0
0
0
0
0
1
1
1
3
3
2
2
0
0
0
0
0
0
0
0
0
0
0
0
0
0
0
0
0
0
0
0
0
0
0
0
1
1
1
3
3
2
2
0
0
0
0
0
0
0
0
0
0
0
0
0
0
0
0
0
0
0
0
0
0
0
0
1
1
1
3
3
2
2
0
0
0
0
0
0
0
0
0
0
0
0
0
0
0
0
0
0
0
0
0
0
0
0
1
1
1
3
3
2
2
0
0
0
0
0
0
0
0
0
0
0
0
0
0
0
0
0
0
0
0
0
0
0
0
3
3
2
2
0
0
0
0
0
0
0
0
0
0
0
0
0
0
0
0
0
0
0
0
0
0
0
0
3
3
2
2
0
0
0
0
0
0
0
0
0
0
0
0
0
0
0
0
0
0
0
0
0
0
0
0
3
3
2
2
0
0
0
0
0
0
0
0
0
0
0
0
0
0
0
0
0
0
0
0
0
0
0
0
3
3
2
2
0
0
0
0
0
0
0
0
0
0
0
0
0
0
0
0
0
0
0
0
0
0
0
0
3
3
2
2
0
0
0
0
0
0
0
0
0
0
0
0
0
0
0
0
0
0
0
0
0
0
0
0
3
3
2
2
0
0
0
0
0
0
0
0
0
0
0
0
0
0
0
0
0
0
0
0
0
0
0
0
3
3
2
2
0
0
0
0
0
0
0
0
0
0
0
0
0
0
0
0
0
0
0
0
0
0
0
0
3
3
2
2
0
0
0
0
0
0
0
0
0
0
0
0
0
0
0
0
0
0
0
0
0
0
0
0
3
3
2
2
0
0
0
0
0
0
0
0
0
0
0
0
0
0
0
0
0
0
0
0
0
0
0
0
3
3
2
2
0
0
0
0
0
0
0
0
0
0
0
0
0
0
0
0
0
0
0
0
0
0
0
0
3
3
2
2
0
0
0
0
0
0
0
0
0
0
0
0
0
0
0
0
0
0
0
0
0
0
0
0
3
3
2
2
0
0
0
0
0
0
0
0
0
0
0
0
0
0
0
0
0
0
0
0
0
0
0
0
3
3
2
2
0
0
0
0
0
0
0
0
0
0
0
0
0
0
0
0
0
0
0
0
0
0
0
0
3
3
2
2
0
0
0
0
0
0
0
0
0
0
0
0
0
0
0
0
0
0
0
0
0
0
0
0
3
3
2
2
0
0
0
0
0
0
0
0
0
0
0
0
0
0
0
0
0
0
0
0
0
0
0
0
3
3
2
2
0
0
0
0
0
0
0
0
0
0
0
0
0
0
0
0
0
0
0
0
0
0
0
0
3
3
2
2
0
0
0
0
0
0
0
0
0
0
0
0
0
0
0
0
0
0
0
0
0
0
0
0
3
3
2
2
0
0
0
0
0
0
0
0
0
0
0
0
0
0
0
0
0
0
0
0
0
0
0
0
3
3
2
2
0
0
0
0
0
0
0
0
0
0
0
0
0
0
0
0
0
0
0
0
0
0
0
0
3
3
2
2
0
0
0
0
0
0
0
0
0
0
0
0
0
0
0
0
0
0
0
0
0
0
0
0
3
3
2
2
0
0
0
0
0
0
0
0
0
0
0
0
0
0
0
0
0
0
0
0
0
0
0
0
3
3
2
2
0
0
0
0
0
0
0
0
0
0
0
0
0
0
0
0
0
0
0
0
0
0
0
0
3
3
2
2
0
0
0
0
0
0
0
0
0
0
0
0
0
0
0
0
0
0
0
0
0
0
0
0
3
3
2
2
0
0
0
0
0
0
0
0
0
0
0
0
0
0
0
0
0
0
0
0
0
0
0
0
3
3
2
2
0
0
0
0
0
0
0
0
0
0
0
0
0
0
0
0
0
0
0
0
0
0
0
0
3
3
2
2
0
0
0
0
0
0
0
0
0
0
0
0
0
0
0
0
0
0
0
0
0
0
0
0
3
3
2
2
0
0
0
0
0
0
0
0
0
0
0
0
0
0
0
0
0
0
0
0
0
0
0
0
3
3
2
2
0
0
0
0
0
0
0
0
0
0
0
0
0
0
0
0
0
0
0
0
0
0
0
0
3
3
2
2
0
0
0
0
0
0
0
0
0
0
0
0
0
0
0
0
0
0
0
0
0
0
0
0
3
3
2
2
0
0
0
0
0
0
0
0
0
0
0
0
0
0
0
0
0
0
0
0
0
0
0
0
3
3
2
2
0
0
0
0
0
0
0
0
0
0
0
0
0
0
0
0
0
0
0
0
0
0
0
0
3
3
2
2
0
0
0
0
0
0
0
0
0
0
0
0
0
0
0
0
0
0
0
0
0
0
0
0
3
3
2
2
0
0
0
0
0
0
0
0
0
0
0
0
0
0
0
0
0
0
0
0
0
0
0
0
3
3
2
2
0
0
0
0
0
0
0
0
0
0
0
0
0
0
0
0
0
0
0
0
0
0
0
0
3
3
2
2
0
0
0
0
0
0
0
0
0
0
0
0
0
0
0
0
0
0
0
0
0
0
0
0
3
3
2
2
0
0
0
0
0
0
0
0
0
0
0
0
0
0
0
0
0
0
0
0
0
0
0
0
3
3
2
2
0
0
0
0
0
0
0
0
0
0
0
0
0
0
0
0
0
0
0
0
0
0
0
0
3
3
2
2
0
0
0
0
0
0
0
0
0
0
0
0
0
0
0
0
0
0
0
0
0
0
0
0
3
3
2
2
0
0
0
0
0
0
0
0
0
0
0
0
0
0
0
0
0
0
0
0
0
0
0
0
3
3
2
2
0
0
0
0
0
0
0
0
0
0
0
0
0
0
0
0
0
0
0
0
0
0
0
0
3
3
2
2
0
0
0
0
0
0
0
0
0
0
0
0
0
0
0
0
0
0
0
0
0
0
0
0
3
3
2
2
0
0
0
0
0
0
0
0
0
0
0
0
0
0
0
0
0
0
0
0
0
0
0
0
3
3
2
2
0
0
0
0
0
0
0
0
0
0
0
0
0
0
0
0
0
0
0
0
0
0
0
0
3
3
2
2
0
0
0
0
0
0
0
0
0
0
0
0
0
0
0
0
0
0
0
0
0
0
0
0
3
3
2
2
0
0
0
0
0
0
0
0
0
0
0
0
0
0
0
0
0
0
0
0
0
0
0
0
3
3
2
2
0
0
0
0
0
0
0
0
0
0
0
0
0
0
0
0
0
0
0
0
0
0
0
0
3
3
2
2
0
0
0
0
0
0
0
0
0
0
0
0
0
0
0
0
0
0
0
0
0
0
0
0
3
3
2
2
0
0
0
0
0
0
0
0
0
0
0
0
0
0
0
0
0
0
0
0
0
0
0
0
3
3
2
2
0
0
0
0
0
0
0
0
0
0
0
0
0
0
0
0
0
0
0
0
0
0
0
0
3
3
2
2
0
0
0
0
0
0
0
0
0
0
0
0
0
0
0
0
0
0
0
0
0
0
0
0
3
3
2
2
0
0
0
0
0
0
0
0
0
0
0
0
0
0
0
0
0
0
0
0
0
0
0
0
3
3
2
2
0
0
0
0
0
0
0
0
0
0
0
0
0
0
0
0
0
0
0
0
0
0
0
0
3
3
2
2
0
0
0
0
0
0
0
0
0
0
0
0
0
0
0
0
0
0
0
0
0
0
0
0
3
3
2
2
0
0
0
0
0
0
0
0
0
0
0
0
0
0
0
0
0
0
0
0
0
0
0
0
3
3
2
2
0
0
0
0
0
0
0
0
0
0
0
0
0
0
0
0
0
0
0
0
0
0
0
0
3
3
2
2
0
0
0
0
0
0
0
0
0
0
0
0
0
0
0
0
0
0
0
0
0
0
0
0
3
3
2
2
0
0
0
0
0
0
0
0
0
0
0
0
0
0
0
0
0
0
0
0
0
0
0
0
3
3
2
2
0
0
0
0
0
0
0
0
0
0
0
0
0
0
0
0
0
0
0
0
0
0
0
0
3
3
2
2
0
0
0
0
0
0
0
0
0
0
0
0
0
0
0
0
0
0
0
0
0
0
0
0
3
3
2
2
0
0
0
0
0
0
0
0
0
0
0
0
0
0
0
0
0
0
0
0
0
0
0
0
3
3
2
2
0
0
0
0
0
0
0
0
0
0
0
0
0
0
0
0
0
0
0
0
0
0
0
0
3
3
2
2
0
0
0
0
0
0
0
0
0
0
0
0
0
0
0
0
0
0
0
0
0
0
0
0
3
3
2
2
0
0
0
0
0
0
0
0
0
0
0
0
0
0
0
0
0
0
0
0
0
0
0
0
3
3
2
2
2
2
2
2
2
2
2
2
2
2
2
2
2
2
2
2
2
2
2
2
2
2
2
2
3
3
2
2
2
2
2
2
2
2
2
2
2
2
2
2
2
2
2
2
2
2
2
2
2
2
2
2
3
3
3
3
3
3
3
3
3
3
3
3
3
3
3
3
3
3
3
3
3
3
3
3
3
3
3
3
3
3
3
3
3
3
3
3
3
3
3
3
3
3
3
3
3
3
3
3
3
3
3
3
3
3
3
3
</DataArray>
<DataArray NumberOfComponents='1' type='Float32' Name='Velocity' format='ascii'>
0.000000
0.000000
0.000000
0.000000
0.000000
0.000000
0.000000
0.000000
0.000000
0.000000
0.000000
0.000000
0.000000
0.000000
0.000000
0.000000
0.000000
0.000000
0.000000
0.000000
0.000000
0.000000
0.000000
0.000000
0.000000
0.000000
0.000000
0.000000
0.000000
0.000000
0.000000
0.000000
0.000000
0.000000
0.000000
0.000000
0.000000
0.000000
0.000000
0.000000
0.000000
0.000000
0.000000
0.000000
0.000000
0.000000
0.000000
0.000000
0.000000
0.000000
0.000000
0.000000
0.000000
0.000000
0.000000
0.000000
0.000000
0.000000
0.000000
0.000000
0.000000
0.000000
0.000000
0.000000
0.000000
0.000000
0.000000
0.000000
0.000000
0.000000
0.000000
0.000000
0.000000
0.000000
0.000000
0.000000
0.000000
0.000000
0.000000
0.000000
0.000000
0.000000
0.000000
0.000000
0.000000
0.000000
0.000000
0.000000
0.000000
0.000000
0.000000
0.000000
0.000000
0.000000
0.000000
0.000000
0.000000
0.000000
0.000000
0.000000
0.000000
0.000000
0.000000
0.000000
0.000000
0.000000
0.000000
0.000000
0.000000
0.000000
0.000000
0.000000
0.000000
0.000000
0.000000
0.000000
4401.154785
210.279236
70.619438
64.700638
0.823350
95356864.000000
113.203339
94.815559
68.776497
524.010742
2973.730469
366.405701
76158.242188
28429.798828
172.423477
900.398743
168.347076
1787.612061
166.724625
1675.776001
1004.581604
1089.442627
2536.354248
83049576.000000
1.000000
1.000000
1.000000
0.000000
0.000000
0.000000
0.000000
136.641220
129.999893
1853.697754
96.804573
5235.707031
42.300014
69.666290
63.799500
47322.417969
49284.695312
126.329910
152.725891
301.329712
2373.846191
23500.085938
1095.311890
148.057617
433.874359
2117.636475
487.873657
1497.111328
28240.294922
1151.429932
2972.069824
1.000000
1.000000
1.000000
0.000000
0.000000
0.000000
0.000000
130.349731
35737.621094
39.727482
4534.981445
88.937859
290.793274
240.033539
5320.086426
1010.912109
644.382935
240.327759
1881.171265
908.205811
1561.471313
958.985352
33.257988
5672.188477
0.963961
457.133545
149.344223
6866.560547
366.099243
9610.166016
2141.151367
1.000000
1.000000
1.000000
0.000000
0.000000
0.000000
0.000000
4556.877441
164219952.000000
1580.059937
135656.203125
10448.526367
135.187973
227129.031250
175.623398
48.469700
123.478355
84.889801
3279.800781
134.185577
367.449524
222.473282
275.095154
0.558802
435.367615
128.407822
372.499237
1.829157
264.016357
3320.517822
41519.253906
1.000000
1.000000
1.000000
0.000000
0.000000
0.000000
0.000000
1028.746582
3410.800049
2796.116211
907.330261
69.745438
249.976746
1509.645020
140.187500
81647.468750
1771.063354
887.758789
12657.969727
35.303238
465.032379
651.129028
696.500671
10193.408203
2078.891113
171.624664
415.467102
196.223389
4303.723145
998466.625000
324624.781250
1.000000
1.000000
1.000000
0.000000
0.000000
0.000000
0.000000
118.322113
2240.410400
69.674065
296.706940
7866.753418
2.399297
489.017212
40.390373
311.383179
6514.505371
869.302246
98.176208
182.875046
42874.488281
12942.654297
269.550262
365.211029
7000.460449
13420.462891
9315.292969
12991.101562
557.725464
5252.367676
2126.307373
1.000000
1.000000
1.000000
0.000000
0.000000
0.000000
0.000000
623.426453
6834.936523
60.936195
107050.992188
1218.668091
337.021729
260.671234
439.686371
2507.979004
1695.611328
31802.392578
5007.707031
5386.520020
8406.701172
3477.753418
815.652954
17937.019531
6927.429688
37641568.000000
1239.975098
12991.737305
1129.401855
928.075623
4005.526367
1.000000
1.000000
1.000000
0.000000
0.000000
0.000000
0.000000
993.428833
2537.909180
1055.391968
937.494202
2521.985352
116.652054
27921.138672
287566.156250
1583.039307
1611.143188
97.806717
126.176262
319.625946
24645172.000000
1351.510010
15051.936523
1059.203125
1786.420044
1779.916260
4261.530273
17893.671875
2291.441162
1933.385498
2322.732178
1.000000
1.000000
1.000000
0.000000
0.000000
0.000000
0.000000
123.988823
10989698.000000
2051.507568
80.815430
753.840637
192.546051
20260.884766
484.758728
2113.123291
366.143951
6044.650879
389.945740
8532.645508
1278.028687
153.776932
2.436646
174154.062500
200.396606
263.419342
68543.257812
1489.254639
26142.648438
92.903648
191028.375000
1.000000
1.000000
1.000000
0.000000
0.000000
0.000000
0.000000
43348.953125
293.551666
128.409851
8021.468750
16063.671875
668.303833
1159.546509
12930.051758
190196.296875
586.351807
162.879974
940.635681
1673.940430
200.183334
92.016670
133.688385
266763.218750
155.909409
350.663422
289706.187500
495.566376
1085.028687
95400.992188
95085.890625
1.000000
1.000000
1.000000
0.000000
0.000000
0.000000
0.000000
609.309998
131.706238
1759.753052
37.927563
1789.082520
155.577118
90.884384
159.223724
244.902512
163.450104
858.042725
2962.687500
2021.834961
668.533813
304234.031250
60897.406250
109189544.000000
855.747253
43347.988281
5691.703613
125.244583
9136.511719
3759.824219
3982.019043
1.000000
1.000000
1.000000
0.000000
0.000000
0.000000
0.000000
290.992249
1010911488.000000
272.403778
313831.718750
43311.800781
41954936.000000
8036.503418
9932.405273
328.285339
412.455078
1308.466187
11015329.000000
862.388184
7859819520.000000
28.415257
57765.031250
117242.046875
1863.512817
629.886292
51.361420
7545.488770
6939.784668
161842336.000000
7707.979004
1.000000
1.000000
1.000000
0.000000
0.000000
0.000000
0.000000
819.180237
297.617737
100.331520
89.264091
104.365738
10577.970703
167.635254
163.286987
139.104370
2390.545898
6692.498535
1621.679688
345.788452
59.006508
2805.128174
378.827271
340.106964
105.248474
426.865662
1686.347656
669.805176
70.477798
39987.765625
3991.738281
1.000000
1.000000
1.000000
0.000000
0.000000
0.000000
0.000000
82.384682
1941.647095
183.210175
32.615273
237.080719
332.912292
2332.186279
7074.049805
854.898560
1092.987061
20029.585938
72.670189
401.403778
251.714325
245.707794
9488.015625
49153.625000
263.805054
90296.828125
275.208252
6454.370605
1076.847412
5125.788086
998081.687500
1.000000
1.000000
1.000000
0.000000
0.000000
0.000000
0.000000
116.635933
81898.593750
122.491425
6.338913
141.225266
594.692261
103.487099
2226.875000
41956152.000000
81.507515
885.914551
1017.672119
339448.062500
24146.220703
483.044220
709.557861
1163.476440
222.007294
1296.348389
50.383942
1559.801025
82941672.000000
956.313171
15229.253906
1.000000
1.000000
1.000000
0.000000
0.000000
0.000000
0.000000
1401.995117
44920.699219
319.575378
283.853302
477.864990
909.267639
141.151413
1801.766357
215.433014
2586.722656
17710.044922
448.151123
2946.455322
707.331055
316.567200
48621.328125
95.103294
12590.297852
3794.440674
1772.675903
126.217812
1777.285645
1129.451904
15809.716797
1.000000
1.000000
1.000000
0.000000
0.000000
0.000000
0.000000
240.051819
1067.658447
197.507751
513.126648
23249.576172
72.385323
1826.323364
2047.181519
4755.553711
124.860443
612.770264
4968.304688
3887.443848
181.324677
276.621002
130.332809
361.844421
385.358948
159659.765625
189.875381
5939.145508
69.845436
100.477516
4415.111816
0.000000
0.000000
0.000000
0.000000
58.361881
39281.593750
2573.605957
151.639603
2676.916016
4871.184570
2316.983154
10128.703125
2525.194580
21142.220703
6729.272461
7730.244141
193.870514
98441824.000000
1950.234253
495978.718750
6310.373535
25976.511719
418.409637
552.952820
96046.179688
27242.650391
145.415039
1062.449707
0.000000
0.000000
0.000000
0.000000
1974.970703
754.089172
132.283997
375.721985
296.570374
5026.667480
119.931396
61.610119
160.540222
7906.470215
1055.351929
3710.557861
98599.773438
231.966187
129.370773
158.372070
286.613525
528.591614
4829300.500000
19885750.000000
1640.057983
2165.110596
608.570129
15961.983398
0.000000
0.000000
0.000000
0.000000
51.874344
1297.968872
474.406433
3207.370117
3088.793457
261.328186
13265.626953
467.417847
123.651382
288258.031250
46.792007
1295.521729
524.518738
43177.625000
899.550964
1070.815674
1930363.250000
14036.058594
196.710022
51.068047
2958.405029
694.222656
1278.417725
4774220.000000
0.000000
0.000000
0.000000
0.000000
1512.873291
1346.622437
159.116302
4118.845703
43065.179688
604.675598
405.978546
351.558746
683.600525
301.603668
1742.180542
269.298462
573.729858
165.153229
118.028839
119.106651
5530499.500000
210.103363
1231.228516
348.619446
4797.736328
2200.837158
1835.509155
2571.495117
0.000000
0.000000
0.000000
0.000000
125.010567
729.878784
53.983711
1666460.000000
23588.009766
279.026367
61.549133
71.020203
1763.307251
6721.483887
203547328.000000
135.830551
2088.321045
813.260376
274.588287
113.760643
735.264526
201.669189
186.406601
326.483765
1228.498901
307293.531250
343.823608
1176.687744
0.000000
0.000000
0.000000
0.000000
463.612610
1507.913818
263.981781
1454.539307
120.964310
2300.491943
467.257416
39930.312500
94.652237
30677.169922
1210.115845
224.641525
3375.431885
61.083515
3205.777588
102359.640625
1630.532227
151.950592
3962.624756
250.511520
38518.195312
118.778801
745.418152
2748.588135
0.000000
0.000000
0.000000
0.000000
66.880882
3.840292
9624.407227
367294.187500
351.264954
208.252151
57535692.000000
21697.810547
794.333252
887.823730
6319.884766
1935943.625000
138.974228
98.568817
1905.093628
987.601074
1158.837158
1434.006104
4917.786133
1235.781982
203547792.000000
40052.703125
4401.836426
9517.439453
0.000000
0.000000
0.000000
0.000000
44.664207
420902.468750
285.534119
5.752623
139929.484375
83.198181
15248.973633
1194.163940
325.077972
335.676544
795.557251
2212.069092
17536.017578
28250.326172
1569.887207
187.392365
255.129868
307.730774
1241.175049
2.495694
15372175.000000
117.592613
416.422089
1096.370483
0.000000
0.000000
0.000000
0.000000
618.501892
45.613079
3190.152832
903.676819
2151.278076
293.061401
709960.875000
349.813019
446.228638
9597.166016
673.346680
127.006790
41.669872
47.583534
441.098541
3.874796
1015.889954
850.564880
3603.664551
300.480682
3787.569580
12455.859375
5500.640625
4545.237305
0.000000
0.000000
0.000000
0.000000
1066.865356
164.058929
10160.054688
24003.644531
2.479658
79958.921875
81155.101562
140149.546875
2071.694336
91.411522
106.608620
326.366577
1349.453613
0.624404
880.827698
617.040649
67.256340
58.296455
950.412476
1073.400269
2232.958008
992.432800
156.119965
1799.613281
0.000000
0.000000
0.000000
0.000000
16075.357422
69402.578125
859.597778
102.361038
205149.765625
798.627808
162.163193
5018.189453
1244.249756
86.762878
24622.812500
22169.001953
255.943253
10534.107422
367.970215
286.329773
1437.734863
2015.455200
626.146362
27196.595703
234.728577
6550.627930
86.680000
8849.916016
0.000000
0.000000
0.000000
0.000000
16158.128906
112181.328125
699.920288
1521.274170
123.980743
94768.734375
304.016418
3328.246826
3159.260254
469.720673
451.500061
219.154068
1065.812378
4890.000488
12373.444336
82307.070312
81594.234375
25816.574219
577.941528
962.790527
163329.281250
107688.375000
1085.144165
2122.958740
0.000000
0.000000
0.000000
0.000000
466.717957
74.290642
66.688446
82.891060
107776.671875
3959.754639
1707.389771
336.576477
703.442993
663460.062500
2241.773682
1525.757690
1064.635132
23744.482422
49.925625
151.004684
101.701843
107.341217
1358.014526
228.238586
224.377502
2354.404541
370.245911
2052.665527
0.000000
0.000000
0.000000
0.000000
12854.850586
60.150639
786193.125000
729.149719
258.998596
306.026031
362.881744
1898.111084
7.099693
22493.220703
29818181648384.000000
495.665497
620.233154
813.484192
172.198395
812.090027
300.742584
139.115234
295.421631
63.928055
713.991089
32273.302734
7107.605957
6862.491211
0.000000
0.000000
0.000000
0.000000
2005.391724
11138.500000
1779.467896
153.185623
1589.313477
4642.577637
332.333618
12982.133789
19754.941406
343.509094
2985.893799
49007.941406
874.256531
249.407867
6126.152832
611.707336
1222.103638
541.755310
81.621429
3513.910645
90958.132812
376.881104
1713.379517
20955.796875
0.000000
0.000000
0.000000
0.000000
80.135361
67.484406
3365.998779
205.767593
19578.250000
2000.087402
801.607117
479.094421
550.303894
122.764328
46.573666
69.545029
107.928833
1251777920.000000
3622.820557
153.936554
237.909927
203.458084
127.955750
39097.316406
275.665131
5787.465332
22678.513672
5686.732910
0.000000
0.000000
0.000000
0.000000
109266000.000000
4917.511230
1115.326294
91.616814
164.465729
1107.919312
1.049095
95356440.000000
1634.856934
16807.121094
1746.573975
144.105591
24.094107
82.801613
24338.187500
246.854385
3994.056152
830.260742
1145.827515
150.737106
301.276886
2317.012695
11944.703125
5083.760254
0.000000
0.000000
0.000000
0.000000
128181.062500
16.231127
215609.859375
536.595764
122.314583
10.098859
151.738434
386.362396
546.819031
13220.862305
46276.210938
185422.375000
1104.391479
29612.679688
1146.805420
2769.643066
6082527.000000
241.637238
578.193848
47.046474
14900.021484
372.164062
2860.166992
23664962.000000
0.000000
0.000000
0.000000
0.000000
190375.000000
102.696228
551.517700
225.766281
22319.335938
3954.954590
9132.275391
117335.429688
1648.160034
545.950378
71.894424
685.356262
36312.187500
160.035965
42.414135
169.462631
202056.750000
4897.658203
1319.712402
105.231354
1744.404907
449.435242
709.720764
3154.151855
0.000000
0.000000
0.000000
0.000000
67.298569
2.014182
19159504.000000
964.394531
129.581802
501.447266
370.466888
2865.729980
364.772430
15207.308594
343.951355
294.987579
2974.747070
283.382416
399.824158
113043.070312
1573.297241
3447.382812
2615.945068
3076.475830
902.470398
757.232910
39002.835938
11095.398438
0.000000
0.000000
0.000000
0.000000
57.446590
397.104401
485.053406
8088.167969
706.338196
865.855469
2774.324463
169.023193
15409.018555
110.094292
1763.123291
280.643799
113.237099
77766.070312
1174.635864
2776.852539
651.227051
305.743469
3431.977783
1633.045044
531.224121
174257.343750
449.855713
79955.398438
0.000000
0.000000
0.000000
0.000000
33.380989
120.456413
114.549835
810.252502
101.130898
206.040909
75.872147
45.235683
15372272.000000
124.376610
80961.046875
448975.000000
1671.823120
154.228043
284.953583
98099.492188
2749.695801
944355.062500
362.729980
127.146111
21626.863281
67.546837
133.439453
4928.969238
0.000000
0.000000
0.000000
0.000000
83570.062500
170.970886
2606.131592
2177.465576
1036.052368
173769.031250
74.508087
644.830994
581.533691
59.630806
207.342224
480.242004
1.150154
3997.366211
3393.542480
587638.875000
257.236816
309.567383
216.448502
792.465027
695.247131
111.420792
204.837280
947.782288
0.000000
0.000000
0.000000
0.000000
108.250671
104.650856
171.810577
319320.937500
2213.606934
1.467186
218.630219
3245.320801
583.459290
6085.479004
27423.621094
21588.757812
38.483707
428.102112
8697.578125
169.123810
28.942566
128166.570312
17503.074219
4532.292480
7180.332031
196819.187500
143.601593
8119.056152
0.000000
0.000000
0.000000
0.000000
334.890076
2884.284180
400.600708
90.858681
10511.016602
2768.949707
3530.150391
8100.903320
68835.500000
166.985443
215246224.000000
4244.337891
872.131531
226.686661
99.022102
488973.312500
36.243042
112331.828125
2133.539795
115.023895
2609.695801
2110.437012
87.503784