<?xml version='1.0' encoding='UTF-8'?>
<VTKFile xmlns='VTK' byte_order='LittleEndian' version='0.1' type='UnstructuredGrid'>
<UnstructuredGrid>
<Piece NumberOfCells='2512' NumberOfPoints='2512'>
<Points>
<DataArray NumberOfComponents='3' type='Float32' Name='Position' format='ascii'>
-0.075000 -0.075000 0.000000
-0.075000 -0.050000 0.000000
-0.075000 -0.025000 0.000000
-0.075000 0.000000 0.000000
-0.075000 0.025000 0.000000
-0.075000 0.050000 0.000000
-0.075000 0.075000 0.000000
-0.075000 0.100000 0.000000
-0.075000 0.125000 0.000000
-0.075000 0.150000 0.000000
-0.075000 0.175000 0.000000
-0.075000 0.200000 0.000000
-0.075000 0.225000 0.000000
-0.075000 0.250000 0.000000
-0.075000 0.275000 0.000000
-0.075000 0.300000 0.000000
-0.075000 0.325000 0.000000
-0.075000 0.350000 0.000000
-0.075000 0.375000 0.000000
-0.075000 0.400000 0.000000
-0.075000 0.425000 0.000000
-0.075000 0.450000 0.000000
-0.075000 0.475000 0.000000
-0.075000 0.500000 0.000000
-0.075000 0.525000 0.000000
-0.075000 0.550000 0.000000
-0.075000 0.575000 0.000000
-0.075000 0.600000 0.000000
-0.050000 -0.075000 0.000000
-0.050000 -0.050000 0.000000
-0.050000 -0.025000 0.000000
-0.050000 0.000000 0.000000
-0.050000 0.025000 0.000000
-0.050000 0.050000 0.000000
-0.050000 0.075000 0.000000
-0.050000 0.100000 0.000000
-0.050000 0.125000 0.000000
-0.050000 0.150000 0.000000
-0.050000 0.175000 0.000000
-0.050000 0.200000 0.000000
-0.050000 0.225000 0.000000
-0.050000 0.250000 0.000000
-0.050000 0.275000 0.000000
-0.050000 0.300000 0.000000
-0.050000 0.325000 0.000000
-0.050000 0.350000 0.000000
-0.050000 0.375000 0.000000
-0.050000 0.400000 0.000000
-0.050000 0.425000 0.000000
-0.050000 0.450000 0.000000
-0.050000 0.475000 0.000000
-0.050000 0.500000 0.000000
-0.050000 0.525000 0.000000
-0.050000 0.550000 0.000000
-0.050000 0.575000 0.000000
-0.050000 0.600000 0.000000
-0.025000 -0.075000 0.000000
-0.025000 -0.050000 0.000000
-0.025000 -0.025000 0.000000
-0.025000 0.000000 0.000000
-0.025000 0.025000 0.000000
-0.025000 0.050000 0.000000
-0.025000 0.075000 0.000000
-0.025000 0.100000 0.000000
-0.025000 0.125000 0.000000
-0.025000 0.150000 0.000000
-0.025000 0.175000 0.000000
-0.025000 0.200000 0.000000
-0.025000 0.225000 0.000000
-0.025000 0.250000 0.000000
-0.025000 0.275000 0.000000
-0.025000 0.300000 0.000000
-0.025000 0.325000 0.000000
-0.025000 0.350000 0.000000
-0.025000 0.375000 0.000000
-0.025000 0.400000 0.000000
-0.025000 0.425000 0.000000
-0.025000 0.450000 0.000000
-0.025000 0.475000 0.000000
-0.025000 0.500000 0.000000
-0.025000 0.525000 0.000000
-0.025000 0.550000 0.000000
-0.025000 0.575000 0.000000
-0.025000 0.600000 0.000000
0.000000 -0.075000 0.000000
0.000000 -0.050000 0.000000
0.000000 -0.025000 0.000000
0.000000 0.000000 0.000000
0.000000 0.025000 0.000000
0.000000 0.050000 0.000000
0.000000 0.075000 0.000000
0.000000 0.100000 0.000000
0.000000 0.125000 0.000000
0.000000 0.150000 0.000000
0.000000 0.175000 0.000000
0.000000 0.200000 0.000000
0.000000 0.225000 0.000000
0.000000 0.250000 0.000000
0.000000 0.275000 0.000000
0.000000 0.300000 0.000000
0.000000 0.325000 0.000000
0.000000 0.350000 0.000000
0.000000 0.375000 0.000000
0.000000 0.400000 0.000000
0.000000 0.425000 0.000000
0.000000 0.450000 0.000000
0.000000 0.475000 0.000000
0.000000 0.500000 0.000000
0.000000 0.525000 0.000000
0.000000 0.550000 0.000000
0.000000 0.575000 0.000000
0.000000 0.600000 0.000000
0.025000 -0.075000 0.000000
0.025000 -0.050000 0.000000
0.025000 -0.025000 0.000000
0.025000 0.000000 0.000000
0.025000 0.024837 0.000000
0.024957 0.049943 0.000000
0.024999 0.074769 0.000000
0.025121 0.099880 0.000000
0.024857 0.124763 0.000000
0.025135 0.149781 0.000000
0.024974 0.174772 0.000000
0.024991 0.199757 0.000000
0.025002 0.224864 0.000000
0.025021 0.249840 0.000000
0.024975 0.275044 0.000000
0.024999 0.300069 0.000000
0.024929 0.325319 0.000000
0.025127 0.350388 0.000000
0.024783 0.375786 0.000000
0.025133 0.400804 0.000000
0.024825 0.426349 0.000000
0.025084 0.451363 0.000000
0.024757 0.476965 0.000000
0.025136 0.501885 0.000000
0.024800 0.527575 0.000000
0.024689 0.552158 0.000000
0.026516 0.577270 0.000000
0.020020 0.600000 0.000000
0.325000 0.625000 0.000000
0.325000 0.650000 0.000000
0.325000 0.675000 0.000000
0.050000 -0.075000 0.000000
0.050000 -0.050000 0.000000
0.050000 -0.025000 0.000000
0.050000 0.000000 0.000000
0.050072 0.024973 0.000000
0.050021 0.049955 0.000000
0.050064 0.074986 0.000000
0.049937 0.100032 0.000000
0.050078 0.125070 0.000000
0.049988 0.150109 0.000000
0.049909 0.175172 0.000000
0.049985 0.200215 0.000000
0.049837 0.225231 0.000000
0.049840 0.250335 0.000000
0.049748 0.275378 0.000000
0.049782 0.300370 0.000000
0.049618 0.325576 0.000000
0.049648 0.350471 0.000000
0.049493 0.375759 0.000000
0.049610 0.400631 0.000000
0.049323 0.425977 0.000000
0.049582 0.450852 0.000000
0.049296 0.476217 0.000000
0.049580 0.501127 0.000000
0.049491 0.526404 0.000000
0.050414 0.550643 0.000000
0.050982 0.575597 0.000000
0.050893 0.599819 0.000000
0.350000 0.625000 0.000000
0.350000 0.650000 0.000000
0.350000 0.675000 0.000000
0.075000 -0.075000 0.000000
0.075000 -0.050000 0.000000
0.075000 -0.025000 0.000000
0.075000 0.000000 0.000000
0.075042 0.024937 0.000000
0.074997 0.049977 0.000000
0.074964 0.074892 0.000000
0.074978 0.099961 0.000000
0.074956 0.124972 0.000000
0.074946 0.149904 0.000000
0.074984 0.174967 0.000000
0.074937 0.199906 0.000000
0.074898 0.224892 0.000000
0.074995 0.249777 0.000000
0.074865 0.274707 0.000000
0.074967 0.299604 0.000000
0.074814 0.324318 0.000000
0.075030 0.349229 0.000000
0.074661 0.373897 0.000000
0.075055 0.398662 0.000000
0.074496 0.423278 0.000000
0.075051 0.448093 0.000000
0.074381 0.472613 0.000000
0.075042 0.497303 0.000000
0.074880 0.522042 0.000000
0.076168 0.546582 0.000000
0.076842 0.570410 0.000000
0.070168 0.597535 0.000000
0.375000 0.625000 0.000000
0.375000 0.650000 0.000000
0.375000 0.675000 0.000000
0.100000 -0.075000 0.000000
0.100000 -0.050000 0.000000
0.100000 -0.025000 0.000000
0.100000 0.000000 0.000000
0.100109 0.024957 0.000000
0.100051 0.049879 0.000000
0.099979 0.074920 0.000000
0.100015 0.099890 0.000000
0.099912 0.124813 0.000000
0.100070 0.149929 0.000000
0.099861 0.174899 0.000000
0.099974 0.199915 0.000000
0.099925 0.225068 0.000000
0.099900 0.250151 0.000000
0.099895 0.275267 0.000000
0.099996 0.300363 0.000000
0.099804 0.325664 0.000000
0.100057 0.350631 0.000000
0.099659 0.376030 0.000000
0.100156 0.400976 0.000000
0.099477 0.426417 0.000000
0.100178 0.451143 0.000000
0.099323 0.476712 0.000000
0.100073 0.501397 0.000000
0.099631 0.527055 0.000000
0.101385 0.551886 0.000000
0.100537 0.578480 0.000000
0.097303 0.600000 0.000000
0.400000 0.625000 0.000000
0.400000 0.650000 0.000000
0.400000 0.675000 0.000000
0.125000 -0.075000 0.000000
0.125000 -0.050000 0.000000
0.125000 -0.025000 0.000000
0.125000 0.000000 0.000000
0.125141 0.024918 0.000000
0.125074 0.049935 0.000000
0.125014 0.074916 0.000000
0.124972 0.099879 0.000000
0.125013 0.124986 0.000000
0.124969 0.149875 0.000000
0.124844 0.174874 0.000000
0.124969 0.199965 0.000000
0.124707 0.224837 0.000000
0.124873 0.249778 0.000000
0.124682 0.274869 0.000000
0.124802 0.299713 0.000000
0.124582 0.324722 0.000000
0.124783 0.349666 0.000000
0.124420 0.374685 0.000000
0.124856 0.399570 0.000000
0.124215 0.424673 0.000000
0.124906 0.449497 0.000000
0.124270 0.474631 0.000000
0.124999 0.499166 0.000000
0.124536 0.524329 0.000000
0.126639 0.548971 0.000000
0.124809 0.573213 0.000000
0.123260 0.599572 0.000000
0.425000 0.625000 0.000000
0.425000 0.650000 0.000000
0.425000 0.675000 0.000000
0.150000 -0.075000 0.000000
0.150000 -0.050000 0.000000
0.150000 -0.025000 0.000000
0.150000 0.000000 0.000000
0.150193 0.024973 0.000000
0.150027 0.049941 0.000000
0.149962 0.075001 0.000000
0.150000 0.100031 0.000000
0.149925 0.125012 0.000000
0.149966 0.150000 0.000000
0.149958 0.175155 0.000000
0.149930 0.199893 0.000000
0.149887 0.225064 0.000000
0.150027 0.250041 0.000000
0.149815 0.274946 0.000000
0.150054 0.299969 0.000000
0.149786 0.325027 0.000000
0.150072 0.349850 0.000000
0.149624 0.374976 0.000000
0.150099 0.399726 0.000000
0.149485 0.424808 0.000000
0.150251 0.449594 0.000000
0.149340 0.474541 0.000000
0.150431 0.499561 0.000000
0.149487 0.524478 0.000000
0.151530 0.549778 0.000000
0.149914 0.575663 0.000000
0.148715 0.599328 0.000000
0.450000 0.625000 0.000000
0.450000 0.650000 0.000000
0.450000 0.675000 0.000000
0.175000 -0.075000 0.000000
0.175000 -0.050000 0.000000
0.175000 -0.025000 0.000000
0.175000 0.000000 0.000000
0.175219 0.024917 0.000000
0.175089 0.049829 0.000000
0.174951 0.074868 0.000000
0.175019 0.099743 0.000000
0.174934 0.124787 0.000000
0.175084 0.149736 0.000000
0.174825 0.174640 0.000000
0.174989 0.199678 0.000000
0.174872 0.224742 0.000000
0.174790 0.249506 0.000000
0.174776 0.274772 0.000000
0.174881 0.299656 0.000000
0.174579 0.324707 0.000000
0.174963 0.349726 0.000000
0.174457 0.374724 0.000000
0.175138 0.399701 0.000000
0.174262 0.424814 0.000000
0.175227 0.449569 0.000000
0.174204 0.474933 0.000000
0.175340 0.499554 0.000000
0.174003 0.524744 0.000000
0.176495 0.549798 0.000000
0.174097 0.574555 0.000000
0.173890 0.599902 0.000000
0.475000 0.625000 0.000000
0.475000 0.650000 0.000000
0.475000 0.675000 0.000000
0.200000 -0.075000 0.000000
0.200000 -0.050000 0.000000
0.200000 -0.025000 0.000000
0.200000 0.000000 0.000000
0.200303 0.024989 0.000000
0.200093 0.049934 0.000000
0.199962 0.074983 0.000000
0.200051 0.099964 0.000000
0.199969 0.124985 0.000000
0.200004 0.149915 0.000000
0.199925 0.175035 0.000000
0.200059 0.199977 0.000000
0.199758 0.224894 0.000000
0.200086 0.250001 0.000000
0.199794 0.274949 0.000000
0.199952 0.299752 0.000000
0.199796 0.324948 0.000000
0.200038 0.349711 0.000000
0.199595 0.374882 0.000000
0.200132 0.399710 0.000000
0.199381 0.424787 0.000000
0.200384 0.449855 0.000000
0.199204 0.474648 0.000000
0.200626 0.499742 0.000000
0.199235 0.524661 0.000000
0.201281 0.549501 0.000000
[...]
<PointData>
<DataArray NumberOfComponents='1' type='Int32' Name='ParticleType' format='ascii'>
3
3
3
3
3
3
3
3
3
3
3
3
3
3
3
3
3
3
3
3
3
3
3
3
3
3
3
3
3
3
3
3
3
3
3
3
3
3
3
3
3
3
3
3
3
3
3
3
3
3
3
3
3
3
3
3
3
3
2
2
2
2
2
2
2
2
2
2
2
2
2
2
2
2
2
2
2
2
2
2
2
2
2
2
3
3
2
2
2
2
2
2
2
2
2
2
2
2
2
2
2
2
2
2
2
2
2
2
2
2
2
2
3
3
2
2
0
0
0
0
0
0
0
0
0
0
0
0
0
0
0
0
0
0
0
0
0
0
0
0
1
1
1
3
3
2
2
0
0
0
0
0
0
0
0
0
0
0
0
0
0
0
0
0
0
0
0
0
0
0
0
1
1
1
3
3
2
2
0
0
0
0
0
0
0
0
0
0
0
0
0
0
0
0
0
0
0
0
0
0
0
0
1
1
1
3
3
2
2
0
0
0
0
0
0
0
0
0
0
0
0
0
0
0
0
0
0
0
0
0
0
0
0
1
1
1
3
3
2
2
0
0
0
0
0
0
0
0
0
0
0
0
0
0
0
0
0
0
0
0
0
0
0
0
1
1
1
3
3
2
2
0
0
0
0
0
0
0
0
0
0
0
0
0
0
0
0
0
0
0
0
0
0
0
0
1
1
1
3
3
2
2
0
0
0
0
0
0
0
0
0
0
0
0
0
0
0
0
0
0
0
0
0
0
0
0
1
1
1
3
3
2
2
0
0
0
0
0
0
0
0
0
0
0
0
0
0
0
0
0
0
0
0
0
0
0
0
1
1
1
3
3
2
2
0
0
0
0
0
0
0
0
0
0
0
0
0
0
0
0
0
0
0
0
0
0
0
0
1
1
1
3
3
2
2
0
0
0
0
0
0
0
0
0
0
0
0
0
0
0
0
0
0
0
0
0
0
0
0
1
1
1
3
3
2
2
0
0
0
0
0
0
0
0
0
0
0
0
0
0
0
0
0
0
0
0
0
0
0
0
1
1
1
3
3
2
2
0
0
0
0
0
0
0
0
0
0
0
0
0
0
0
0
0
0
0
0
0
0
0
0
1
1
1
3
3
2
2
0
0
0
0
0
0
0
0
0
0
0
0
0
0
0
0
0
0
0
0
0
0
0
0
1
1
1
3
3
2
2
0
0
0
0
0
0
0
0
0
0
0
0
0
0
0
0
0
0
0
0
0
0
0
0
1
1
1
3
3
2
2
0
0
0
0
0
0
0
0
0
0
0
0
0
0
0
0
0
0
0
0
0
0
0
0
1
1
1
3
3
2
2
0
0
0
0
0
0
0
0
0
0
0
0
0
0
0
0
0
0
0
0
0
0
0
0
1
1
1
3
3
2
2
0
0
0
0
0
0
0
0
0
0
0
0
0
0
0
0
0
0
0
0
0
0
0
0
3
3
2
2
0
0
0
0
0
0
0
0
0
0
0
0
0
0
0
0
0
0
0
0
0
0
0
0
3
3
2
2
0
0
0
0
0
0
0
0
0
0
0
0
0
0
0
0
0
0
0
0
0
0
0
0
3
3
2
2
0
0
0
0
0
0
0
0
0
0
0
0
0
0
0
0
0
0
0
0
0
0
0
0
3
3
2
2
0
0
0
0
0
0
0
0
0
0
0
0
0
0
0
0
0
0
0
0
0
0
0
0
3
3
2
2
0
0
0
0
0
0
0
0
0
0
0
0
0
0
0
0
0
0
0
0
0
0
0
0
3
3
2
2
0
0
0
0
0
0
0
0
0
0
0
0
0
0
0
0
0
0
0
0
0
0
0
0
3
3
2
2
0
0
0
0
0
0
0
0
0
0
0
0
0
0
0
0
0
0
0
0
0
0
0
0
3
3
2
2
0
0
0
0
0
0
0
0
0
0
0
0
0
0
0
0
0
0
0
0
0
0
0
0
3
3
2
2
0
0
0
0
0
0
0
0
0
0
0
0
0
0
0
0
0
0
0
0
0
0
0
0
3
3
2
2
0
0
0
0
0
0
0
0
0
0
0
0
0
0
0
0
0
0
0
0
0
0
0
0
3
3
2
2
0
0
0
0
0
0
0
0
0
0
0
0
0
0
0
0
0
0
0
0
0
0
0
0
3
3
2
2
0
0
0
0
0
0
0
0
0
0
0
0
0
0
0
0
0
0
0
0
0
0
0
0
3
3
2
2
0
0
0
0
0
0
0
0
0
0
0
0
0
0
0
0
0
0
0
0
0
0
0
0
3
3
2
2
0
0
0
0
0
0
0
0
0
0
0
0
0
0
0
0
0
0
0
0
0
0
0
0
3
3
2
2
0
0
0
0
0
0
0
0
0
0
0
0
0
0
0
0
0
0
0
0
0
0
0
0
3
3
2
2
0
0
0
0
0
0
0
0
0
0
0
0
0
0
0
0
0
0
0
0
0
0
0
0
3
3
2
2
0
0
0
0
0
0
0
0
0
0
0
0
0
0
0
0
0
0
0
0
0
0
0
0
3
3
2
2
0
0
0
0
0
0
0
0
0
0
0
0
0
0
0
0
0
0
0
0
0
0
0
0
3
3
2
2
0
0
0
0
0
0
0
0
0
0
0
0
0
0
0
0
0
0
0
0
0
0
0
0
3
3
2
2
0
0
0
0
0
0
0
0
0
0
0
0
0
0
0
0
0
0
0
0
0
0
0
0
3
3
2
2
0
0
0
0
0
0
0
0
0
0
0
0
0
0
0
0
0
0
0
0
0
0
0
0
3
3
2
2
0
0
0
0
0
0
0
0
0
0
0
0
0
0
0
0
0
0
0
0
0
0
0
0
3
3
2
2
0
0
0
0
0
0
0
0
0
0
0
0
0
0
0
0
0
0
0
0
0
0
0
0
3
3
2
2
0
0
0
0
0
0
0
0
0
0
0
0
0
0
0
0
0
0
0
0
0
0
0
0
3
3
2
2
0
0
0
0
0
0
0
0
0
0
0
0
0
0
0
0
0
0
0
0
0
0
0
0
3
3
2
2
0
0
0
0
0
0
0
0
0
0
0
0
0
0
0
0
0
0
0
0
0
0
0
0
3
3
2
2
0
0
0
0
0
0
0
0
0
0
0
0
0
0
0
0
0
0
0
0
0
0
0
0
3
3
2
2
0
0
0
0
0
0
0
0
0
0
0
0
0
0
0
0
0
0
0
0
0
0
0
0
3
3
2
2
0
0
0
0
0
0
0
0
0
0
0
0
0
0
0
0
0
0
0
0
0
0
0
0
3
3
2
2
0
0
0
0
0
0
0
0
0
0
0
0
0
0
0
0
0
0
0
0
0
0
0
0
3
3
2
2
0
0
0
0
0
0
0
0
0
0
0
0
0
0
0
0
0
0
0
0
0
0
0
0
3
3
2
2
0
0
0
0
0
0
0
0
0
0
0
0
0
0
0
0
0
0
0
0
0
0
0
0
3
3
2
2
0
0
0
0
0
0
0
0
0
0
0
0
0
0
0
0
0
0
0
0
0
0
0
0
3
3
2
2
0
0
0
0
0
0
0
0
0
0
0
0
0
0
0
0
0
0
0
0
0
0
0
0
3
3
2
2
0
0
0
0
0
0
0
0
0
0
0
0
0
0
0
0
0
0
0
0
0
0
0
0
3
3
2
2
0
0
0
0
0
0
0
0
0
0
0
0
0
0
0
0
0
0
0
0
0
0
0
0
3
3
2
2
0
0
0
0
0
0
0
0
0
0
0
0
0
0
0
0
0
0
0
0
0
0
0
0
3
3
2
2
0
0
0
0
0
0
0
0
0
0
0
0
0
0
0
0
0
0
0
0
0
0
0
0
3
3
2
2
0
0
0
0
0
0
0
0
0
0
0
0
0
0
0
0
0
0
0
0
0
0
0
0
3
3
2
2
0
0
0
0
0
0
0
0
0
0
0
0
0
0
0
0
0
0
0
0
0
0
0
0
3
3
2
2
0
0
0
0
0
0
0
0
0
0
0
0
0
0
0
0
0
0
0
0
0
0
0
0
3
3
2
2
0
0
0
0
0
0
0
0
0
0
0
0
0
0
0
0
0
0
0
0
0
0
0
0
3
3
2
2
0
0
0
0
0
0
0
0
0
0
0
0
0
0
0
0
0
0
0
0
0
0
0
0
3
3
2
2
0
0
0
0
0
0
0
0
0
0
0
0
0
0
0
0
0
0
0
0
0
0
0
0
3
3
2
2
0
0
0
0
0
0
0
0
0
0
0
0
0
0
0
0
0
0
0
0
0
0
0
0
3
3
2
2
0
0
0
0
0
0
0
0
0
0
0
0
0
0
0
0
0
0
0
0
0
0
0
0
3
3
2
2
0
0
0
0
0
0
0
0
0
0
0
0
0
0
0
0
0
0
0
0
0
0
0
0
3
3
2
2
0
0
0
0
0
0
0
0
0
0
0
0
0
0
0
0
0
0
0
0
0
0
0
0
3
3
2
2
0
0
0
0
0
0
0
0
0
0
0
0
0
0
0
0
0
0
0
0
0
0
0
0
3
3
2
2
0
0
0
0
0
0
0
0
0
0
0
0
0
0
0
0
0
0
0
0
0
0
0
0
3
3
2
2
0
0
0
0
0
0
0
0
0
0
0
0
0
0
0
0
0
0
0
0
0
0
0
0
3
3
2
2
0
0
0
0
0
0
0
0
0
0
0
0
0
0
0
0
0
0
0
0
0
0
0
0
3
3
2
2
0
0
0
0
0
0
0
0
0
0
0
0
0
0
0
0
0
0
0
0
0
0
0
0
3
3
2
2
0
0
0
0
0
0
0
0
0
0
0
0
0
0
0
0
0
0
0
0
0
0
0
0
3
3
2
2
0
0
0
0
0
0
0
0
0
0
0
0
0
0
0
0
0
0
0
0
0
0
0
0
3
3
2
2
0
0
0
0
0
0
0
0
0
0
0
0
0
0
0
0
0
0
0
0
0
0
0
0
3
3
2
2
0
0
0
0
0
0
0
0
0
0
0
0
0
0
0
0
0
0
0
0
0
0
0
0
3
3
2
2
0
0
0
0
0
0
0
0
0
0
0
0
0
0
0
0
0
0
0
0
0
0
0
0
3
3
2
2
0
0
0
0
0
0
0
0
0
0
0
0
0
0
0
0
0
0
0
0
0
0
0
0
3
3
2
2
0
0
0
0
0
0
0
0
0
0
0
0
0
0
0
0
0
0
0
0
0
0
0
0
3
3
2
2
0
0
0
0
0
0
0
0
0
0
0
0
0
0
0
0
0
0
0
0
0
0
0
0
3
3
2
2
0
0
0
0
0
0
0
0
0
0
0
0
0
0
0
0
0
0
0
0
0
0
0
0
3
3
2
2
0
0
0
0
0
0
0
0
0
0
0
0
0
0
0
0
0
0
0
0
0
0
0
0
3
3
2
2
2
2
2
2
2
2
2
2
2
2
2
2
2
2
2
2
2
2
2
2
2
2
2
2
3
3
2
2
2
2
2
2
2
2
2
2
2
2
2
2
2
2
2
2
2
2
2
2
2
2
2
2
3
3
3
3
3
3
3
3
3
3
3
3
3
3
3
3
3
3
3
3
3
3
3
3
3
3
3
3
3
3
3
3
3
3
3
3
3
3
3
3
3
3
3
3
3
3
3
3
3
3
3
3
3
3
3
3
</DataArray>
<DataArray NumberOfComponents='1' type='Float32' Name='Velocity' format='ascii'>
0.000000
0.000000
0.000000
0.000000
0.000000
0.000000
0.000000
0.000000
0.000000
0.000000
0.000000
0.000000
0.000000
0.000000
0.000000
0.000000
0.000000
0.000000
0.000000
0.000000
0.000000
0.000000
0.000000
0.000000
0.000000
0.000000
0.000000
0.000000
0.000000
0.000000
0.000000
0.000000
0.000000
0.000000
0.000000
0.000000
0.000000
0.000000
0.000000
0.000000
0.000000
0.000000
0.000000
0.000000
0.000000
0.000000
0.000000
0.000000
0.000000
0.000000
0.000000
0.000000
0.000000
0.000000
0.000000
0.000000
0.000000
0.000000
0.000000
0.000000
0.000000
0.000000
0.000000
0.000000
0.000000
0.000000
0.000000
0.000000
0.000000
0.000000
0.000000
0.000000
0.000000
0.000000
0.000000
0.000000
0.000000
0.000000
0.000000
0.000000
0.000000
0.000000
0.000000
0.000000
0.000000
0.000000
0.000000
0.000000
0.000000
0.000000
0.000000
0.000000
0.000000
0.000000
0.000000
0.000000
0.000000
0.000000
0.000000
0.000000
0.000000
0.000000
0.000000
0.000000
0.000000
0.000000
0.000000
0.000000
0.000000
0.000000
0.000000
0.000000
0.000000
0.000000
0.000000
0.000000
0.006239
0.002702
0.006342
0.008009
0.001312
0.007757
0.009559
0.005335
0.001618
0.002826
0.003892
0.004751
0.007109
0.006543
0.011132
0.009579
0.012464
0.012823
0.017507
0.014490
0.018996
0.021942
0.032458
0.146261
1.000000
1.000000
1.000000
0.000000
0.000000
0.000000
0.000000
0.007327
0.004296
0.003129
0.004112
0.002837
0.006112
0.005525
0.008516
0.005357
0.007845
0.010227
0.011657
0.009395
0.015622
0.009321
0.015281
0.011411
0.014477
0.011719
0.014154
0.011478
0.017716
0.008886
0.037077
1.000000
1.000000
1.000000
0.000000
0.000000
0.000000
0.000000
0.005719
0.001365
0.001514
0.005984
0.004111
0.004945
0.003492
0.002983
0.007215
0.000606
0.008608
0.002001
0.009677
0.011169
0.011255
0.010549
0.029188
0.017931
0.033309
0.035476
0.045356
0.048074
0.079527
0.025359
1.000000
1.000000
1.000000
0.000000
0.000000
0.000000
0.000000
0.002267
0.001614
0.004170
0.005524
0.003193
0.001876
0.008052
0.007743
0.003656
0.008497
0.008551
0.008991
0.013872
0.019070
0.016866
0.021103
0.033299
0.021061
0.035129
0.040256
0.048094
0.048451
0.066361
0.044543
1.000000
1.000000
1.000000
0.000000
0.000000
0.000000
0.000000
0.004925
0.004816
0.004397
0.005133
0.002756
0.006383
0.011604
0.001070
0.004816
0.010502
0.001681
0.007137
0.004982
0.007121
0.008083
0.001460
0.012299
0.005091
0.005123
0.012714
0.012888
0.027816
0.034075
0.006066
1.000000
1.000000
1.000000
0.000000
0.000000
0.000000
0.000000
0.000801
0.001345
0.003245
0.002289
0.007459
0.007376
0.008784
0.008407
0.011412
0.012635
0.004476
0.002845
0.007225
0.001895
0.005798
0.002429
0.008511
0.011303
0.011906
0.010655
0.000733
0.024140
0.002982
0.014290
1.000000
1.000000
1.000000
0.000000
0.000000
0.000000
0.000000
0.003158
0.002154
0.003265
0.002391
0.007726
0.001588
0.001495
0.015000
0.007499
0.004995
0.013438
0.005833
0.009049
0.001283
0.010830
0.004431
0.009393
0.003384
0.008837
0.009270
0.008551
0.028625
0.014762
0.011863
1.000000
1.000000
1.000000
0.000000
0.000000
0.000000
0.000000
0.004977
0.002052
0.002945
0.002542
0.003130
0.003245
0.009180
0.011326
0.005246
0.009619
0.015317
0.010752
0.005588
0.002399
0.008341
0.005762
0.013064
0.009813
0.008557
0.009240
0.006210
0.024174
0.006814
0.012538
1.000000
1.000000
1.000000
0.000000
0.000000
0.000000
0.000000
0.003551
0.003545
0.002950
0.001680
0.001650
0.006249
0.005169
0.005333
0.011016
0.014657
0.017401
0.002724
0.008924
0.010839
0.006736
0.007164
0.008494
0.005925
0.014998
0.020809
0.009070
0.026456
0.011972
0.017806
1.000000
1.000000
1.000000
0.000000
0.000000
0.000000
0.000000
0.005498
0.000879
0.003488
0.001206
0.003660
0.001873
0.001486
0.005176
0.008341
0.014275
0.006896
0.012892
0.021747
0.008215
0.009104
0.002922
0.013378
0.006610
0.007585
0.009146
0.016538
0.027515
0.016169
0.008152
1.000000
1.000000
1.000000
0.000000
0.000000
0.000000
0.000000
0.004478
0.002999
0.002471
0.002332
0.001956
0.003121
0.007651
0.006341
0.010732
0.004800
0.007083
0.023598
0.011488
0.002580
0.018913
0.010319
0.012970
0.016494
0.016011
0.015886
0.017002
0.012329
0.026155
0.023855
1.000000
1.000000
1.000000
0.000000
0.000000
0.000000
0.000000
0.006593
0.005039
0.002322
0.001251
0.007770
0.005786
0.005843
0.003954
0.004909
0.007481
0.021174
0.011105
0.003668
0.023395
0.009944
0.005532
0.013890
0.004219
0.018596
0.012758
0.031441
0.023566
0.020242
0.009862
1.000000
1.000000
1.000000
0.000000
0.000000
0.000000
0.000000
0.006267
0.002711
0.004596
0.003495
0.001544
0.003924
0.002132
0.006717
0.001842
0.012001
0.004199
0.005186
0.026184
0.021228
0.019731
0.003738
0.012251
0.005429
0.010368
0.037033
0.028680
0.025988
0.025395
0.011535
1.000000
1.000000
1.000000
0.000000
0.000000
0.000000
0.000000
0.005578
0.005179
0.003976
0.002011
0.006770
0.004780
0.007280
0.003757
0.006720
0.005045
0.002486
0.022022
0.020150
0.019569
0.021178
0.029027
0.031149
0.013783
0.029178
0.031566
0.031873
0.010582
0.031852
0.007416
1.000000
1.000000
1.000000
0.000000
0.000000
0.000000
0.000000
0.009522
0.004120
0.004232
0.005996
0.003251
0.005872
0.001249
0.006695
0.006311
0.005087
0.015900
0.010559
0.005976
0.019175
0.023369
0.022629
0.014683
0.021095
0.021697
0.031314
0.033645
0.019394
0.035198
0.011272
1.000000
1.000000
1.000000
0.000000
0.000000
0.000000
0.000000
0.006087
0.003618
0.002467
0.002571
0.004180
0.003077
0.005843
0.004248
0.000969
0.005700
0.005511
0.003352
0.017663
0.021727
0.031122
0.008272
0.004986
0.016322
0.019480
0.023678
0.018721
0.025239
0.030307
0.037967
1.000000
1.000000
1.000000
0.000000
0.000000
0.000000
0.000000
0.012218
0.005197
0.005516
0.003621
0.002397
0.006816
0.003348
0.006593
0.009138
0.004662
0.008336
0.022568
0.011508
0.029669
0.017456
0.029171
0.057176
0.022646
0.021050
0.038717
0.052967
0.039014
0.026711
0.016836
0.000000
0.000000
0.000000
0.000000
0.007617
0.004728
0.004819
0.003630
0.004113
0.000386
0.005231
0.005709
0.002400
0.009333
0.009822
0.007711
0.015344
0.004490
0.027663
0.023213
0.014711
0.031013
0.041274
0.038410
0.024288
0.039796
0.033657
0.036585
0.000000
0.000000
0.000000
0.000000
0.009126
0.004337
0.006482
0.003200
0.005551
0.005063
0.006031
0.006923
0.008552
0.008788
0.010415
0.018985
0.013876
0.018061
0.038403
0.014716
0.008442
0.052923
0.008508
0.015173
0.047077
0.052650
0.018965
0.015736
0.000000
0.000000
0.000000
0.000000
0.010459
0.004806
0.004019
0.004731
0.003519
0.003086
0.004494
0.003732
0.004130
0.002839
0.011520
0.005841
0.021057
0.014402
0.025873
0.024497
0.043688
0.049337
0.015876
0.043811
0.037906
0.025118
0.023097
0.012470
0.000000
0.000000
0.000000
0.000000
0.009119
0.004961
0.004991
0.003833
0.006476
0.006146
0.007817
0.006995
0.008260
0.008937
0.006027
0.020377
0.004003
0.029619
0.007963
0.040477
0.004144
0.032568
0.056739
0.049526
0.043147
0.024605
0.050151
0.039441
0.000000
0.000000
0.000000
0.000000
0.012114
0.004172
0.001668
0.002741
0.003814
0.002801
0.003740
0.004223
0.002788
0.004551
0.002166
0.003354
0.004415
0.002012
0.001383
0.006786
0.017900
0.022688
0.022686
0.035159
0.026478
0.067202
0.020734
0.046044
0.000000
0.000000
0.000000
0.000000
0.010850
0.004069
0.003357
0.003652
0.002416
0.005227
0.003953
0.003795
0.007182
0.003760
0.007855
0.005125
0.009061
0.011321
0.017274
0.023533
0.035229
0.050158
0.061950
0.012478
0.002406
0.031544
0.000261
0.043252
0.000000
0.000000
0.000000
0.000000
0.010419
0.003853
0.003583
0.003952
0.002811
0.003751
0.004309
0.004109
0.003400
0.004491
0.005896
0.011628
0.010229
0.010875
0.014012
0.014883
0.027884
0.028612
0.058711
0.066724
0.115889
0.025853
0.043868
0.036700
0.000000
0.000000
0.000000
0.000000
0.011900
0.004757
0.002911
0.004217
0.004344
0.006441
0.003447
0.005203
0.004779
0.008121
0.006598
0.009234
0.005036
0.009057
0.008605
0.014795
0.009325
0.034474
0.027705
0.075798
0.050281
0.071029
0.085538
0.031215
0.000000
0.000000
0.000000
0.000000
0.010515
0.003064
0.002895
0.003833
0.001494
0.003071
0.001424
0.004812
0.002689
0.006180
0.002630
0.006823
0.004272
0.012416
0.002600
0.016494
0.003939
0.029565
0.011442
0.030765
0.047959
0.091354
0.029377
0.134485
0.000000
0.000000
0.000000
0.000000
0.011652
0.004021
0.003281
0.003898
0.003594
0.004360
0.002536
0.008155
0.001449
0.007654
0.002464
0.010365
0.002593
0.008220
0.004297
0.015620
0.008642
0.006711
0.028251
0.026912
0.045135
0.078600
0.072190
0.091063
0.000000
0.000000
0.000000
0.000000
0.011930
0.003670
0.000904
0.003353
0.002341
0.006806
0.002645
0.006710
0.001653
0.008760
0.001796
0.006343
0.004748
0.014355
0.004141
0.012730
0.018274
0.018379
0.026157
0.035636
0.094108
0.114099
0.260226
0.253327
0.000000
0.000000
0.000000
0.000000
0.011841
0.003779
0.001489
0.005101
0.001855
0.005186
0.000572
0.007119
0.000750
0.005641
0.001831
0.010234
0.000720
0.007979
0.008776
0.007931
0.010152
0.020071
0.028104
0.037326
0.047033
0.061826
0.073555
0.436984
0.000000
0.000000
0.000000
0.000000
0.012406
0.003003
0.000616
0.004481
0.001477
0.005826
0.000850
0.005137
0.002366
0.007440
0.000898
0.006322
0.008374
0.006767
0.007794
0.015341
0.013730
0.026977
0.027321
0.044261
0.040089
0.011919
0.021439
0.191377
0.000000
0.000000
0.000000
0.000000
0.010272
0.003159
0.000064
0.005038
0.002023
0.005144
0.001718
0.005794
0.001119
0.007145
0.002585
0.008073
0.001786
0.013440
0.005573
0.018380
0.010220
0.028006
0.021232
0.026939
0.020093
0.064184
0.023177
0.231809
0.000000
0.000000
0.000000
0.000000
0.013453
0.002496
0.001040
0.005462
0.000931
0.005046
0.001335
0.007607
0.000563
0.007655
0.001398
0.008609
0.005714
0.008120
0.004909
0.015954
0.010604
0.013309
0.014344
0.038620
0.018727
0.019272
0.058211
0.155964
0.000000
0.000000
0.000000
0.000000
0.010280
0.003352
0.001701
0.004334
0.001260
0.006507
0.000436
0.004777
0.001960
0.004893
0.004542
0.005808
0.003073
0.012906
0.003077
0.012199
0.007090
0.028079
0.019367
0.019928
0.020814
0.011514
0.007773
0.159622
0.000000
0.000000
0.000000
0.000000
0.013360
0.001887
0.001644
0.005173
0.001724
0.004323
0.001183
0.006440
0.001800
0.007138
0.001028
0.011423
0.003360
0.011893
0.005781
0.016510
0.010462
0.019330
0.013426
0.012886
0.005034
0.023340
0.042448
0.140075
0.000000
0.000000
0.000000
0.000000
0.012068
0.003275
0.002251
0.004509
0.001285
0.006590
0.001716
0.006313
0.000427
0.007767
0.001756
0.008335
0.004785
0.007755
0.000255
0.014152
0.005293
0.006718
0.002554
0.021784
0.005663
0.004087
0.013876
0.117190
0.000000
0.000000
0.000000
0.000000
0.011744
0.001921
0.002396
0.005915
0.001860
0.005135
0.002199
0.004743
0.002833
0.005852
0.003966
0.005832
0.003236
0.012143
0.001932
0.007982
0.001415
0.017733
0.003515
0.009286
0.009767
0.016254
0.021217
0.110995
0.000000
0.000000
0.000000
0.000000
0.012550
0.002683
0.002636
0.003786
0.003180
0.003970
0.002016
0.006135
0.000481
0.005869
0.001500
0.009842
0.001206
0.009730
0.004375
0.012164
0.001672
0.009275
0.008836
0.010679
0.007999
0.008105
0.022076
0.091090
0.000000
0.000000
0.000000
0.000000
0.012486
0.003058
0.003750
0.004021
0.001771
0.006229
0.002530
0.005946
0.002670
0.006990
0.000905
0.007190
0.005245
0.006242
0.001210
0.008328
0.004048
0.007289
0.005419
0.008429
0.015336
0.007482
0.017280
0.079473
0.000000
0.000000
0.000000
0.000000
0.012653
0.001920
0.003473
0.004947
0.003460
0.004727
0.002902
0.003670
0.002359
0.005043
0.003380
0.005557
0.001682
0.009673
0.003084
0.009106
0.003434
0.009631
0.006379
0.006854
0.012355
0.006986
0.020981
0.064413
0.000000
0.000000
0.000000
0.000000
0.011537
0.002401
0.003223
0.003716
0.003061
0.003402
0.003220
0.006145
0.002427
0.005437
0.002465
0.007480
0.002027
0.006752
0.002481
0.007629
0.002830
0.007447
0.005585
0.007661
0.011602
0.007158
0.024113
0.049064
0.000000
0.000000
0.000000
0.000000
0.012596
0.001939
0.004437
0.003408
0.003355
0.005546
0.002805
0.003796
0.002660
0.005255
0.001875
0.005337
0.003137
0.006894
0.004066
0.008318
0.004329
0.008431
0.005609
0.007839
0.009175
0.007505
0.021093
0.032626
0.000000
0.000000
0.000000
0.000000
0.011607
0.002526
0.003914
0.004041
0.003328
0.003531
0.003697
0.004570
0.003340
0.004481
0.003516
0.005771
0.002844
0.005941
0.002329
0.006052
0.003188
0.007204
0.004225
0.008623
0.008219
0.010944
0.015148
0.021838
0.000000
0.000000
0.000000
0.000000
0.012043
0.001484
0.004384
0.003314
0.004012
0.003795
0.003658
0.003808
0.002875
0.004202
0.002643
0.004323
0.002943
0.006456
0.003578
0.007693
0.003950
0.007894
0.005434
0.008310
0.005074
0.009712
0.008028
0.015130
0.000000
0.000000
0.000000
0.000000
0.010855
0.002221
0.004170
0.003052
0.003667
0.004074
0.003415
0.003893
0.003737
0.003912
0.003550
0.005176
0.003087
0.004784
0.003167
0.005177
0.003271
0.006338
0.003218
0.007420
0.005615
0.010118
0.006275
0.012781
0.000000
0.000000
0.000000
0.000000
0.011492
0.001497
0.004710
0.003480
0.003986
0.003054
0.004177
0.003151
0.003209
0.003592
0.002987
0.003403
0.003832
0.004898
0.003760
0.006189
0.004285
0.007040
0.004643
0.008247
0.003699
0.008359
0.003400
0.009887
0.000000
0.000000
0.000000
0.000000
0.010621
0.001808
0.004274
0.002494
0.004144
0.003538
0.003594
0.003469
0.003959
0.003172
0.004320
0.003858
0.003462
0.004338
0.003428
0.004662
0.002726
0.005781
0.003033
0.006084
0.003245
0.008511
0.003012
0.009477
0.000000
0.000000
0.000000
0.000000
0.010289
0.001780
0.004715
0.003277
0.003865
0.002921
0.004414
0.002493
0.003959
0.002282
0.003287
0.003121
0.003653
0.003688
0.003736
0.005010
0.004860
0.005896
0.004180
0.007613
0.003631
0.007382
0.002109
0.007969
0.000000
0.000000
0.000000
0.000000
0.010108
0.001327
0.004426
0.002217
0.004503
0.002785
0.003774
0.002588
0.003820
0.003291
0.004169
0.002800
0.004055
0.003918
0.004262
0.004479
0.003039
0.005201
0.003325
0.005364
0.002141
0.007355
0.001363
0.007922
0.000000
0.000000
0.000000
0.000000
0.009399
0.002095
0.004523
0.002738
0.003882
0.002782
0.004506
0.002877
0.003948
0.001668
0.003835
0.002281
0.004051
0.002830
0.003700
0.004078
0.004319
0.005438
0.003502
0.006769
0.003623
0.006863
0.001955
0.007009
0.000000
0.000000
0.000000
0.000000
0.009886
0.001236
0.004664
0.002513
0.004407
0.002569
0.004105
0.000974
0.004423
0.002198
0.003924
0.002420
0.003907
0.003330
0.004411
0.004367
0.004131
0.004935
0.004209
0.005785
0.002313
0.006701
0.001288
0.006964
0.000000
0.000000
0.000000
0.000000
0.007747
0.002011
0.004420
0.001961
0.004301
0.001790
0.004301
0.002678
0.003766
0.001358
0.003986
0.001724
0.004061
0.003226
0.004355
0.003911
0.004557
0.005189
0.003728
0.005637
0.003467
0.006458
0.001863
0.006573
0.000000
0.000000
0.000000
0.000000
0.010050
0.001208
0.004542
0.002375
0.004183
0.003082
0.003961
0.001717
0.004185
0.001265
0.004035
0.002143
0.004695
0.002938
0.004438
0.004444
0.004298
0.004881
0.004303
0.005964
0.002989
0.006032
0.001904
0.006261
0.000000
0.000000
0.000000
0.000000
0.006886
0.002659
0.004345
0.002524
0.004104
0.001664
0.004710
0.000649
0.004339
0.000720
0.004269
0.001659
0.003926
0.002840
0.004730
0.003638
0.004792
0.005309
0.004275
0.005717
0.003465
0.006602
0.001912