<?xml version='1.0' encoding='UTF-8'?>
<VTKFile xmlns='VTK' byte_order='LittleEndian' version='0.1' type='UnstructuredGrid'>
<UnstructuredGrid>
<Piece NumberOfCells='2512' NumberOfPoints='2512'>
<Points>
<DataArray NumberOfComponents='3' type='Float32' Name='Position' format='ascii'>
-0.075000 -0.075000 0.000000
-0.075000 -0.050000 0.000000
-0.075000 -0.025000 0.000000
-0.075000 0.000000 0.000000
-0.075000 0.025000 0.000000
-0.075000 0.050000 0.000000
-0.075000 0.075000 0.000000
-0.075000 0.100000 0.000000
-0.075000 0.125000 0.000000
-0.075000 0.150000 0.000000
-0.075000 0.175000 0.000000
-0.075000 0.200000 0.000000
-0.075000 0.225000 0.000000
-0.075000 0.250000 0.000000
-0.075000 0.275000 0.000000
-0.075000 0.300000 0.000000
-0.075000 0.325000 0.000000
-0.075000 0.350000 0.000000
-0.075000 0.375000 0.000000
-0.075000 0.400000 0.000000
-0.075000 0.425000 0.000000
-0.075000 0.450000 0.000000
-0.075000 0.475000 0.000000
-0.075000 0.500000 0.000000
-0.075000 0.525000 0.000000
-0.075000 0.550000 0.000000
-0.075000 0.575000 0.000000
-0.075000 0.600000 0.000000
-0.050000 -0.075000 0.000000
-0.050000 -0.050000 0.000000
-0.050000 -0.025000 0.000000
-0.050000 0.000000 0.000000
-0.050000 0.025000 0.000000
-0.050000 0.050000 0.000000
-0.050000 0.075000 0.000000
-0.050000 0.100000 0.000000
-0.050000 0.125000 0.000000
-0.050000 0.150000 0.000000
-0.050000 0.175000 0.000000
-0.050000 0.200000 0.000000
-0.050000 0.225000 0.000000
-0.050000 0.250000 0.000000
-0.050000 0.275000 0.000000
-0.050000 0.300000 0.000000
-0.050000 0.325000 0.000000
-0.050000 0.350000 0.000000
-0.050000 0.375000 0.000000
-0.050000 0.400000 0.000000
-0.050000 0.425000 0.000000
-0.050000 0.450000 0.000000
-0.050000 0.475000 0.000000
-0.050000 0.500000 0.000000
-0.050000 0.525000 0.000000
-0.050000 0.550000 0.000000
-0.050000 0.575000 0.000000
-0.050000 0.600000 0.000000
-0.025000 -0.075000 0.000000
-0.025000 -0.050000 0.000000
-0.025000 -0.025000 0.000000
-0.025000 0.000000 0.000000
-0.025000 0.025000 0.000000
-0.025000 0.050000 0.000000
-0.025000 0.075000 0.000000
-0.025000 0.100000 0.000000
-0.025000 0.125000 0.000000
-0.025000 0.150000 0.000000
-0.025000 0.175000 0.000000
-0.025000 0.200000 0.000000
-0.025000 0.225000 0.000000
-0.025000 0.250000 0.000000
-0.025000 0.275000 0.000000
-0.025000 0.300000 0.000000
-0.025000 0.325000 0.000000
-0.025000 0.350000 0.000000
-0.025000 0.375000 0.000000
-0.025000 0.400000 0.000000
-0.025000 0.425000 0.000000
-0.025000 0.450000 0.000000
-0.025000 0.475000 0.000000
-0.025000 0.500000 0.000000
-0.025000 0.525000 0.000000
-0.025000 0.550000 0.000000
-0.025000 0.575000 0.000000
-0.025000 0.600000 0.000000
0.000000 -0.075000 0.000000
0.000000 -0.050000 0.000000
0.000000 -0.025000 0.000000
0.000000 0.000000 0.000000
0.000000 0.025000 0.000000
0.000000 0.050000 0.000000
0.000000 0.075000 0.000000
0.000000 0.100000 0.000000
0.000000 0.125000 0.000000
0.000000 0.150000 0.000000
0.000000 0.175000 0.000000
0.000000 0.200000 0.000000
0.000000 0.225000 0.000000
0.000000 0.250000 0.000000
0.000000 0.275000 0.000000
0.000000 0.300000 0.000000
0.000000 0.325000 0.000000
0.000000 0.350000 0.000000
0.000000 0.375000 0.000000
0.000000 0.400000 0.000000
0.000000 0.425000 0.000000
0.000000 0.450000 0.000000
0.000000 0.475000 0.000000
0.000000 0.500000 0.000000
0.000000 0.525000 0.000000
0.000000 0.550000 0.000000
0.000000 0.575000 0.000000
0.000000 0.600000 0.000000
0.025000 -0.075000 0.000000
0.025000 -0.050000 0.000000
0.025000 -0.025000 0.000000
0.025000 0.000000 0.000000
-2238.803188 0.600000 0.000000
58.734780 -100.780104 0.000000
-19.800320 -33.728205 0.000000
14.173453 -32.972425 0.000000
0.159234 0.059030 0.000000
-51492706.593301 0.600000 0.000000
8.656523 -62.087048 0.000000
25.265739 -45.825208 0.000000
-37.553267 -6.890197 0.000000
9.314538 -267.616071 0.000000
458.789378 -1585.159053 0.000000
30.298363 -201.185790 0.000000
41961.359686 0.600000 0.000000
-15424.310342 0.600000 0.000000
-70.502357 0.600000 0.000000
-231.088317 -443.727097 0.000000
-66.538825 -65.434126 0.000000
577.958773 -806.003191 0.000000
59.125981 -68.292272 0.000000
-923.933093 0.600000 0.000000
237.576981 -507.228558 0.000000
-600.803092 0.600000 0.000000
-1408.384962 0.600000 0.000000
46175562.827576 0.600000 0.000000
1.555000 0.625000 0.000000
1.555000 0.650000 0.000000
1.555000 0.675000 0.000000
0.050000 -0.075000 0.000000
0.050000 -0.050000 0.000000
0.050000 -0.025000 0.000000
0.050000 0.000000 0.000000
-75.596836 0.600000 0.000000
-67.800134 -21.004205 0.000000
987.679528 0.600000 0.000000
50.636068 0.600000 0.000000
2886.024562 0.600000 0.000000
-18.522061 -13.635857 0.000000
-17.291295 -34.396914 0.000000
-18.334043 0.555824 0.000000
-12424.325818 -23139.151317 0.000000
12068.062781 0.600000 0.000000
5.376714 -69.708779 0.000000
59.827344 -57.208813 0.000000
-155.675392 -60.619057 0.000000
1456.152836 0.600000 0.000000
12642.110086 0.600000 0.000000
-606.294370 0.600000 0.000000
-73.611667 -36.675396 0.000000
-224.333076 0.600000 0.000000
1159.225828 0.600000 0.000000
-162.345955 -214.360538 0.000000
791.823606 0.600000 0.000000
15315.543821 -3194.138156 0.000000
151.884072 -623.970050 0.000000
1652.802412 0.600000 0.000000
1.580000 0.625000 0.000000
1.580000 0.650000 0.000000
1.580000 0.675000 0.000000
0.075000 -0.075000 0.000000
0.075000 -0.050000 0.000000
0.075000 -0.025000 0.000000
0.075000 0.000000 0.000000
-50.848666 -51.194444 0.000000
18866.458316 0.600000 0.000000
16.821108 0.600000 0.000000
-2433.063623 0.600000 0.000000
-40.244704 -28.472069 0.000000
142.568844 0.600000 0.000000
26.560179 -126.415037 0.000000
2903.334828 0.600000 0.000000
565.062748 0.600000 0.000000
29.255801 -345.560271 0.000000
94.646291 -93.401342 0.000000
-1036.909511 0.600000 0.000000
-484.066143 0.600000 0.000000
721.298365 -477.348129 0.000000
521.614536 0.600000 0.000000
18.780422 -1.507102 0.000000
2893.713061 -1150.843031 0.000000
0.261527 0.146782 0.000000
197.804457 -155.955233 0.000000
47.218259 -67.436450 0.000000
3803.727484 0.600000 0.000000
-69.297254 -190.653777 0.000000
-5327.860947 0.600000 0.000000
-1187.868180 0.600000 0.000000
1.605000 0.625000 0.000000
1.605000 0.650000 0.000000
1.605000 0.675000 0.000000
0.100000 -0.075000 0.000000
0.100000 -0.050000 0.000000
0.100000 -0.025000 0.000000
0.100000 0.000000 0.000000
-1634.834069 0.600000 0.000000
86708131.518831 0.600000 0.000000
-633.299068 -601.987092 0.000000
72038.292438 0.600000 0.000000
-5771.917591 0.600000 0.000000
-2.663906 0.600000 0.000000
-122887.678505 0.600000 0.000000
96.958363 -1.715621 0.000000
15.045439 -22.126362 0.000000
62.093025 -27.945840 0.000000
-23.064584 -40.595985 0.000000
-1796.835964 0.600000 0.000000
-116.066814 0.600000 0.000000
197.608854 -48.136128 0.000000
-127.725209 0.600000 0.000000
-115.352903 -97.604501 0.000000
0.039682 0.027009 0.000000
-22.059259 0.600000 0.000000
57.814292 -37.852562 0.000000
-177.499972 0.600000 0.000000
0.979885 0.245457 0.000000
81.558308 -120.874851 0.000000
1835.540864 0.600000 0.000000
-23079.992659 0.600000 0.000000
1.630000 0.625000 0.000000
1.630000 0.650000 0.000000
1.630000 0.675000 0.000000
0.125000 -0.075000 0.000000
0.125000 -0.050000 0.000000
0.125000 -0.025000 0.000000
0.125000 0.000000 0.000000
-518.912432 0.600000 0.000000
1629.253295 0.600000 0.000000
-1510.963363 0.600000 0.000000
-467.267050 0.600000 0.000000
6.211499 -37.671647 0.000000
113.635673 -80.126872 0.000000
-668.344749 0.600000 0.000000
-11.596529 -76.406173 0.000000
44408.447808 0.600000 0.000000
-284.337804 -937.065441 0.000000
-376.443488 0.600000 0.000000
-5362.571998 0.600000 0.000000
-17.314294 -1.960850 0.000000
-253.421097 0.600000 0.000000
-355.151806 0.600000 0.000000
-499.446327 0.600000 0.000000
5235.712248 0.600000 0.000000
1124.619506 0.600000 0.000000
-24.197244 -90.721380 0.000000
-194.869414 -121.022932 0.000000
-109.521322 -1.176285 0.000000
2208.127124 0.600000 0.000000
557144.598541 0.600000 0.000000
-175970.508682 0.600000 0.000000
1.655000 0.625000 0.000000
1.655000 0.650000 0.000000
1.655000 0.675000 0.000000
0.150000 -0.075000 0.000000
0.150000 -0.050000 0.000000
0.150000 -0.025000 0.000000
0.150000 0.000000 0.000000
-35.698482 0.600000 0.000000
-1213.875366 0.600000 0.000000
-1.107787 -38.601480 0.000000
-138.971899 -85.684316 0.000000
-4120.572788 0.600000 0.000000
1.387264 0.021279 0.000000
250.381312 0.600000 0.000000
7.067383 -20.942240 0.000000
-150.913104 0.600000 0.000000
-3548.259037 0.600000 0.000000
-439.014754 -197.693639 0.000000
21.355176 -50.046672 0.000000
-73.462022 -66.775875 0.000000
-23751.681088 0.600000 0.000000
-7127.378463 0.600000 0.000000
-138.333126 -56.131158 0.000000
-178.492552 0.600000 0.000000
9.071266 -3870.758503 0.000000
7391.274253 0.600000 0.000000
5104.859461 0.600000 0.000000
-7131.690439 0.600000 0.000000
119.201090 -287.138141 0.000000
2929.866779 0.600000 0.000000
1181.036842 0.600000 0.000000
1.680000 0.625000 0.000000
1.680000 0.650000 0.000000
1.680000 0.675000 0.000000
0.175000 -0.075000 0.000000
0.175000 -0.050000 0.000000
0.175000 -0.025000 0.000000
0.175000 0.000000 0.000000
-321.734866 0.600000 0.000000
-3591.984459 0.600000 0.000000
8.014023 -32.758167 0.000000
58446.093764 0.600000 0.000000
659.314713 0.600000 0.000000
-148.409575 -113.578093 0.000000
17.064937 -143.388814 0.000000
220.397072 0.600000 0.000000
-1419.583694 0.600000 0.000000
-836.432950 -427.091931 0.000000
16887.514568 0.600000 0.000000
-2598.157899 0.600000 0.000000
2892.557518 0.600000 0.000000
4638.843781 0.600000 0.000000
1710.865088 -823.316644 0.000000
-438.122958 0.600000 0.000000
-4076.770274 -9101.282708 0.000000
3770.378602 0.600000 0.000000
20627574.902682 0.600000 0.000000
682.739084 0.600000 0.000000
7219.396347 0.600000 0.000000
-570.963581 -263.414387 0.000000
-83.147316 -511.546415 0.000000
2045.997045 0.600000 0.000000
1.705000 0.625000 0.000000
1.705000 0.650000 0.000000
1.705000 0.675000 0.000000
0.200000 -0.075000 0.000000
0.200000 -0.050000 0.000000
0.200000 -0.025000 0.000000
[...]
<PointData>
<DataArray NumberOfComponents='1' type='Int32' Name='ParticleType' format='ascii'>
3
3
3
3
3
3
3
3
3
3
3
3
3
3
3
3
3
3
3
3
3
3
3
3
3
3
3
3
3
3
3
3
3
3
3
3
3
3
3
3
3
3
3
3
3
3
3
3
3
3
3
3
3
3
3
3
3
3
2
2
2
2
2
2
2
2
2
2
2
2
2
2
2
2
2
2
2
2
2
2
2
2
2
2
3
3
2
2
2
2
2
2
2
2
2
2
2
2
2
2
2
2
2
2
2
2
2
2
2
2
2
2
3
3
2
2
0
0
0
0
0
0
0
0
0
0
0
0
0
0
0
0
0
0
0
0
0
0
0
0
1
1
1
3
3
2
2
0
0
0
0
0
0
0
0
0
0
0
0
0
0
0
0
0
0
0
0
0
0
0
0
1
1
1
3
3
2
2
0
0
0
0
0
0
0
0
0
0
0
0
0
0
0
0
0
0
0
0
0
0
0
0
1
1
1
3
3
2
2
0
0
0
0
0
0
0
0
0
0
0
0
0
0
0
0
0
0
0
0
0
0
0
0
1
1
1
3
3
2
2
0
0
0
0
0
0
0
0
0
0
0
0
0
0
0
0
0
0
0
0
0
0
0
0
1
1
1
3
3
2
2
0
0
0
0
0
0
0
0
0
0
0
0
0
0
0
0
0
0
0
0
0
0
0
0
1
1
1
3
3
2
2
0
0
0
0
0
0
0
0
0
0
0
0
0
0
0
0
0
0
0
0
0
0
0
0
1
1
1
3
3
2
2
0
0
0
0
0
0
0
0
0
0
0
0
0
0
0
0
0
0
0
0
0
0
0
0
1
1
1
3
3
2
2
0
0
0
0
0
0
0
0
0
0
0
0
0
0
0
0
0
0
0
0
0
0
0
0
1
1
1
3
3
2
2
0
0
0
0
0
0
0
0
0
0
0
0
0
0
0
0
0
0
0
0
0
0
0
0
1
1
1
3
3
2
2
0
0
0
0
0
0
0
0
0
0
0
0
0
0
0
0
0
0
0
0
0
0
0
0
1
1
1
3
3
2
2
0
0
0
0
0
0
0
0
0
0
0
0
0
0
0
0
0
0
0
0
0
0
0
0
1
1
1
3
3
2
2
0
0
0
0
0
0
0
0
0
0
0
0
0
0
0
0
0
0
0
0
0
0
0
0
1
1
1
3
3
2
2
0
0
0
0
0
0
0
0
0
0
0
0
0
0
0
0
0
0
0
0
0
0
0
0
1
1
1
3
3
2
2
0
0
0
0
0
0
0
0
0
0
0
0
0
0
0
0
0
0
0
0
0
0
0
0
1
1
1
3
3
2
2
0
0
0
0
0
0
0
0
0
0
0
0
0
0
0
0
0
0
0
0
0
0
0
0
1
1
1
3
3
2
2
0
0
0
0
0
0
0
0
0
0
0
0
0
0
0
0
0
0
0
0
0
0
0
0
3
3
2
2
0
0
0
0
0
0
0
0
0
0
0
0
0
0
0
0
0
0
0
0
0
0
0
0
3
3
2
2
0
0
0
0
0
0
0
0
0
0
0
0
0
0
0
0
0
0
0
0
0
0
0
0
3
3
2
2
0
0
0
0
0
0
0
0
0
0
0
0
0
0
0
0
0
0
0
0
0
0
0
0
3
3
2
2
0
0
0
0
0
0
0
0
0
0
0
0
0
0
0
0
0
0
0
0
0
0
0
0
3
3
2
2
0
0
0
0
0
0
0
0
0
0
0
0
0
0
0
0
0
0
0
0
0
0
0
0
3
3
2
2
0
0
0
0
0
0
0
0
0
0
0
0
0
0
0
0
0
0
0
0
0
0
0
0
3
3
2
2
0
0
0
0
0
0
0
0
0
0
0
0
0
0
0
0
0
0
0
0
0
0
0
0
3
3
2
2
0
0
0
0
0
0
0
0
0
0
0
0
0
0
0
0
0
0
0
0
0
0
0
0
3
3
2
2
0
0
0
0
0
0
0
0
0
0
0
0
0
0
0
0
0
0
0
0
0
0
0
0
3
3
2
2
0
0
0
0
0
0
0
0
0
0
0
0
0
0
0
0
0
0
0
0
0
0
0
0
3
3
2
2
0
0
0
0
0
0
0
0
0
0
0
0
0
0
0
0
0
0
0
0
0
0
0
0
3
3
2
2
0
0
0
0
0
0
0
0
0
0
0
0
0
0
0
0
0
0
0
0
0
0
0
0
3
3
2
2
0
0
0
0
0
0
0
0
0
0
0
0
0
0
0
0
0
0
0
0
0
0
0
0
3
3
2
2
0
0
0
0
0
0
0
0
0
0
0
0
0
0
0
0
0
0
0
0
0
0
0
0
3
3
2
2
0
0
0
0
0
0
0
0
0
0
0
0
0
0
0
0
0
0
0
0
0
0
0
0
3
3
2
2
0
0
0
0
0
0
0
0
0
0
0
0
0
0
0
0
0
0
0
0
0
0
0
0
3
3
2
2
0
0
0
0
0
0
0
0
0
0
0
0
0
0
0
0
0
0
0
0
0
0
0
0
3
3
2
2
0
0
0
0
0
0
0
0
0
0
0
0
0
0
0
0
0
0
0
0
0
0
0
0
3
3
2
2
0
0
0
0
0
0
0
0
0
0
0
0
0
0
0
0
0
0
0
0
0
0
0
0
3
3
2
2
0
0
0
0
0
0
0
0
0
0
0
0
0
0
0
0
0
0
0
0
0
0
0
0
3
3
2
2
0
0
0
0
0
0
0
0
0
0
0
0
0
0
0
0
0
0
0
0
0
0
0
0
3
3
2
2
0
0
0
0
0
0
0
0
0
0
0
0
0
0
0
0
0
0
0
0
0
0
0
0
3
3
2
2
0
0
0
0
0
0
0
0
0
0
0
0
0
0
0
0
0
0
0
0
0
0
0
0
3
3
2
2
0
0
0
0
0
0
0
0
0
0
0
0
0
0
0
0
0
0
0
0
0
0
0
0
3
3
2
2
0
0
0
0
0
0
0
0
0
0
0
0
0
0
0
0
0
0
0
0
0
0
0
0
3
3
2
2
0
0
0
0
0
0
0
0
0
0
0
0
0
0
0
0
0
0
0
0
0
0
0
0
3
3
2
2
0
0
0
0
0
0
0
0
0
0
0
0
0
0
0
0
0
0
0
0
0
0
0
0
3
3
2
2
0
0
0
0
0
0
0
0
0
0
0
0
0
0
0
0
0
0
0
0
0
0
0
0
3
3
2
2
0
0
0
0
0
0
0
0
0
0
0
0
0
0
0
0
0
0
0
0
0
0
0
0
3
3
2
2
0
0
0
0
0
0
0
0
0
0
0
0
0
0
0
0
0
0
0
0
0
0
0
0
3
3
2
2
0
0
0
0
0
0
0
0
0
0
0
0
0
0
0
0
0
0
0
0
0
0
0
0
3
3
2
2
0
0
0
0
0
0
0
0
0
0
0
0
0
0
0
0
0
0
0
0
0
0
0
0
3
3
2
2
0
0
0
0
0
0
0
0
0
0
0
0
0
0
0
0
0
0
0
0
0
0
0
0
3
3
2
2
0
0
0
0
0
0
0
0
0
0
0
0
0
0
0
0
0
0
0
0
0
0
0
0
3
3
2
2
0
0
0
0
0
0
0
0
0
0
0
0
0
0
0
0
0
0
0
0
0
0
0
0
3
3
2
2
0
0
0
0
0
0
0
0
0
0
0
0
0
0
0
0
0
0
0
0
0
0
0
0
3
3
2
2
0
0
0
0
0
0
0
0
0
0
0
0
0
0
0
0
0
0
0
0
0
0
0
0
3
3
2
2
0
0
0
0
0
0
0
0
0
0
0
0
0
0
0
0
0
0
0
0
0
0
0
0
3
3
2
2
0
0
0
0
0
0
0
0
0
0
0
0
0
0
0
0
0
0
0
0
0
0
0
0
3
3
2
2
0
0
0
0
0
0
0
0
0
0
0
0
0
0
0
0
0
0
0
0
0
0
0
0
3
3
2
2
0
0
0
0
0
0
0
0
0
0
0
0
0
0
0
0
0
0
0
0
0
0
0
0
3
3
2
2
0
0
0
0
0
0
0
0
0
0
0
0
0
0
0
0
0
0
0
0
0
0
0
0
3
3
2
2
0
0
0
0
0
0
0
0
0
0
0
0
0
0
0
0
0
0
0
0
0
0
0
0
3
3
2
2
0
0
0
0
0
0
0
0
0
0
0
0
0
0
0
0
0
0
0
0
0
0
0
0
3
3
2
2
0
0
0
0
0
0
0
0
0
0
0
0
0
0
0
0
0
0
0
0
0
0
0
0
3
3
2
2
0
0
0
0
0
0
0
0
0
0
0
0
0
0
0
0
0
0
0
0
0
0
0
0
3
3
2
2
0
0
0
0
0
0
0
0
0
0
0
0
0
0
0
0
0
0
0
0
0
0
0
0
3
3
2
2
0
0
0
0
0
0
0
0
0
0
0
0
0
0
0
0
0
0
0
0
0
0
0
0
3
3
2
2
0
0
0
0
0
0
0
0
0
0
0
0
0
0
0
0
0
0
0
0
0
0
0
0
3
3
2
2
0
0
0
0
0
0
0
0
0
0
0
0
0
0
0
0
0
0
0
0
0
0
0
0
3
3
2
2
0
0
0
0
0
0
0
0
0
0
0
0
0
0
0
0
0
0
0
0
0
0
0
0
3
3
2
2
0
0
0
0
0
0
0
0
0
0
0
0
0
0
0
0
0
0
0
0
0
0
0
0
3
3
2
2
0
0
0
0
0
0
0
0
0
0
0
0
0
0
0
0
0
0
0
0
0
0
0
0
3
3
2
2
0
0
0
0
0
0
0
0
0
0
0
0
0
0
0
0
0
0
0
0
0
0
0
0
3
3
2
2
0
0
0
0
0
0
0
0
0
0
0
0
0
0
0
0
0
0
0
0
0
0
0
0
3
3
2
2
0
0
0
0
0
0
0
0
0
0
0
0
0
0
0
0
0
0
0
0
0
0
0
0
3
3
2
2
0
0
0
0
0
0
0
0
0
0
0
0
0
0
0
0
0
0
0
0
0
0
0
0
3
3
2
2
0
0
0
0
0
0
0
0
0
0
0
0
0
0
0
0
0
0
0
0
0
0
0
0
3
3
2
2
0
0
0
0
0
0
0
0
0
0
0
0
0
0
0
0
0
0
0
0
0
0
0
0
3
3
2
2
0
0
0
0
0
0
0
0
0
0
0
0
0
0
0
0
0
0
0
0
0
0
0
0
3
3
2
2
0
0
0
0
0
0
0
0
0
0
0
0
0
0
0
0
0
0
0
0
0
0
0
0
3
3
2
2
0
0
0
0
0
0
0
0
0
0
0
0
0
0
0
0
0
0
0
0
0
0
0
0
3
3
2
2
0
0
0
0
0
0
0
0
0
0
0
0
0
0
0
0
0
0
0
0
0
0
0
0
3
3
2
2
2
2
2
2
2
2
2
2
2
2
2
2
2
2
2
2
2
2
2
2
2
2
2
2
3
3
2
2
2
2
2
2
2
2
2
2
2
2
2
2
2
2
2
2
2
2
2
2
2
2
2
2
3
3
3
3
3
3
3
3
3
3
3
3
3
3
3
3
3
3
3
3
3
3
3
3
3
3
3
3
3
3
3
3
3
3
3
3
3
3
3
3
3
3
3
3
3
3
3
3
3
3
3
3
3
3
3
3
</DataArray>
<DataArray NumberOfComponents='1' type='Float32' Name='Velocity' format='ascii'>
0.000000
0.000000
0.000000
0.000000
0.000000
0.000000
0.000000
0.000000
0.000000
0.000000
0.000000
0.000000
0.000000
0.000000
0.000000
0.000000
0.000000
0.000000
0.000000
0.000000
0.000000
0.000000
0.000000
0.000000
0.000000
0.000000
0.000000
0.000000
0.000000
0.000000
0.000000
0.000000
0.000000
0.000000
0.000000
0.000000
0.000000
0.000000
0.000000
0.000000
0.000000
0.000000
0.000000
0.000000
0.000000
0.000000
0.000000
0.000000
0.000000
0.000000
0.000000
0.000000
0.000000
0.000000
0.000000
0.000000
0.000000
0.000000
0.000000
0.000000
0.000000
0.000000
0.000000
0.000000
0.000000
0.000000
0.000000
0.000000
0.000000
0.000000
0.000000
0.000000
0.000000
0.000000
0.000000
0.000000
0.000000
0.000000
0.000000
0.000000
0.000000
0.000000
0.000000
0.000000
0.000000
0.000000
0.000000
0.000000
0.000000
0.000000
0.000000
0.000000
0.000000
0.000000
0.000000
0.000000
0.000000
0.000000
0.000000
0.000000
0.000000
0.000000
0.000000
0.000000
0.000000
0.000000
0.000000
0.000000
0.000000
0.000000
0.000000
0.000000
0.000000
0.000000
0.000000
0.000000
4401.136230
212.741882
73.083458
67.322311
0.604305
95356864.000000
116.019058
97.314804
69.359467
526.851440
2976.460449
369.216400
76158.234375
28429.224609
148.605331
902.920776
170.357574
1789.922729
168.891403
1675.725830
1007.156494
1149.150269
2536.219727
83049576.000000
1.000000
1.000000
1.000000
0.000000
0.000000
0.000000
0.000000
136.545822
130.881210
1853.377441
101.695122
5235.608887
44.041988
72.218475
51.822666
47324.921875
49282.144531
129.163834
154.712860
302.377106
3767.474854
23500.083984
1095.205933
149.357330
433.239105
2117.551270
490.142914
1534.903076
28240.875000
1154.191650
2971.993652
1.000000
1.000000
1.000000
0.000000
0.000000
0.000000
0.000000
132.379486
35737.617188
38.112339
4700.385742
90.610191
290.309174
242.817322
5296.848633
1010.573914
647.215149
242.335968
1881.091675
907.519653
1563.042358
945.454773
33.598976
5673.239258
1.381388
458.900940
151.687027
6866.523438
368.772247
9610.135742
2171.281494
1.000000
1.000000
1.000000
0.000000
0.000000
0.000000
0.000000
4556.876465
164219952.000000
1582.019165
135656.203125
10448.508789
132.102829
227129.031250
175.702484
50.858601
124.706390
87.370911
3279.501465
321.190216
368.138916
330.664368
276.937408
0.442786
432.537262
130.023590
347.157806
1.037559
266.380768
3320.323486
41519.207031
1.000000
1.000000
1.000000
0.000000
0.000000
0.000000
0.000000
1027.640625
3409.375000
2795.905762
887.481812
72.554695
251.627365
1507.920410
142.997253
81647.437500
1773.783081
886.337402
12657.935547
35.790615
470.798401
662.731628
1093.409912
10192.354492
2078.330811
174.373276
416.976471
196.287354
4303.645508
998466.625000
324624.781250
1.000000
1.000000
1.000000
0.000000
0.000000
0.000000
0.000000
38.595547
2227.063232
72.514847
298.208313
7866.745117
1.668917
466.743408
43.095013
232.351654
6514.480957
870.473938
100.801140
184.795959
42874.472656
12942.628906
270.636536
357.157684
7003.302246
13420.373047
9315.270508
12991.092773
560.353394
5252.286133
2126.148682
1.000000
1.000000
1.000000
0.000000
0.000000
0.000000
0.000000
622.575073
6834.530762
63.703697
107050.984375
1221.991821
338.755920
263.493896
438.621033
2641.822266
1696.905273
31802.392578
5007.635254
5385.859375
8406.680664
3478.987305
805.152588
17939.613281
6927.371582
37641568.000000
1239.944092
12991.634766
1130.596924
930.880798
3816.184570
1.000000
1.000000
1.000000
0.000000
0.000000
0.000000
0.000000
997.088135
2530.595459
1055.559570
940.333313
2521.677246
118.170944
27921.132812
287566.156250
1585.818604
1610.735962
99.747345
129.011978
322.443237
24645172.000000
1351.301392
15051.324219
1124.988281
1789.246216
1779.820312
4261.502930
17893.660156
2291.404297
1940.487793
2322.602295
1.000000
1.000000
1.000000
0.000000
0.000000
0.000000
0.000000
52.752533
10989698.000000
2051.186523
82.869621
771.130615
195.072189
20260.878906
485.439758
2113.400879
368.806030
6044.634277
392.177490
8532.530273
1167.053223
155.278625
0.650310
174151.359375
203.127319
265.091370
68543.257812
1491.896729
26142.546875
95.591637
191028.375000
1.000000
1.000000
1.000000
0.000000
0.000000
0.000000
0.000000
43348.945312
296.150940
130.044159
8021.453613
16063.666016
668.327026
1159.222046
12930.022461
190196.281250
588.620972
164.873779
943.477600
1673.578857
202.940277
92.751770
118.509972
266763.218750
158.728378
352.335022
289706.187500
498.069672
1077.524414
95400.984375
95085.890625
1.000000
1.000000
1.000000
0.000000
0.000000
0.000000
0.000000
608.281311
134.516129
1756.895752
38.030125
1789.008911
155.406036
93.724640
161.972687
247.149719
164.052139
859.207458
2964.572998
2011.019897
671.085693
304234.031250
60897.402344
109189544.000000
856.364380
43348.000000
5689.977539
127.426979
9136.466797
3866.512207
3980.813477
1.000000
1.000000
1.000000
0.000000
0.000000
0.000000
0.000000
293.554199
1010911488.000000
272.612732
313831.718750
43311.792969
41954936.000000
8093.043945
9932.364258
330.486359
408.955078
1308.333984
11015329.000000
863.492737
7859819520.000000
31.110247
57765.031250
117242.046875
1863.482910
622.842896
52.769382
7545.465332
6939.769531
161842336.000000
7707.937988
1.000000
1.000000
1.000000
0.000000
0.000000
0.000000
0.000000
817.688354
299.253113
102.215942
90.308029
107.128471
10577.931641
167.603821
163.802643
140.375046
2429.728027
6692.487793
1623.868286
348.412415
59.283855
2803.649170
381.652740
340.078522
65.602562
429.649506
1685.693970
695.971619
73.296402
39987.757812
4008.723145
1.000000
1.000000
1.000000
0.000000
0.000000
0.000000
0.000000
84.698578
1914.601562
186.019409
32.715988
239.467712
335.304504
2331.957764
7076.880859
854.794189
1094.306152
20027.177734
75.380859
403.518738
252.485535
248.003265
9486.934570
49153.613281
266.637604
90296.828125
276.270691
6454.240234
1103.493774
5125.403320
998081.687500
1.000000
1.000000
1.000000
0.000000
0.000000
0.000000
0.000000
118.410034
81898.585938
124.780746
1.088047
143.572388
595.350403
107.024818
2075.790527
41956152.000000
84.264053
884.766479
1017.164490
339448.062500
24146.183594
484.127808
712.394714
1162.247437
222.568237
1295.951050
52.999905
1558.047729
82941672.000000
955.997131
15229.226562
1.000000
1.000000
1.000000
0.000000
0.000000
0.000000
0.000000
1401.941895
44920.691406
321.912323
286.691528
467.634888
909.571289
142.489090
1768.322876
215.588150
2586.093994
17708.189453
450.836517
2946.413574
694.836548
225.852585
48621.320312
96.729149
12590.280273
3797.122803
1774.499756
127.322334
1778.853760
1132.206543
15809.696289
1.000000
1.000000
1.000000
0.000000
0.000000
0.000000
0.000000
242.055023
1066.775757
199.775101
515.546387
23249.572266
36.738644
1826.031372
2048.866455
4755.416992
127.672646
612.912964
4968.318848
3716.968994
181.956848
277.013306
133.035889
361.913605
384.795807
159659.765625
192.508224
5987.998047
72.231102
103.201187
4414.915527
0.000000
0.000000
0.000000
0.000000
60.806114
39281.585938
2573.007080
154.480743
2679.711426
4977.447266
2318.196289
9501.797852
2524.201172
21143.783203
6729.161133
7730.220703
194.610703
98441824.000000
1942.917603
495978.718750
6310.342773
25976.507812
420.659851
553.261475
96046.179688
27242.648438
147.707855
1062.124023
0.000000
0.000000
0.000000
0.000000
1952.580078
669.207397
134.498093
378.391663
298.162781
5028.795410
122.688789
63.919765
169.098663
8015.235840
1055.192261
3710.516602
98599.765625
234.796265
130.657410
160.843811
288.111420
529.616760
4829300.500000
19885750.000000
1419.895752
2171.065918
609.287659
15961.963867
0.000000
0.000000
0.000000
0.000000
54.714542
1297.868530
471.942322
3294.005859
3090.659424
182.548141
13265.588867
469.472595
124.349060
288258.031250
49.339878
1297.117676
526.994202
43177.531250
902.260742
1069.747192
1930363.250000
14035.982422
197.712997
53.415104
2958.261230
696.795593
1277.680054
4774220.000000
0.000000
0.000000
0.000000
0.000000
1512.789185
1345.905640
161.648193
4118.730957
43065.175781
608.385925
408.327301
352.069336
686.329224
302.333832
1742.282471
270.350250
580.142212
167.973999
118.380127
101.248955
5530499.500000
210.957016
1230.967651
351.201874
4797.662109
2164.422852
1834.809937
2571.361084
0.000000
0.000000
0.000000
0.000000
127.800507
731.486572
56.732758
1666460.000000
23588.005859
280.147125
63.776756
72.890930
1928.013428
6807.914551
203547328.000000
138.227234
2088.161865
815.935547
276.995605
116.556053
736.123108
198.909866
187.471375
329.295715
1228.423828
307293.531250
346.653168
1176.303345
0.000000
0.000000
0.000000
0.000000
416.651581
1507.825806
265.639557
1457.145142
123.802139
2293.238281
467.037415
39930.304688
96.577194
30677.167969
1210.731567
225.808151
3374.846924
63.611526
3205.668457
102359.640625
1633.366089
153.068008
3960.235352
253.260544
38518.195312
120.944595
709.348877
2748.412842
0.000000
0.000000
0.000000
0.000000
69.194336
1.458156
9624.399414
367294.187500
353.183716
209.651169
57535692.000000
21695.207031
797.011597
890.651489
6319.049316
1935943.625000
141.769958
100.757553
1904.998901
986.390381
1160.500000
1434.218262
4917.704102
1235.677856
203547792.000000
40052.703125
4401.783203
9517.367188
0.000000
0.000000
0.000000
0.000000
66.067696
420902.468750
288.356354
3.044205
139927.468750
85.847359
15248.758789
1196.501465
371.643768
335.768555
795.505493
2211.850830
17535.984375
28250.289062
1567.714111
190.117142
257.969818
310.532074
1241.623169
0.776851
15372175.000000
92.694649
417.385620
1095.869507
0.000000
0.000000
0.000000
0.000000
621.018799
48.340630
3202.909424
902.338379
2151.241699
295.768555
709960.875000
351.381439
447.467621
9597.046875
676.062561
127.154968
42.963829
48.691555
443.190521
3.205304
1018.569153
852.384644
3773.927002
300.577179
3790.184082
12455.856445
5500.601562
4545.125488
0.000000
0.000000
0.000000
0.000000
1068.159302
163.528900
10160.029297
24003.623047
0.419298
79958.921875
81155.101562
140151.578125
2077.367920
92.224297
107.278854
329.079498
1349.195068
1.103293
883.610962
616.149414
70.014488
58.482018
937.338379
1080.309326
2232.829346
994.578064
157.789963
1799.700806
0.000000
0.000000
0.000000
0.000000
16077.164062
69402.570312
861.510193
102.220009
205149.765625
798.708801
164.521790
4412.474121
1245.704590
89.322533
24622.769531
22168.863281
258.777557
10533.999023
370.783875
288.255463
1438.437500
2014.992065
539.910339
27196.560547
235.363480
6550.557129
87.282295
8849.838867
0.000000
0.000000
0.000000
0.000000
16156.340820
112181.320312
710.112549
1524.026733
125.679489
94768.734375
304.967407
3325.918213
3161.729248
480.118164
453.587982
219.010208
1065.331543
4889.986328
12373.079102
82307.070312
81594.234375
25816.574219
579.309387
965.414062
163329.265625
107688.375000
1086.595703
2166.659180
0.000000
0.000000
0.000000
0.000000
475.210510
77.087791
67.503487
84.386986
107776.640625
3959.515869
1710.033936
336.589600
698.008179
663460.062500
2240.359619
1528.343750
1049.850220
23744.464844
52.234703
153.830719
104.422714
110.172417
960.791565
228.345963
226.754425
2352.793213
370.415131
2052.108887
0.000000
0.000000
0.000000
0.000000
12854.658203
62.959206
786193.125000
726.979248
260.416870
308.863281
361.250732
1898.098389
8.385531
22492.433594
29818181648384.000000
498.506805
619.832397
804.932190
174.910538
812.769531
301.725677
140.742065
296.633850
65.045555
715.464478
32273.298828
7110.447266
6860.651855
0.000000
0.000000
0.000000
0.000000
2045.792847
11138.379883
1782.048096
154.611908
1587.894409
4642.263184
334.804718
12982.622070
19754.939453
344.955750
3009.688477
49007.937500
865.597107
251.068146
6126.146484
614.317017
1224.840820
543.843079
82.081825
3513.129395
90958.132812
378.751831
1722.312378
20953.351562
0.000000
0.000000
0.000000
0.000000
82.975296
70.118187
3367.154541
208.362045
19580.650391
1960.692139
801.588318
481.364960
550.165771
124.699463
45.994503
70.884888
110.753502
1251777920.000000
3622.354980
156.445404
239.120728
204.511002
130.759827
39098.125000
277.927582
5787.433594
22680.791016
5685.336914
0.000000
0.000000
0.000000
0.000000
109266000.000000
4917.508301
1117.719971
93.202225
297.201538
1107.650757
0.188379
95356440.000000
1634.178589
16804.445312
1749.125977
146.578476
24.369844
83.138092
24338.179688
249.536087
3994.025635
833.102722
1147.953857
162.832077
303.649994
2318.667969
11944.696289
5083.686035
0.000000
0.000000
0.000000
0.000000
128181.062500
2.033576
215609.859375
536.066467
122.381805
7.262103
152.420044
386.395966
549.355103
13220.668945
46276.199219
185422.359375
1103.525635
29612.648438
1146.786255
2676.401855
6082527.000000
244.455780
578.937317
48.084766
14900.020508
373.331299
2858.836182
23664962.000000
0.000000
0.000000
0.000000
0.000000
190375.000000
104.112328
550.769165
227.852936
22320.126953
3954.867188
9132.188477
117335.429688
1645.906738
545.612671
74.667923
686.464966
36312.183594
161.580978
45.125610
169.700867
202056.750000
4899.559570
1321.588379
118.681259
1745.141357
452.105957
712.560852
3154.021484
0.000000
0.000000
0.000000
0.000000
67.889786
2.387262
19159504.000000
962.572632
131.628555
501.084320
359.153412
2869.189209
367.508881
15208.905273
346.518188
344.553833
2974.692871
285.852539
413.290833
113043.062500
1574.275146
3447.275146
2708.932861
3052.421143
904.263672
759.765564
39002.031250
11095.370117
0.000000
0.000000
0.000000
0.000000
58.610970
402.652557
487.424500
7979.330078
699.038025
831.856323
2775.586426
171.267242
15610.860352
13.328147
1795.765747
283.429535
113.745537
77766.062500
1174.049805
2779.565674
652.338806
307.709961
3431.938721
1632.940308
534.014465
174260.046875
450.743866
79955.398438
0.000000
0.000000
0.000000
0.000000
33.610420
123.136543
116.829544
810.317261
103.589928
206.120224
77.605690
45.215084
15372272.000000
124.808319
80961.039062
448975.000000
1671.842407
156.841888
287.586121
98099.492188
2749.436768
944355.062500
363.226440
128.574905
21629.451172
69.400185
136.085724
4928.894531
0.000000
0.000000
0.000000
0.000000
83570.046875
172.103271
2606.016602
2179.675293
1035.363281
173769.859375
76.941193
644.509033
586.498718
57.982227
209.854858
482.573425
1.111418
4055.292480
3391.723145
587638.875000
260.023285
312.323181
219.089584
794.200745
696.039185
111.696022
206.638031
954.778259
0.000000
0.000000
0.000000
0.000000
110.334534
105.865936
174.368958
319320.937500
2215.571289
1.402276
220.789368
3293.494141
571.173035
6087.148438
27423.615234
21588.675781
41.230862
430.785522
8697.544922
171.880249
29.772970
128166.570312
17505.904297
4535.088379
7180.141602
196821.921875
146.430069
8062.241211
0.000000
0.000000
0.000000
0.000000
337.443359
2884.260254
397.687744
93.085999
10510.992188
2768.869141
3398.826172
8100.895508
68835.500000
169.777206
215246224.000000
4244.254395
874.970703
228.222366
100.908409
488973.312500
37.377296
112331.820312
2133.445068
117.646004
2611.312012
2138.446777
89.940849
1164.609741