<?xml version='1.0' encoding='UTF-8'?>
<VTKFile xmlns='VTK' byte_order='LittleEndian' version='0.1' type='UnstructuredGrid'>
<UnstructuredGrid>
<Piece NumberOfCells='2512' NumberOfPoints='2512'>
<Points>
<DataArray NumberOfComponents='3' type='Float32' Name='Position' format='ascii'>
-0.075000 -0.075000 0.000000
-0.075000 -0.050000 0.000000
-0.075000 -0.025000 0.000000
-0.075000 0.000000 0.000000
-0.075000 0.025000 0.000000
-0.075000 0.050000 0.000000
-0.075000 0.075000 0.000000
-0.075000 0.100000 0.000000
-0.075000 0.125000 0.000000
-0.075000 0.150000 0.000000
-0.075000 0.175000 0.000000
-0.075000 0.200000 0.000000
-0.075000 0.225000 0.000000
-0.075000 0.250000 0.000000
-0.075000 0.275000 0.000000
-0.075000 0.300000 0.000000
-0.075000 0.325000 0.000000
-0.075000 0.350000 0.000000
-0.075000 0.375000 0.000000
-0.075000 0.400000 0.000000
-0.075000 0.425000 0.000000
-0.075000 0.450000 0.000000
-0.075000 0.475000 0.000000
-0.075000 0.500000 0.000000
-0.075000 0.525000 0.000000
-0.075000 0.550000 0.000000
-0.075000 0.575000 0.000000
-0.075000 0.600000 0.000000
-0.050000 -0.075000 0.000000
-0.050000 -0.050000 0.000000
-0.050000 -0.025000 0.000000
-0.050000 0.000000 0.000000
-0.050000 0.025000 0.000000
-0.050000 0.050000 0.000000
-0.050000 0.075000 0.000000
-0.050000 0.100000 0.000000
-0.050000 0.125000 0.000000
-0.050000 0.150000 0.000000
-0.050000 0.175000 0.000000
-0.050000 0.200000 0.000000
-0.050000 0.225000 0.000000
-0.050000 0.250000 0.000000
-0.050000 0.275000 0.000000
-0.050000 0.300000 0.000000
-0.050000 0.325000 0.000000
-0.050000 0.350000 0.000000
-0.050000 0.375000 0.000000
-0.050000 0.400000 0.000000
-0.050000 0.425000 0.000000
-0.050000 0.450000 0.000000
-0.050000 0.475000 0.000000
-0.050000 0.500000 0.000000
-0.050000 0.525000 0.000000
-0.050000 0.550000 0.000000
-0.050000 0.575000 0.000000
-0.050000 0.600000 0.000000
-0.025000 -0.075000 0.000000
-0.025000 -0.050000 0.000000
-0.025000 -0.025000 0.000000
-0.025000 0.000000 0.000000
-0.025000 0.025000 0.000000
-0.025000 0.050000 0.000000
-0.025000 0.075000 0.000000
-0.025000 0.100000 0.000000
-0.025000 0.125000 0.000000
-0.025000 0.150000 0.000000
-0.025000 0.175000 0.000000
-0.025000 0.200000 0.000000
-0.025000 0.225000 0.000000
-0.025000 0.250000 0.000000
-0.025000 0.275000 0.000000
-0.025000 0.300000 0.000000
-0.025000 0.325000 0.000000
-0.025000 0.350000 0.000000
-0.025000 0.375000 0.000000
-0.025000 0.400000 0.000000
-0.025000 0.425000 0.000000
-0.025000 0.450000 0.000000
-0.025000 0.475000 0.000000
-0.025000 0.500000 0.000000
-0.025000 0.525000 0.000000
-0.025000 0.550000 0.000000
-0.025000 0.575000 0.000000
-0.025000 0.600000 0.000000
0.000000 -0.075000 0.000000
0.000000 -0.050000 0.000000
0.000000 -0.025000 0.000000
0.000000 0.000000 0.000000
0.000000 0.025000 0.000000
0.000000 0.050000 0.000000
0.000000 0.075000 0.000000
0.000000 0.100000 0.000000
0.000000 0.125000 0.000000
0.000000 0.150000 0.000000
0.000000 0.175000 0.000000
0.000000 0.200000 0.000000
0.000000 0.225000 0.000000
0.000000 0.250000 0.000000
0.000000 0.275000 0.000000
0.000000 0.300000 0.000000
0.000000 0.325000 0.000000
0.000000 0.350000 0.000000
0.000000 0.375000 0.000000
0.000000 0.400000 0.000000
0.000000 0.425000 0.000000
0.000000 0.450000 0.000000
0.000000 0.475000 0.000000
0.000000 0.500000 0.000000
0.000000 0.525000 0.000000
0.000000 0.550000 0.000000
0.000000 0.575000 0.000000
0.000000 0.600000 0.000000
0.025000 -0.075000 0.000000
0.025000 -0.050000 0.000000
0.025000 -0.025000 0.000000
0.025000 0.000000 0.000000
-654.422856 0.600000 0.000000
20.728835 -34.921815 0.000000
-6.913384 -11.423624 0.000000
5.001192 -11.172359 0.000000
0.197437 0.122577 0.000000
-17164235.484666 0.600000 0.000000
3.059541 -21.330173 0.000000
8.802740 -15.534320 0.000000
-13.222670 -1.911575 0.000000
3.564550 -78.670019 0.000000
161.211625 -556.416313 0.000000
10.697097 -70.354397 0.000000
14544.528922 0.600000 0.000000
-5401.343586 0.600000 0.000000
-14.232823 0.600000 0.000000
-81.454992 -155.797848 0.000000
-23.449605 -22.426459 0.000000
203.067563 -282.544773 0.000000
20.036076 -22.355927 0.000000
-320.756933 0.600000 0.000000
84.309607 -179.272866 0.000000
-208.571943 0.600000 0.000000
-496.346185 0.600000 0.000000
16277716.621219 0.600000 0.000000
1.195000 0.625000 0.000000
1.195000 0.650000 0.000000
1.195000 0.675000 0.000000
0.050000 -0.075000 0.000000
0.050000 -0.050000 0.000000
0.050000 -0.025000 0.000000
0.050000 0.000000 0.000000
-26.453538 0.600000 0.000000
-23.159134 -6.563827 0.000000
324.660880 0.600000 0.000000
14.419711 0.600000 0.000000
1002.310314 0.600000 0.000000
-6.248867 -4.231535 0.000000
-6.057699 -11.583736 0.000000
-11.905271 0.600000 0.000000
-4365.279280 -8129.449463 0.000000
4240.152553 0.600000 0.000000
1.910498 -23.972450 0.000000
20.263004 -18.640332 0.000000
-54.658101 -20.692720 0.000000
251.767419 0.600000 0.000000
4182.084209 0.600000 0.000000
-212.275526 0.600000 0.000000
-26.005386 -12.314507 0.000000
-72.202677 0.600000 0.000000
397.235731 0.600000 0.000000
-56.362898 -73.916862 0.000000
266.556764 0.600000 0.000000
5363.228434 -1117.870970 0.000000
53.967100 -220.796437 0.000000
583.253463 0.600000 0.000000
1.220000 0.625000 0.000000
1.220000 0.650000 0.000000
1.220000 0.675000 0.000000
0.075000 -0.075000 0.000000
0.075000 -0.050000 0.000000
0.075000 -0.025000 0.000000
0.075000 0.000000 0.000000
-17.749341 -17.540878 0.000000
6000.929751 0.600000 0.000000
5.300208 0.600000 0.000000
-817.972850 0.600000 0.000000
-14.116910 -9.576364 0.000000
41.784480 0.600000 0.000000
9.058862 -41.403974 0.000000
1004.780987 0.600000 0.000000
202.620579 0.600000 0.000000
9.989226 -113.994038 0.000000
33.171742 -32.132579 0.000000
-359.967402 0.600000 0.000000
-166.903445 0.600000 0.000000
252.631553 -166.569492 0.000000
179.275142 0.600000 0.000000
6.843902 -0.184929 0.000000
996.272850 -395.843859 0.000000
0.061455 0.037994 0.000000
68.681153 -53.536843 0.000000
16.545874 -22.890472 0.000000
1331.982474 0.600000 0.000000
-24.362276 -66.364935 0.000000
-1868.395187 0.600000 0.000000
-409.756089 0.600000 0.000000
1.245000 0.625000 0.000000
1.245000 0.650000 0.000000
1.245000 0.675000 0.000000
0.100000 -0.075000 0.000000
0.100000 -0.050000 0.000000
0.100000 -0.025000 0.000000
0.100000 0.000000 0.000000
1.086876 0.600000 0.000000
27588950.021442 0.600000 0.000000
-221.008692 -209.711274 0.000000
23202.115640 0.600000 0.000000
-2010.518045 0.600000 0.000000
-2.127568 0.600000 0.000000
-41121.233516 0.600000 0.000000
33.746261 -0.077598 0.000000
5.364247 -7.219448 0.000000
21.808212 -8.764173 0.000000
-7.944779 -13.648183 0.000000
-622.730708 0.600000 0.000000
-19.544922 0.600000 0.000000
69.158269 -16.140432 0.000000
-40.338377 0.600000 0.000000
-39.691484 -33.315254 0.000000
0.103840 0.082866 0.000000
-6.989890 0.600000 0.000000
19.548347 -11.527492 0.000000
-45.694345 0.600000 0.000000
0.976810 0.022151 0.000000
28.586961 -41.568865 0.000000
642.991173 0.600000 0.000000
-8135.393271 0.600000 0.000000
1.270000 0.625000 0.000000
1.270000 0.650000 0.000000
1.270000 0.675000 0.000000
0.125000 -0.075000 0.000000
0.125000 -0.050000 0.000000
0.125000 -0.025000 0.000000
0.125000 0.000000 0.000000
-177.936708 0.600000 0.000000
567.140536 0.600000 0.000000
-507.157523 0.600000 0.000000
-155.528340 0.600000 0.000000
2.335227 -12.474462 0.000000
40.137169 -27.809548 0.000000
-236.613288 0.600000 0.000000
-3.939997 -26.133002 0.000000
15017.532562 0.600000 0.000000
-99.161349 -326.575997 0.000000
-126.203310 0.600000 0.000000
-806.017263 0.600000 0.000000
-4.717056 0.111992 0.000000
-84.639695 0.600000 0.000000
-120.217529 0.600000 0.000000
-134.542248 0.600000 0.000000
1827.409160 0.600000 0.000000
391.026146 0.600000 0.000000
-8.364605 -30.609693 0.000000
-67.909069 -41.565366 0.000000
-38.889136 0.292099 0.000000
686.943175 0.600000 0.000000
197696.610341 0.600000 0.000000
-59105.591956 0.600000 0.000000
1.295000 0.625000 0.000000
1.295000 0.650000 0.000000
1.295000 0.675000 0.000000
0.150000 -0.075000 0.000000
0.150000 -0.050000 0.000000
0.150000 -0.025000 0.000000
0.150000 0.000000 0.000000
-21.697542 0.600000 0.000000
-416.516193 0.600000 0.000000
-0.359337 -13.140143 0.000000
-48.050242 -29.235662 0.000000
-1288.555874 0.600000 0.000000
1.946316 0.355961 0.000000
81.136097 0.600000 0.000000
2.454714 -6.762892 0.000000
-41.341589 0.600000 0.000000
-1203.129570 0.600000 0.000000
-153.709425 -68.704320 0.000000
7.628032 -17.088071 0.000000
-24.688761 -22.165917 0.000000
-8317.141948 0.600000 0.000000
-2468.213457 0.600000 0.000000
-48.483720 -19.087849 0.000000
-50.469278 0.600000 0.000000
3.267099 -1350.209666 0.000000
2562.351204 0.600000 0.000000
1751.461806 0.600000 0.000000
-2454.919346 0.600000 0.000000
42.571619 -101.165432 0.000000
1039.807919 0.600000 0.000000
416.787591 0.600000 0.000000
1.320000 0.625000 0.000000
1.320000 0.650000 0.000000
1.320000 0.675000 0.000000
0.175000 -0.075000 0.000000
0.175000 -0.050000 0.000000
0.175000 -0.025000 0.000000
0.175000 0.000000 0.000000
-107.751357 0.600000 0.000000
-1156.690410 0.600000 0.000000
2.912299 -11.032773 0.000000
19907.813648 0.600000 0.000000
227.577462 0.600000 0.000000
-52.041789 -39.474681 0.000000
6.084097 -49.802004 0.000000
73.830646 0.600000 0.000000
-479.444262 0.600000 0.000000
-292.746040 -149.182335 0.000000
5438.653843 0.600000 0.000000
-769.529527 0.600000 0.000000
1006.639415 0.600000 0.000000
1612.507842 0.600000 0.000000
582.814480 -279.802564 0.000000
-147.004778 0.600000 0.000000
-1437.033368 -3207.772896 0.000000
1277.102472 0.600000 0.000000
7076610.099095 0.600000 0.000000
236.380487 0.600000 0.000000
2545.435397 0.600000 0.000000
-201.876002 -92.479929 0.000000
-29.450001 -181.392663 0.000000
633.832294 0.600000 0.000000
1.345000 0.625000 0.000000
1.345000 0.650000 0.000000
1.345000 0.675000 0.000000
0.200000 -0.075000 0.000000
0.200000 -0.050000 0.000000
0.200000 -0.025000 0.000000
0.200000 0.000000 0.000000
-170.967451 0.600000 0.000000
-368.616957 0.600000 0.000000
[...]
<PointData>
<DataArray NumberOfComponents='1' type='Int32' Name='ParticleType' format='ascii'>
3
3
3
3
3
3
3
3
3
3
3
3
3
3
3
3
3
3
3
3
3
3
3
3
3
3
3
3
3
3
3
3
3
3
3
3
3
3
3
3
3
3
3
3
3
3
3
3
3
3
3
3
3
3
3
3
3
3
2
2
2
2
2
2
2
2
2
2
2
2
2
2
2
2
2
2
2
2
2
2
2
2
2
2
3
3
2
2
2
2
2
2
2
2
2
2
2
2
2
2
2
2
2
2
2
2
2
2
2
2
2
2
3
3
2
2
0
0
0
0
0
0
0
0
0
0
0
0
0
0
0
0
0
0
0
0
0
0
0
0
1
1
1
3
3
2
2
0
0
0
0
0
0
0
0
0
0
0
0
0
0
0
0
0
0
0
0
0
0
0
0
1
1
1
3
3
2
2
0
0
0
0
0
0
0
0
0
0
0
0
0
0
0
0
0
0
0
0
0
0
0
0
1
1
1
3
3
2
2
0
0
0
0
0
0
0
0
0
0
0
0
0
0
0
0
0
0
0
0
0
0
0
0
1
1
1
3
3
2
2
0
0
0
0
0
0
0
0
0
0
0
0
0
0
0
0
0
0
0
0
0
0
0
0
1
1
1
3
3
2
2
0
0
0
0
0
0
0
0
0
0
0
0
0
0
0
0
0
0
0
0
0
0
0
0
1
1
1
3
3
2
2
0
0
0
0
0
0
0
0
0
0
0
0
0
0
0
0
0
0
0
0
0
0
0
0
1
1
1
3
3
2
2
0
0
0
0
0
0
0
0
0
0
0
0
0
0
0
0
0
0
0
0
0
0
0
0
1
1
1
3
3
2
2
0
0
0
0
0
0
0
0
0
0
0
0
0
0
0
0
0
0
0
0
0
0
0
0
1
1
1
3
3
2
2
0
0
0
0
0
0
0
0
0
0
0
0
0
0
0
0
0
0
0
0
0
0
0
0
1
1
1
3
3
2
2
0
0
0
0
0
0
0
0
0
0
0
0
0
0
0
0
0
0
0
0
0
0
0
0
1
1
1
3
3
2
2
0
0
0
0
0
0
0
0
0
0
0
0
0
0
0
0
0
0
0
0
0
0
0
0
1
1
1
3
3
2
2
0
0
0
0
0
0
0
0
0
0
0
0
0
0
0
0
0
0
0
0
0
0
0
0
1
1
1
3
3
2
2
0
0
0
0
0
0
0
0
0
0
0
0
0
0
0
0
0
0
0
0
0
0
0
0
1
1
1
3
3
2
2
0
0
0
0
0
0
0
0
0
0
0
0
0
0
0
0
0
0
0
0
0
0
0
0
1
1
1
3
3
2
2
0
0
0
0
0
0
0
0
0
0
0
0
0
0
0
0
0
0
0
0
0
0
0
0
1
1
1
3
3
2
2
0
0
0
0
0
0
0
0
0
0
0
0
0
0
0
0
0
0
0
0
0
0
0
0
3
3
2
2
0
0
0
0
0
0
0
0
0
0
0
0
0
0
0
0
0
0
0
0
0
0
0
0
3
3
2
2
0
0
0
0
0
0
0
0
0
0
0
0
0
0
0
0
0
0
0
0
0
0
0
0
3
3
2
2
0
0
0
0
0
0
0
0
0
0
0
0
0
0
0
0
0
0
0
0
0
0
0
0
3
3
2
2
0
0
0
0
0
0
0
0
0
0
0
0
0
0
0
0
0
0
0
0
0
0
0
0
3
3
2
2
0
0
0
0
0
0
0
0
0
0
0
0
0
0
0
0
0
0
0
0
0
0
0
0
3
3
2
2
0
0
0
0
0
0
0
0
0
0
0
0
0
0
0
0
0
0
0
0
0
0
0
0
3
3
2
2
0
0
0
0
0
0
0
0
0
0
0
0
0
0
0
0
0
0
0
0
0
0
0
0
3
3
2
2
0
0
0
0
0
0
0
0
0
0
0
0
0
0
0
0
0
0
0
0
0
0
0
0
3
3
2
2
0
0
0
0
0
0
0
0
0
0
0
0
0
0
0
0
0
0
0
0
0
0
0
0
3
3
2
2
0
0
0
0
0
0
0
0
0
0
0
0
0
0
0
0
0
0
0
0
0
0
0
0
3
3
2
2
0
0
0
0
0
0
0
0
0
0
0
0
0
0
0
0
0
0
0
0
0
0
0
0
3
3
2
2
0
0
0
0
0
0
0
0
0
0
0
0
0
0
0
0
0
0
0
0
0
0
0
0
3
3
2
2
0
0
0
0
0
0
0
0
0
0
0
0
0
0
0
0
0
0
0
0
0
0
0
0
3
3
2
2
0
0
0
0
0
0
0
0
0
0
0
0
0
0
0
0
0
0
0
0
0
0
0
0
3
3
2
2
0
0
0
0
0
0
0
0
0
0
0
0
0
0
0
0
0
0
0
0
0
0
0
0
3
3
2
2
0
0
0
0
0
0
0
0
0
0
0
0
0
0
0
0
0
0
0
0
0
0
0
0
3
3
2
2
0
0
0
0
0
0
0
0
0
0
0
0
0
0
0
0
0
0
0
0
0
0
0
0
3
3
2
2
0
0
0
0
0
0
0
0
0
0
0
0
0
0
0
0
0
0
0
0
0
0
0
0
3
3
2
2
0
0
0
0
0
0
0
0
0
0
0
0
0
0
0
0
0
0
0
0
0
0
0
0
3
3
2
2
0
0
0
0
0
0
0
0
0
0
0
0
0
0
0
0
0
0
0
0
0
0
0
0
3
3
2
2
0
0
0
0
0
0
0
0
0
0
0
0
0
0
0
0
0
0
0
0
0
0
0
0
3
3
2
2
0
0
0
0
0
0
0
0
0
0
0
0
0
0
0
0
0
0
0
0
0
0
0
0
3
3
2
2
0
0
0
0
0
0
0
0
0
0
0
0
0
0
0
0
0
0
0
0
0
0
0
0
3
3
2
2
0
0
0
0
0
0
0
0
0
0
0
0
0
0
0
0
0
0
0
0
0
0
0
0
3
3
2
2
0
0
0
0
0
0
0
0
0
0
0
0
0
0
0
0
0
0
0
0
0
0
0
0
3
3
2
2
0
0
0
0
0
0
0
0
0
0
0
0
0
0
0
0
0
0
0
0
0
0
0
0
3
3
2
2
0
0
0
0
0
0
0
0
0
0
0
0
0
0
0
0
0
0
0
0
0
0
0
0
3
3
2
2
0
0
0
0
0
0
0
0
0
0
0
0
0
0
0
0
0
0
0
0
0
0
0
0
3
3
2
2
0
0
0
0
0
0
0
0
0
0
0
0
0
0
0
0
0
0
0
0
0
0
0
0
3
3
2
2
0
0
0
0
0
0
0
0
0
0
0
0
0
0
0
0
0
0
0
0
0
0
0
0
3
3
2
2
0
0
0
0
0
0
0
0
0
0
0
0
0
0
0
0
0
0
0
0
0
0
0
0
3
3
2
2
0
0
0
0
0
0
0
0
0
0
0
0
0
0
0
0
0
0
0
0
0
0
0
0
3
3
2
2
0
0
0
0
0
0
0
0
0
0
0
0
0
0
0
0
0
0
0
0
0
0
0
0
3
3
2
2
0
0
0
0
0
0
0
0
0
0
0
0
0
0
0
0
0
0
0
0
0
0
0
0
3
3
2
2
0
0
0
0
0
0
0
0
0
0
0
0
0
0
0
0
0
0
0
0
0
0
0
0
3
3
2
2
0
0
0
0
0
0
0
0
0
0
0
0
0
0
0
0
0
0
0
0
0
0
0
0
3
3
2
2
0
0
0
0
0
0
0
0
0
0
0
0
0
0
0
0
0
0
0
0
0
0
0
0
3
3
2
2
0
0
0
0
0
0
0
0
0
0
0
0
0
0
0
0
0
0
0
0
0
0
0
0
3
3
2
2
0
0
0
0
0
0
0
0
0
0
0
0
0
0
0
0
0
0
0
0
0
0
0
0
3
3
2
2
0
0
0
0
0
0
0
0
0
0
0
0
0
0
0
0
0
0
0
0
0
0
0
0
3
3
2
2
0
0
0
0
0
0
0
0
0
0
0
0
0
0
0
0
0
0
0
0
0
0
0
0
3
3
2
2
0
0
0
0
0
0
0
0
0
0
0
0
0
0
0
0
0
0
0
0
0
0
0
0
3
3
2
2
0
0
0
0
0
0
0
0
0
0
0
0
0
0
0
0
0
0
0
0
0
0
0
0
3
3
2
2
0
0
0
0
0
0
0
0
0
0
0
0
0
0
0
0
0
0
0
0
0
0
0
0
3
3
2
2
0
0
0
0
0
0
0
0
0
0
0
0
0
0
0
0
0
0
0
0
0
0
0
0
3
3
2
2
0
0
0
0
0
0
0
0
0
0
0
0
0
0
0
0
0
0
0
0
0
0
0
0
3
3
2
2
0
0
0
0
0
0
0
0
0
0
0
0
0
0
0
0
0
0
0
0
0
0
0
0
3
3
2
2
0
0
0
0
0
0
0
0
0
0
0
0
0
0
0
0
0
0
0
0
0
0
0
0
3
3
2
2
0
0
0
0
0
0
0
0
0
0
0
0
0
0
0
0
0
0
0
0
0
0
0
0
3
3
2
2
0
0
0
0
0
0
0
0
0
0
0
0
0
0
0
0
0
0
0
0
0
0
0
0
3
3
2
2
0
0
0
0
0
0
0
0
0
0
0
0
0
0
0
0
0
0
0
0
0
0
0
0
3
3
2
2
0
0
0
0
0
0
0
0
0
0
0
0
0
0
0
0
0
0
0
0
0
0
0
0
3
3
2
2
0
0
0
0
0
0
0
0
0
0
0
0
0
0
0
0
0
0
0
0
0
0
0
0
3
3
2
2
0
0
0
0
0
0
0
0
0
0
0
0
0
0
0
0
0
0
0
0
0
0
0
0
3
3
2
2
0
0
0
0
0
0
0
0
0
0
0
0
0
0
0
0
0
0
0
0
0
0
0
0
3
3
2
2
0
0
0
0
0
0
0
0
0
0
0
0
0
0
0
0
0
0
0
0
0
0
0
0
3
3
2
2
0
0
0
0
0
0
0
0
0
0
0
0
0
0
0
0
0
0
0
0
0
0
0
0
3
3
2
2
0
0
0
0
0
0
0
0
0
0
0
0
0
0
0
0
0
0
0
0
0
0
0
0
3
3
2
2
0
0
0
0
0
0
0
0
0
0
0
0
0
0
0
0
0
0
0
0
0
0
0
0
3
3
2
2
0
0
0
0
0
0
0
0
0
0
0
0
0
0
0
0
0
0
0
0
0
0
0
0
3
3
2
2
0
0
0
0
0
0
0
0
0
0
0
0
0
0
0
0
0
0
0
0
0
0
0
0
3
3
2
2
0
0
0
0
0
0
0
0
0
0
0
0
0
0
0
0
0
0
0
0
0
0
0
0
3
3
2
2
0
0
0
0
0
0
0
0
0
0
0
0
0
0
0
0
0
0
0
0
0
0
0
0
3
3
2
2
2
2
2
2
2
2
2
2
2
2
2
2
2
2
2
2
2
2
2
2
2
2
2
2
3
3
2
2
2
2
2
2
2
2
2
2
2
2
2
2
2
2
2
2
2
2
2
2
2
2
2
2
3
3
3
3
3
3
3
3
3
3
3
3
3
3
3
3
3
3
3
3
3
3
3
3
3
3
3
3
3
3
3
3
3
3
3
3
3
3
3
3
3
3
3
3
3
3
3
3
3
3
3
3
3
3
3
3
</DataArray>
<DataArray NumberOfComponents='1' type='Float32' Name='Velocity' format='ascii'>
0.000000
0.000000
0.000000
0.000000
0.000000
0.000000
0.000000
0.000000
0.000000
0.000000
0.000000
0.000000
0.000000
0.000000
0.000000
0.000000
0.000000
0.000000
0.000000
0.000000
0.000000
0.000000
0.000000
0.000000
0.000000
0.000000
0.000000
0.000000
0.000000
0.000000
0.000000
0.000000
0.000000
0.000000
0.000000
0.000000
0.000000
0.000000
0.000000
0.000000
0.000000
0.000000
0.000000
0.000000
0.000000
0.000000
0.000000
0.000000
0.000000
0.000000
0.000000
0.000000
0.000000
0.000000
0.000000
0.000000
0.000000
0.000000
0.000000
0.000000
0.000000
0.000000
0.000000
0.000000
0.000000
0.000000
0.000000
0.000000
0.000000
0.000000
0.000000
0.000000
0.000000
0.000000
0.000000
0.000000
0.000000
0.000000
0.000000
0.000000
0.000000
0.000000
0.000000
0.000000
0.000000
0.000000
0.000000
0.000000
0.000000
0.000000
0.000000
0.000000
0.000000
0.000000
0.000000
0.000000
0.000000
0.000000
0.000000
0.000000
0.000000
0.000000
0.000000
0.000000
0.000000
0.000000
0.000000
0.000000
0.000000
0.000000
0.000000
0.000000
0.000000
0.000000
0.000000
0.000000
4401.159668
209.686234
70.028969
64.070633
0.599095
95356864.000000
112.523872
94.215202
68.652672
523.325073
2973.071533
365.727325
76158.250000
28429.937500
172.479034
899.790283
167.865387
1787.054443
166.204666
1675.788818
1003.960327
1089.534302
2536.387207
83049576.000000
1.000000
1.000000
1.000000
0.000000
0.000000
0.000000
0.000000
136.673096
129.795593
1853.775757
96.856110
5235.730957
41.897572
69.053635
63.823658
47321.812500
49285.308594
125.645920
152.250336
301.080353
2373.847900
23500.087891
1095.338623
147.750366
434.030334
2117.657715
487.326813
1443.780273
28240.154297
1150.763306
2972.088379
1.000000
1.000000
1.000000
0.000000
0.000000
0.000000
0.000000
129.864365
35737.621094
40.137760
4535.059570
88.543129
240.461365
239.361801
5320.159668
1053.835327
643.699280
239.845551
1881.191040
908.372681
1561.092651
959.032532
33.211613
5671.935059
0.698260
456.708557
148.781342
6866.569824
365.454437
9610.172852
2141.186523
1.000000
1.000000
1.000000
0.000000
0.000000
0.000000
0.000000
4.416370
164219952.000000
1579.587402
135656.203125
10448.530273
135.870117
227129.031250
175.611191
47.900482
123.189926
84.294327
3279.873535
124.790024
367.286224
222.495560
274.653046
1.177015
433.964233
128.024200
424.244507
4.195488
263.447052
3320.565186
41519.269531
1.000000
1.000000
1.000000
0.000000
0.000000
0.000000
0.000000
1029.014526
3411.144775
2796.167236
907.517334
69.067749
249.581543
1510.061768
139.509491
81647.476562
1770.406982
888.184814
12657.977539
35.218960
465.038971
666.675903
696.530823
10193.662109
2079.027100
170.961655
415.104858
196.214111
3741.484619
998466.625000
324624.781250
1.000000
1.000000
1.000000
0.000000
0.000000
0.000000
0.000000
118.343643
2240.508057
68.988373
296.347504
7866.755859
1.902112
489.089874
39.740402
387.667053
6514.511719
869.020569
97.544426
182.414978
42874.496094
12942.660156
269.291901
365.327606
6999.774414
13420.485352
9315.298828
12991.104492
557.091431
5252.387695
2126.346191
1.000000
1.000000
1.000000
0.000000
0.000000
0.000000
0.000000
623.633728
6835.034668
60.269215
107050.992188
1218.794922
336.605377
259.989960
439.945709
2507.994629
1695.299561
31802.392578
5951.668457
5386.679688
8406.706055
3477.456055
815.691040
17936.394531
6927.436523
37641568.000000
1239.983521
12991.761719
1129.114380
927.398560
4005.544434
1.000000
1.000000
1.000000
0.000000
0.000000
0.000000
0.000000
981.078430
2538.346680
1055.352783
936.808899
2479.644287
116.292862
27921.140625
287566.156250
1582.368530
1611.243164
97.344917
125.491821
318.945984
24645172.000000
1351.561157
15052.083984
1059.256104
1785.737915
1779.940186
4261.537598
17893.673828
2291.450439
1933.392944
2322.764160
1.000000
1.000000
1.000000
0.000000
0.000000
0.000000
0.000000
138.660828
10989698.000000
2051.585693
80.326790
754.435974
191.937622
20260.886719
484.596710
2113.056885
365.501801
6044.655273
389.408234
8532.673828
986.630005
153.420135
1.816777
174154.703125
199.737946
263.018768
68543.257812
1488.617065
26142.673828
92.256210
191028.375000
1.000000
1.000000
1.000000
0.000000
0.000000
0.000000
0.000000
43348.953125
292.924927
128.021698
8021.472656
16063.672852
668.300049
1457.635254
12930.059570
190196.296875
585.804871
162.402496
939.949707
1674.028442
199.518219
91.851524
133.729355
266763.218750
155.229095
350.262177
289706.187500
494.962677
1085.142944
95400.992188
95085.890625
1.000000
1.000000
1.000000
0.000000
0.000000
0.000000
0.000000
617.380493
131.028198
1761.176392
37.934677
1826.208740
195.221359
90.198822
158.560669
244.361954
163.311859
857.762756
2962.232422
2022.173462
667.918213
304234.031250
60897.406250
109189544.000000
855.599609
43347.984375
5692.120605
124.721779
9136.522461
3759.829346
3982.309814
1.000000
1.000000
1.000000
0.000000
0.000000
0.000000
0.000000
290.374634
1010911488.000000
272.357727
313831.718750
43311.804688
41954936.000000
8036.541992
9932.415039
327.755554
411.284393
1308.499023
11015329.000000
862.122803
7859819520.000000
27.769133
57765.035156
117242.046875
1863.520630
680.865295
51.039459
7545.494629
6939.788574
161842336.000000
7707.988770
1.000000
1.000000
1.000000
0.000000
0.000000
0.000000
0.000000
819.541382
297.225708
99.883446
89.023865
103.699509
10577.979492
156.630081
163.169678
138.804626
2391.089355
6692.501465
1621.151733
345.155609
58.959892
2805.485352
378.145294
357.312286
116.115234
426.193817
1686.506104
650.044006
69.797729
39987.769531
3991.758301
1.000000
1.000000
1.000000
0.000000
0.000000
0.000000
0.000000
81.831139
1941.645386
182.532242
32.628021
236.506058
332.335938
2332.241943
7073.366699
914.779724
1092.669556
20030.166016
72.017410
400.894623
251.532623
245.155426
9488.276367
49153.625000
263.121368
90296.828125
274.955597
6454.402344
1076.909912
5125.881348
998081.687500
1.000000
1.000000
1.000000
0.000000
0.000000
0.000000
0.000000
125.565598
81898.593750
121.942322
8.268138
140.661453
594.535339
95.332176
2227.153564
41956152.000000
80.843025
898.532349
1017.795776
339448.062500
24146.228516
482.784821
708.873108
1158.369263
221.877136
1296.445312
49.756218
1560.224854
82941672.000000
956.390564
15229.260742
1.000000
1.000000
1.000000
0.000000
0.000000
0.000000
0.000000
1402.008911
44920.699219
319.012512
283.168213
477.950867
909.195679
140.835205
1764.687988
215.401169
2586.875000
17710.494141
447.503204
2946.465820
662.043579
316.595978
48621.332031
94.719444
12590.301758
3793.793213
1772.236084
125.959358
1776.907593
1128.786987
15809.721680
1.000000
1.000000
1.000000
0.000000
0.000000
0.000000
0.000000
239.570831
1067.872559
196.962677
512.543213
23249.576172
72.530624
1826.395630
2046.775146
4755.586914
124.181839
612.737793
4968.301758
3887.466797
181.178421
276.530609
129.681229
361.831055
385.497742
159659.765625
189.240768
5939.152832
69.274742
99.821068
4415.159668
0.000000
0.000000
0.000000
0.000000
57.777348
39281.593750
2573.751221
150.953812
2676.241211
4871.230957
2316.690918
10128.708008
2525.434814
21141.843750
6729.299805
7730.250000
193.697678
98441824.000000
1950.283813
495978.718750
6310.380859
25976.513672
417.867554
552.880493
96046.179688
27242.650391
144.864517
1062.529541
0.000000
0.000000
0.000000
0.000000
1975.017090
607.560425
131.753174
375.077972
296.188812
5026.153809
119.266411
61.059349
193.553513
7906.478516
1055.391724
3710.580322
98599.781250
231.283112
129.067657
157.777313
286.255005
528.346130
4829300.500000
19885750.000000
1371.302368
2165.125244
608.398804
15961.988281
0.000000
0.000000
0.000000
0.000000
51.188808
1297.994019
474.433289
3207.401123
3088.343262
261.514008
13265.636719
466.923126
123.492188
288258.031250
46.182148
1295.137085
523.921814
43177.644531
898.896973
1071.074585
1930363.250000
14036.076172
196.473328
50.509132
2958.440186
693.601929
1278.596680
4774220.000000
0.000000
0.000000
0.000000
0.000000
1512.893677
1346.796265
158.506729
4118.873535
43065.179688
594.363892
405.412567
351.438843
682.942017
301.431152
1742.156738
269.048462
584.937378
164.472473
117.954147
119.167252
5530499.500000
209.902557
1231.292480
347.996704
4797.754395
2200.866455
1835.678589
2685.119385
0.000000
0.000000
0.000000
0.000000
124.337486
729.491821
53.321609
1666460.000000
23588.011719
278.759521
61.019081
70.578362
1763.348511
6721.858398
203547328.000000
135.254623
2136.156494
812.614807
274.008453
113.086243
735.058777
198.170151
186.155167
325.805084
1228.517700
307293.531250
343.140625
1176.781494
0.000000
0.000000
0.000000
0.000000
463.654083
1507.935913
263.584656
1453.910400
120.279350
2300.563965
467.313202
39930.312500
94.194542
30677.169922
1209.968262
224.364410
3375.573486
60.477482
3205.804199
102359.648438
1629.848145
151.687607
3974.220703
249.848282
38518.199219
118.260307
745.560730
2748.630859
0.000000
0.000000
0.000000
0.000000
66.328613
3.365077
9624.409180
367294.187500
350.803680
207.918869
57535692.000000
21698.437500
793.686890
887.141174
6320.086426
1935943.625000
138.299683
98.045517
1905.117065
987.894348
1158.436523
1433.955688
4917.806641
1235.807983
203547792.000000
40052.703125
4401.849609
9517.457031
0.000000
0.000000
0.000000
0.000000
85.906067
600.456482
284.852966
5.414015
139929.984375
82.560638
15249.025391
1193.599976
401.012573
335.657928
795.571045
2150.653320
16375.453125
28250.335938
1570.394165
186.735184
254.444366
307.054718
1241.067749
6.104563
15372175.000000
117.600769
416.192078
1096.492554
0.000000
0.000000
0.000000
0.000000
617.894775
44.956829
3190.217773
904.000977
2151.287598
292.408325
709960.875000
349.436859
445.931763
9597.194336
672.691284
126.980530
41.380726
47.337765
440.594818
4.083045
1015.243408
850.126526
3603.690186
300.461426
3786.938477
12455.860352
5500.650391
4545.264648
0.000000
0.000000
0.000000
0.000000
1066.553955
147.443253
10160.060547
24003.650391
2.652987
79958.921875
81155.101562
140149.062500
2071.939941
91.227509
106.457573
325.712036
1349.516235
3.003492
880.155945
617.257568
66.591629
58.272346
950.490051
1084.774292
2232.989502
991.915466
155.721954
1799.592896
0.000000
0.000000
0.000000
0.000000
16074.920898
69402.578125
859.136963
102.406769
205149.765625
798.609802
161.596207
5018.191895
1243.899414
86.147690
24622.824219
22169.035156
255.259140
10534.134766
367.291138
285.867249
1437.566040
2015.568237
626.149048
27196.603516
234.580231
2188.256104
86.547966
8849.935547
0.000000
0.000000
0.000000
0.000000
16158.559570
112181.335938
699.969788
1520.609863
123.576988
94768.734375
303.790405
3328.810791
3158.664307
469.904449
450.997314
219.194305
1065.856689
4890.004395
12373.532227
82307.070312
81594.234375
25816.582031
577.612976
962.157471
163329.281250
107688.375000
1084.794678
2093.866699
0.000000
0.000000
0.000000
0.000000
466.800049
73.615990
66.508415
82.540573
107776.679688
3959.812500
1706.751709
260.267822
735.351257
663460.062500
2242.213135
1525.133545
1064.689209
23744.486328
49.376591
150.322632
101.046082
106.657913
1358.025024
228.217957
223.805389
2354.798584
370.208313
2052.800781
0.000000
0.000000
0.000000
0.000000
12854.897461
59.473186
786193.125000
729.674255
258.659790
305.341187
350.071777
1898.114990
6.929619
22493.410156
29818181648384.000000
494.979675
620.331848
779.491394
171.544373
811.927429
300.508820
138.728424
295.132385
63.674381
713.636658
32273.304688
7106.919922
6862.935059
0.000000
0.000000
0.000000
0.000000
1983.266235
11138.529297
1778.845215
152.847275
1589.788452
4642.653809
331.738037
12982.016602
19754.941406
343.162537
2985.924805
49007.941406
800.882263
249.010315
6126.154785
611.077759
1221.442993
541.252380
81.524750
3514.099365
90958.132812
376.431366
1713.977295
20956.390625
0.000000
0.000000
0.000000
0.000000
79.449883
66.851219
3365.719971
205.142334
19577.671875
2000.151367
801.613159
478.547272
550.339417
122.302536
41.186707
69.235207
107.247154
1251777920.000000
3622.933350
153.332703
237.621826
203.209061
127.279152
39097.121094
275.120636
5787.473145
22677.962891
5687.069824
0.000000
0.000000
0.000000
0.000000
109266000.000000
4917.512695
1114.748779
91.243263
153.674530
1107.985229
1.735281
95356440.000000
1635.021362
16807.765625
1745.958130
143.510742
24.077387
82.734818
24338.189453
246.207611
3994.063965
829.574768
1145.314697
150.961761
300.705292
2316.613525
11944.705078
5083.778320
0.000000
0.000000
0.000000
0.000000
128181.062500
16.386204
215609.859375
542.505798
122.308243
10.783995
151.581421
386.357422
546.207336
13220.909180
46276.214844
185422.375000
1104.571533
29612.687500
1152.096802
2769.661377
6082527.000000
240.956970
578.016357
46.818253
14900.022461
371.885040
2764.279541
23664962.000000
0.000000
0.000000
0.000000
0.000000
190375.000000
102.363297
551.700378
225.265076
22319.144531
3954.976074
9132.295898
117335.429688
1648.704224
535.043274
71.225769
685.090149
36312.191406
159.668381
41.762241
169.412231
202056.750000
4897.199707
1319.260132
105.279228
1744.227783
448.790894
709.035278
3154.183838
0.000000
0.000000
0.000000
0.000000
67.173103
2.577727
19159504.000000
964.835022
129.092255
501.537262
314.800629
2769.537598
364.112152
15206.922852
343.332428
295.029358
2974.760498
282.787231
399.932770
113043.070312
1573.061768
3447.409180
2615.975830
3026.762451
902.038330
756.621887
39003.027344
11095.405273
0.000000
0.000000
0.000000
0.000000
57.183144
406.549561
484.481812
8088.178711
657.562866
865.877197
2774.020264
168.484222
15409.416016
95.831253
1763.220947
279.971527
113.124733
77766.070312
1183.290527
2776.197754
650.960327
305.270844
3431.987305
1633.071045
530.550659
174256.703125
449.643768
79955.398438
0.000000
0.000000
0.000000
0.000000
33.361664
119.810608
114.003342
810.238342
100.540367
206.027634
75.463776
49.055641
15372272.000000
124.281914
80961.046875
448975.000000
1671.819214
153.598328
284.318756
98099.492188
2749.758789
944355.062500
362.613373
126.808357
21626.240234
67.109840
132.801910
4928.987305
0.000000
0.000000
0.000000
0.000000
83570.062500
170.703522
2606.159668
2176.932373
1036.219604
173768.828125
73.925156
644.910583
582.009949
47.919937
206.737000
479.680054
1.923743
3997.466553
3339.735107
587638.875000
256.564423
308.902405
215.811768
792.046997
695.057556
111.365120
204.406174
961.095825
0.000000
0.000000
0.000000
0.000000
107.752861
104.367035
171.194382
319320.937500
2213.133057
3.923922
218.111389
3245.327637
583.503784
6085.076172
27423.621094
21588.777344
37.822701
427.454681
8697.585938
168.458893
28.780605
128166.570312
17502.390625
4531.617188
7180.377930
196818.515625
142.918930
8119.063965
0.000000
0.000000
0.000000
0.000000
334.274445
2884.290527
400.634216
90.326225
10511.022461
2768.969482
3530.322021
8100.905273
68835.500000
166.311813
215246224.000000
4244.357910
871.446228
226.319763
98.573647
488973.312500
35.997532
112331.835938
2101.877197
114.392540
2609.306152
2110.458984
86.919212
1156.530396