<?xml version='1.0' encoding='UTF-8'?>
<VTKFile xmlns='VTK' byte_order='LittleEndian' version='0.1' type='UnstructuredGrid'>
<UnstructuredGrid>
<Piece NumberOfCells='2512' NumberOfPoints='2512'>
<Points>
<DataArray NumberOfComponents='3' type='Float32' Name='Position' format='ascii'>
-0.075000 -0.075000 0.000000
-0.075000 -0.050000 0.000000
-0.075000 -0.025000 0.000000
-0.075000 0.000000 0.000000
-0.075000 0.025000 0.000000
-0.075000 0.050000 0.000000
-0.075000 0.075000 0.000000
-0.075000 0.100000 0.000000
-0.075000 0.125000 0.000000
-0.075000 0.150000 0.000000
-0.075000 0.175000 0.000000
-0.075000 0.200000 0.000000
-0.075000 0.225000 0.000000
-0.075000 0.250000 0.000000
-0.075000 0.275000 0.000000
-0.075000 0.300000 0.000000
-0.075000 0.325000 0.000000
-0.075000 0.350000 0.000000
-0.075000 0.375000 0.000000
-0.075000 0.400000 0.000000
-0.075000 0.425000 0.000000
-0.075000 0.450000 0.000000
-0.075000 0.475000 0.000000
-0.075000 0.500000 0.000000
-0.075000 0.525000 0.000000
-0.075000 0.550000 0.000000
-0.075000 0.575000 0.000000
-0.075000 0.600000 0.000000
-0.050000 -0.075000 0.000000
-0.050000 -0.050000 0.000000
-0.050000 -0.025000 0.000000
-0.050000 0.000000 0.000000
-0.050000 0.025000 0.000000
-0.050000 0.050000 0.000000
-0.050000 0.075000 0.000000
-0.050000 0.100000 0.000000
-0.050000 0.125000 0.000000
-0.050000 0.150000 0.000000
-0.050000 0.175000 0.000000
-0.050000 0.200000 0.000000
-0.050000 0.225000 0.000000
-0.050000 0.250000 0.000000
-0.050000 0.275000 0.000000
-0.050000 0.300000 0.000000
-0.050000 0.325000 0.000000
-0.050000 0.350000 0.000000
-0.050000 0.375000 0.000000
-0.050000 0.400000 0.000000
-0.050000 0.425000 0.000000
-0.050000 0.450000 0.000000
-0.050000 0.475000 0.000000
-0.050000 0.500000 0.000000
-0.050000 0.525000 0.000000
-0.050000 0.550000 0.000000
-0.050000 0.575000 0.000000
-0.050000 0.600000 0.000000
-0.025000 -0.075000 0.000000
-0.025000 -0.050000 0.000000
-0.025000 -0.025000 0.000000
-0.025000 0.000000 0.000000
-0.025000 0.025000 0.000000
-0.025000 0.050000 0.000000
-0.025000 0.075000 0.000000
-0.025000 0.100000 0.000000
-0.025000 0.125000 0.000000
-0.025000 0.150000 0.000000
-0.025000 0.175000 0.000000
-0.025000 0.200000 0.000000
-0.025000 0.225000 0.000000
-0.025000 0.250000 0.000000
-0.025000 0.275000 0.000000
-0.025000 0.300000 0.000000
-0.025000 0.325000 0.000000
-0.025000 0.350000 0.000000
-0.025000 0.375000 0.000000
-0.025000 0.400000 0.000000
-0.025000 0.425000 0.000000
-0.025000 0.450000 0.000000
-0.025000 0.475000 0.000000
-0.025000 0.500000 0.000000
-0.025000 0.525000 0.000000
-0.025000 0.550000 0.000000
-0.025000 0.575000 0.000000
-0.025000 0.600000 0.000000
0.000000 -0.075000 0.000000
0.000000 -0.050000 0.000000
0.000000 -0.025000 0.000000
0.000000 0.000000 0.000000
0.000000 0.025000 0.000000
0.000000 0.050000 0.000000
0.000000 0.075000 0.000000
0.000000 0.100000 0.000000
0.000000 0.125000 0.000000
0.000000 0.150000 0.000000
0.000000 0.175000 0.000000
0.000000 0.200000 0.000000
0.000000 0.225000 0.000000
0.000000 0.250000 0.000000
0.000000 0.275000 0.000000
0.000000 0.300000 0.000000
0.000000 0.325000 0.000000
0.000000 0.350000 0.000000
0.000000 0.375000 0.000000
0.000000 0.400000 0.000000
0.000000 0.425000 0.000000
0.000000 0.450000 0.000000
0.000000 0.475000 0.000000
0.000000 0.500000 0.000000
0.000000 0.525000 0.000000
0.000000 0.550000 0.000000
0.000000 0.575000 0.000000
0.000000 0.600000 0.000000
0.025000 -0.075000 0.000000
0.025000 -0.050000 0.000000
0.025000 -0.025000 0.000000
0.025000 0.000000 0.000000
0.025992 0.023940 0.000000
0.024429 0.048715 0.000000
0.025423 0.075137 0.000000
0.025530 0.098636 0.000000
0.024695 0.124511 0.000000
0.025530 0.149119 0.000000
0.024821 0.173791 0.000000
0.025212 0.199260 0.000000
0.024698 0.224009 0.000000
0.025124 0.249655 0.000000
0.024902 0.274516 0.000000
0.024564 0.300515 0.000000
0.024952 0.325758 0.000000
0.024886 0.351858 0.000000
0.024408 0.377706 0.000000
0.024836 0.404948 0.000000
0.023627 0.430992 0.000000
0.023486 0.461766 0.000000
0.023833 0.488531 0.000000
0.023897 0.516827 0.000000
0.022167 0.547045 0.000000
0.028212 0.583861 0.000000
0.049170 0.594438 0.000000
0.021928 0.600000 0.000000
0.535000 0.625000 0.000000
0.535000 0.650000 0.000000
0.535000 0.675000 0.000000
0.050000 -0.075000 0.000000
0.050000 -0.050000 0.000000
0.050000 -0.025000 0.000000
0.050000 0.000000 0.000000
0.051702 0.024972 0.000000
0.047655 0.049728 0.000000
0.049509 0.079209 0.000000
0.049603 0.103387 0.000000
0.048862 0.131613 0.000000
0.050037 0.156451 0.000000
0.049111 0.184374 0.000000
0.049760 0.208317 0.000000
0.049554 0.235446 0.000000
0.049276 0.259275 0.000000
0.049614 0.285621 0.000000
0.049258 0.309263 0.000000
0.048951 0.334404 0.000000
0.048756 0.359760 0.000000
0.047577 0.384561 0.000000
0.048572 0.409496 0.000000
0.045845 0.435373 0.000000
0.046497 0.459332 0.000000
0.048077 0.485139 0.000000
0.045674 0.509915 0.000000
0.048927 0.536237 0.000000
0.039355 0.557494 0.000000
0.071852 0.570982 0.000000
0.063119 0.600000 0.000000
0.560000 0.625000 0.000000
0.560000 0.650000 0.000000
0.560000 0.675000 0.000000
0.075000 -0.075000 0.000000
0.075000 -0.050000 0.000000
0.075000 -0.025000 0.000000
0.075000 0.000000 0.000000
0.078810 0.023689 0.000000
0.070581 0.048404 0.000000
0.074633 0.073716 0.000000
0.074426 0.097541 0.000000
0.072262 0.122592 0.000000
0.076125 0.147252 0.000000
0.071448 0.171024 0.000000
0.077465 0.197155 0.000000
0.071539 0.220694 0.000000
0.077714 0.246945 0.000000
0.072863 0.270764 0.000000
0.076293 0.296381 0.000000
0.075291 0.320995 0.000000
0.072697 0.346686 0.000000
0.075984 0.370990 0.000000
0.071690 0.397242 0.000000
0.075697 0.422388 0.000000
0.071572 0.446202 0.000000
0.071990 0.472546 0.000000
0.074946 0.495549 0.000000
0.071009 0.518752 0.000000
0.067619 0.550267 0.000000
0.097680 0.566433 0.000000
0.080850 0.598120 0.000000
0.585000 0.625000 0.000000
0.585000 0.650000 0.000000
0.585000 0.675000 0.000000
0.100000 -0.075000 0.000000
0.100000 -0.050000 0.000000
0.100000 -0.025000 0.000000
0.100000 0.000000 0.000000
0.103397 0.025821 0.000000
0.095419 0.050538 0.000000
0.098927 0.078886 0.000000
0.099917 0.102317 0.000000
0.097871 0.129116 0.000000
0.099916 0.153975 0.000000
0.097793 0.180631 0.000000
0.100276 0.205892 0.000000
0.097620 0.232435 0.000000
0.100271 0.258460 0.000000
0.098331 0.285827 0.000000
0.099757 0.310788 0.000000
0.098450 0.337946 0.000000
0.098639 0.361718 0.000000
0.096979 0.388829 0.000000
0.097313 0.412540 0.000000
0.096660 0.440199 0.000000
0.097892 0.463860 0.000000
0.100748 0.487213 0.000000
0.099250 0.513938 0.000000
0.089320 0.534844 0.000000
0.111374 0.550963 0.000000
0.113833 0.588278 0.000000
0.097815 0.600000 0.000000
0.610000 0.625000 0.000000
0.610000 0.650000 0.000000
0.610000 0.675000 0.000000
0.125000 -0.075000 0.000000
0.125000 -0.050000 0.000000
0.125000 -0.025000 0.000000
0.125000 0.000000 0.000000
0.130009 0.023884 0.000000
0.118208 0.048298 0.000000
0.124382 0.073851 0.000000
0.125069 0.098237 0.000000
0.121565 0.122364 0.000000
0.126026 0.147781 0.000000
0.121403 0.171638 0.000000
0.125591 0.196903 0.000000
0.121800 0.221354 0.000000
0.125174 0.246726 0.000000
0.121383 0.271100 0.000000
0.125536 0.296946 0.000000
0.122325 0.321951 0.000000
0.124141 0.348435 0.000000
0.123494 0.372751 0.000000
0.122220 0.399284 0.000000
0.125388 0.422233 0.000000
0.121153 0.448971 0.000000
0.126015 0.471592 0.000000
0.123766 0.502161 0.000000
0.122434 0.524874 0.000000
0.137412 0.550255 0.000000
0.135274 0.571800 0.000000
0.133343 0.600000 0.000000
0.635000 0.625000 0.000000
0.635000 0.650000 0.000000
0.635000 0.675000 0.000000
0.150000 -0.075000 0.000000
0.150000 -0.050000 0.000000
0.150000 -0.025000 0.000000
0.150000 0.000000 0.000000
0.154642 0.024994 0.000000
0.143995 0.051339 0.000000
0.148741 0.077477 0.000000
0.150779 0.101942 0.000000
0.146781 0.129265 0.000000
0.150348 0.153544 0.000000
0.146663 0.180924 0.000000
0.150827 0.205862 0.000000
0.146536 0.232820 0.000000
0.150043 0.257181 0.000000
0.146711 0.284725 0.000000
0.150232 0.308455 0.000000
0.144434 0.336194 0.000000
0.152443 0.359062 0.000000
0.142853 0.388270 0.000000
0.153778 0.408534 0.000000
0.142753 0.438798 0.000000
0.156937 0.455774 0.000000
0.141447 0.487650 0.000000
0.160814 0.500595 0.000000
0.145485 0.529630 0.000000
0.167921 0.545101 0.000000
0.164321 0.587811 0.000000
0.146284 0.600000 0.000000
0.660000 0.625000 0.000000
0.660000 0.650000 0.000000
0.660000 0.675000 0.000000
0.175000 -0.075000 0.000000
0.175000 -0.050000 0.000000
0.175000 -0.025000 0.000000
0.175000 0.000000 0.000000
0.180840 0.024861 0.000000
0.166544 0.047893 0.000000
0.173284 0.074705 0.000000
0.175053 0.098315 0.000000
0.170332 0.122854 0.000000
0.175666 0.148056 0.000000
0.170398 0.172686 0.000000
0.174945 0.197462 0.000000
0.170410 0.222304 0.000000
0.175205 0.248041 0.000000
0.170294 0.272546 0.000000
0.175539 0.297344 0.000000
0.169500 0.323794 0.000000
0.176397 0.347395 0.000000
0.168255 0.374048 0.000000
0.179745 0.397648 0.000000
0.168061 0.424486 0.000000
0.182349 0.447014 0.000000
0.169341 0.475140 0.000000
0.185858 0.494199 0.000000
0.172394 0.521643 0.000000
0.193991 0.547224 0.000000
0.174099 0.565829 0.000000
0.182629 0.600000 0.000000
0.685000 0.625000 0.000000
0.685000 0.650000 0.000000
0.685000 0.675000 0.000000
0.200000 -0.075000 0.000000
0.200000 -0.050000 0.000000
0.200000 -0.025000 0.000000
0.200000 0.000000 0.000000
0.205452 0.024566 0.000000
0.193226 0.050672 0.000000
0.198812 0.075191 0.000000
0.201460 0.099965 0.000000
0.196276 0.126283 0.000000
0.200638 0.150358 0.000000
0.195759 0.176378 0.000000
0.200777 0.201165 0.000000
0.195716 0.227251 0.000000
0.199789 0.250739 0.000000
0.195713 0.277799 0.000000
0.200313 0.301273 0.000000
0.194365 0.326391 0.000000
0.201585 0.350994 0.000000
0.193465 0.375570 0.000000
0.203909 0.400201 0.000000
0.193388 0.423942 0.000000
0.207865 0.449566 0.000000
0.194975 0.470855 0.000000
0.211043 0.500123 0.000000
0.196836 0.524016 0.000000
0.218367 0.549901 0.000000
[...]
<PointData>
<DataArray NumberOfComponents='1' type='Int32' Name='ParticleType' format='ascii'>
3
3
3
3
3
3
3
3
3
3
3
3
3
3
3
3
3
3
3
3
3
3
3
3
3
3
3
3
3
3
3
3
3
3
3
3
3
3
3
3
3
3
3
3
3
3
3
3
3
3
3
3
3
3
3
3
3
3
2
2
2
2
2
2
2
2
2
2
2
2
2
2
2
2
2
2
2
2
2
2
2
2
2
2
3
3
2
2
2
2
2
2
2
2
2
2
2
2
2
2
2
2
2
2
2
2
2
2
2
2
2
2
3
3
2
2
0
0
0
0
0
0
0
0
0
0
0
0
0
0
0
0
0
0
0
0
0
0
0
0
1
1
1
3
3
2
2
0
0
0
0
0
0
0
0
0
0
0
0
0
0
0
0
0
0
0
0
0
0
0
0
1
1
1
3
3
2
2
0
0
0
0
0
0
0
0
0
0
0
0
0
0
0
0
0
0
0
0
0
0
0
0
1
1
1
3
3
2
2
0
0
0
0
0
0
0
0
0
0
0
0
0
0
0
0
0
0
0
0
0
0
0
0
1
1
1
3
3
2
2
0
0
0
0
0
0
0
0
0
0
0
0
0
0
0
0
0
0
0
0
0
0
0
0
1
1
1
3
3
2
2
0
0
0
0
0
0
0
0
0
0
0
0
0
0
0
0
0
0
0
0
0
0
0
0
1
1
1
3
3
2
2
0
0
0
0
0
0
0
0
0
0
0
0
0
0
0
0
0
0
0
0
0
0
0
0
1
1
1
3
3
2
2
0
0
0
0
0
0
0
0
0
0
0
0
0
0
0
0
0
0
0
0
0
0
0
0
1
1
1
3
3
2
2
0
0
0
0
0
0
0
0
0
0
0
0
0
0
0
0
0
0
0
0
0
0
0
0
1
1
1
3
3
2
2
0
0
0
0
0
0
0
0
0
0
0
0
0
0
0
0
0
0
0
0
0
0
0
0
1
1
1
3
3
2
2
0
0
0
0
0
0
0
0
0
0
0
0
0
0
0
0
0
0
0
0
0
0
0
0
1
1
1
3
3
2
2
0
0
0
0
0
0
0
0
0
0
0
0
0
0
0
0
0
0
0
0
0
0
0
0
1
1
1
3
3
2
2
0
0
0
0
0
0
0
0
0
0
0
0
0
0
0
0
0
0
0
0
0
0
0
0
1
1
1
3
3
2
2
0
0
0
0
0
0
0
0
0
0
0
0
0
0
0
0
0
0
0
0
0
0
0
0
1
1
1
3
3
2
2
0
0
0
0
0
0
0
0
0
0
0
0
0
0
0
0
0
0
0
0
0
0
0
0
1
1
1
3
3
2
2
0
0
0
0
0
0
0
0
0
0
0
0
0
0
0
0
0
0
0
0
0
0
0
0
1
1
1
3
3
2
2
0
0
0
0
0
0
0
0
0
0
0
0
0
0
0
0
0
0
0
0
0
0
0
0
3
3
2
2
0
0
0
0
0
0
0
0
0
0
0
0
0
0
0
0
0
0
0
0
0
0
0
0
3
3
2
2
0
0
0
0
0
0
0
0
0
0
0
0
0
0
0
0
0
0
0
0
0
0
0
0
3
3
2
2
0
0
0
0
0
0
0
0
0
0
0
0
0
0
0
0
0
0
0
0
0
0
0
0
3
3
2
2
0
0
0
0
0
0
0
0
0
0
0
0
0
0
0
0
0
0
0
0
0
0
0
0
3
3
2
2
0
0
0
0
0
0
0
0
0
0
0
0
0
0
0
0
0
0
0
0
0
0
0
0
3
3
2
2
0
0
0
0
0
0
0
0
0
0
0
0
0
0
0
0
0
0
0
0
0
0
0
0
3
3
2
2
0
0
0
0
0
0
0
0
0
0
0
0
0
0
0
0
0
0
0
0
0
0
0
0
3
3
2
2
0
0
0
0
0
0
0
0
0
0
0
0
0
0
0
0
0
0
0
0
0
0
0
0
3
3
2
2
0
0
0
0
0
0
0
0
0
0
0
0
0
0
0
0
0
0
0
0
0
0
0
0
3
3
2
2
0
0
0
0
0
0
0
0
0
0
0
0
0
0
0
0
0
0
0
0
0
0
0
0
3
3
2
2
0
0
0
0
0
0
0
0
0
0
0
0
0
0
0
0
0
0
0
0
0
0
0
0
3
3
2
2
0
0
0
0
0
0
0
0
0
0
0
0
0
0
0
0
0
0
0
0
0
0
0
0
3
3
2
2
0
0
0
0
0
0
0
0
0
0
0
0
0
0
0
0
0
0
0
0
0
0
0
0
3
3
2
2
0
0
0
0
0
0
0
0
0
0
0
0
0
0
0
0
0
0
0
0
0
0
0
0
3
3
2
2
0
0
0
0
0
0
0
0
0
0
0
0
0
0
0
0
0
0
0
0
0
0
0
0
3
3
2
2
0
0
0
0
0
0
0
0
0
0
0
0
0
0
0
0
0
0
0
0
0
0
0
0
3
3
2
2
0
0
0
0
0
0
0
0
0
0
0
0
0
0
0
0
0
0
0
0
0
0
0
0
3
3
2
2
0
0
0
0
0
0
0
0
0
0
0
0
0
0
0
0
0
0
0
0
0
0
0
0
3
3
2
2
0
0
0
0
0
0
0
0
0
0
0
0
0
0
0
0
0
0
0
0
0
0
0
0
3
3
2
2
0
0
0
0
0
0
0
0
0
0
0
0
0
0
0
0
0
0
0
0
0
0
0
0
3
3
2
2
0
0
0
0
0
0
0
0
0
0
0
0
0
0
0
0
0
0
0
0
0
0
0
0
3
3
2
2
0
0
0
0
0
0
0
0
0
0
0
0
0
0
0
0
0
0
0
0
0
0
0
0
3
3
2
2
0
0
0
0
0
0
0
0
0
0
0
0
0
0
0
0
0
0
0
0
0
0
0
0
3
3
2
2
0
0
0
0
0
0
0
0
0
0
0
0
0
0
0
0
0
0
0
0
0
0
0
0
3
3
2
2
0
0
0
0
0
0
0
0
0
0
0
0
0
0
0
0
0
0
0
0
0
0
0
0
3
3
2
2
0
0
0
0
0
0
0
0
0
0
0
0
0
0
0
0
0
0
0
0
0
0
0
0
3
3
2
2
0
0
0
0
0
0
0
0
0
0
0
0
0
0
0
0
0
0
0
0
0
0
0
0
3
3
2
2
0
0
0
0
0
0
0
0
0
0
0
0
0
0
0
0
0
0
0
0
0
0
0
0
3
3
2
2
0
0
0
0
0
0
0
0
0
0
0
0
0
0
0
0
0
0
0
0
0
0
0
0
3
3
2
2
0
0
0
0
0
0
0
0
0
0
0
0
0
0
0
0
0
0
0
0
0
0
0
0
3
3
2
2
0
0
0
0
0
0
0
0
0
0
0
0
0
0
0
0
0
0
0
0
0
0
0
0
3
3
2
2
0
0
0
0
0
0
0
0
0
0
0
0
0
0
0
0
0
0
0
0
0
0
0
0
3
3
2
2
0
0
0
0
0
0
0
0
0
0
0
0
0
0
0
0
0
0
0
0
0
0
0
0
3
3
2
2
0
0
0
0
0
0
0
0
0
0
0
0
0
0
0
0
0
0
0
0
0
0
0
0
3
3
2
2
0
0
0
0
0
0
0
0
0
0
0
0
0
0
0
0
0
0
0
0
0
0
0
0
3
3
2
2
0
0
0
0
0
0
0
0
0
0
0
0
0
0
0
0
0
0
0
0
0
0
0
0
3
3
2
2
0
0
0
0
0
0
0
0
0
0
0
0
0
0
0
0
0
0
0
0
0
0
0
0
3
3
2
2
0
0
0
0
0
0
0
0
0
0
0
0
0
0
0
0
0
0
0
0
0
0
0
0
3
3
2
2
0
0
0
0
0
0
0
0
0
0
0
0
0
0
0
0
0
0
0
0
0
0
0
0
3
3
2
2
0
0
0
0
0
0
0
0
0
0
0
0
0
0
0
0
0
0
0
0
0
0
0
0
3
3
2
2
0
0
0
0
0
0
0
0
0
0
0
0
0
0
0
0
0
0
0
0
0
0
0
0
3
3
2
2
0
0
0
0
0
0
0
0
0
0
0
0
0
0
0
0
0
0
0
0
0
0
0
0
3
3
2
2
0
0
0
0
0
0
0
0
0
0
0
0
0
0
0
0
0
0
0
0
0
0
0
0
3
3
2
2
0
0
0
0
0
0
0
0
0
0
0
0
0
0
0
0
0
0
0
0
0
0
0
0
3
3
2
2
0
0
0
0
0
0
0
0
0
0
0
0
0
0
0
0
0
0
0
0
0
0
0
0
3
3
2
2
0
0
0
0
0
0
0
0
0
0
0
0
0
0
0
0
0
0
0
0
0
0
0
0
3
3
2
2
0
0
0
0
0
0
0
0
0
0
0
0
0
0
0
0
0
0
0
0
0
0
0
0
3
3
2
2
0
0
0
0
0
0
0
0
0
0
0
0
0
0
0
0
0
0
0
0
0
0
0
0
3
3
2
2
0
0
0
0
0
0
0
0
0
0
0
0
0
0
0
0
0
0
0
0
0
0
0
0
3
3
2
2
0
0
0
0
0
0
0
0
0
0
0
0
0
0
0
0
0
0
0
0
0
0
0
0
3
3
2
2
0
0
0
0
0
0
0
0
0
0
0
0
0
0
0
0
0
0
0
0
0
0
0
0
3
3
2
2
0
0
0
0
0
0
0
0
0
0
0
0
0
0
0
0
0
0
0
0
0
0
0
0
3
3
2
2
0
0
0
0
0
0
0
0
0
0
0
0
0
0
0
0
0
0
0
0
0
0
0
0
3
3
2
2
0
0
0
0
0
0
0
0
0
0
0
0
0
0
0
0
0
0
0
0
0
0
0
0
3
3
2
2
0
0
0
0
0
0
0
0
0
0
0
0
0
0
0
0
0
0
0
0
0
0
0
0
3
3
2
2
0
0
0
0
0
0
0
0
0
0
0
0
0
0
0
0
0
0
0
0
0
0
0
0
3
3
2
2
0
0
0
0
0
0
0
0
0
0
0
0
0
0
0
0
0
0
0
0
0
0
0
0
3
3
2
2
0
0
0
0
0
0
0
0
0
0
0
0
0
0
0
0
0
0
0
0
0
0
0
0
3
3
2
2
0
0
0
0
0
0
0
0
0
0
0
0
0
0
0
0
0
0
0
0
0
0
0
0
3
3
2
2
0
0
0
0
0
0
0
0
0
0
0
0
0
0
0
0
0
0
0
0
0
0
0
0
3
3
2
2
0
0
0
0
0
0
0
0
0
0
0
0
0
0
0
0
0
0
0
0
0
0
0
0
3
3
2
2
0
0
0
0
0
0
0
0
0
0
0
0
0
0
0
0
0
0
0
0
0
0
0
0
3
3
2
2
0
0
0
0
0
0
0
0
0
0
0
0
0
0
0
0
0
0
0
0
0
0
0
0
3
3
2
2
2
2
2
2
2
2
2
2
2
2
2
2
2
2
2
2
2
2
2
2
2
2
2
2
3
3
2
2
2
2
2
2
2
2
2
2
2
2
2
2
2
2
2
2
2
2
2
2
2
2
2
2
3
3
3
3
3
3
3
3
3
3
3
3
3
3
3
3
3
3
3
3
3
3
3
3
3
3
3
3
3
3
3
3
3
3
3
3
3
3
3
3
3
3
3
3
3
3
3
3
3
3
3
3
3
3
3
3
</DataArray>
<DataArray NumberOfComponents='1' type='Float32' Name='Velocity' format='ascii'>
0.000000
0.000000
0.000000
0.000000
0.000000
0.000000
0.000000
0.000000
0.000000
0.000000
0.000000
0.000000
0.000000
0.000000
0.000000
0.000000
0.000000
0.000000
0.000000
0.000000
0.000000
0.000000
0.000000
0.000000
0.000000
0.000000
0.000000
0.000000
0.000000
0.000000
0.000000
0.000000
0.000000
0.000000
0.000000
0.000000
0.000000
0.000000
0.000000
0.000000
0.000000
0.000000
0.000000
0.000000
0.000000
0.000000
0.000000
0.000000
0.000000
0.000000
0.000000
0.000000
0.000000
0.000000
0.000000
0.000000
0.000000
0.000000
0.000000
0.000000
0.000000
0.000000
0.000000
0.000000
0.000000
0.000000
0.000000
0.000000
0.000000
0.000000
0.000000
0.000000
0.000000
0.000000
0.000000
0.000000
0.000000
0.000000
0.000000
0.000000
0.000000
0.000000
0.000000
0.000000
0.000000
0.000000
0.000000
0.000000
0.000000
0.000000
0.000000
0.000000
0.000000
0.000000
0.000000
0.000000
0.000000
0.000000
0.000000
0.000000
0.000000
0.000000
0.000000
0.000000
0.000000
0.000000
0.000000
0.000000
0.000000
0.000000
0.000000
0.000000
0.000000
0.000000
0.000000
0.000000
0.029120
0.007551
0.043685
0.026019
0.036860
0.015289
0.028194
0.021009
0.035618
0.026506
0.030587
0.007367
0.024813
0.022104
0.034186
0.059509
0.092915
0.067743
0.171971
0.050730
0.288184
0.244287
0.174457
1.636644
1.000000
1.000000
1.000000
0.000000
0.000000
0.000000
0.000000
0.037422
0.072439
0.087417
0.042039
0.122190
0.089288
0.149112
0.099945
0.133349
0.081912
0.109973
0.078096
0.095342
0.081033
0.125352
0.112329
0.116489
0.149123
0.093283
0.188194
0.374902
0.298306
0.161318
1.445088
1.000000
1.000000
1.000000
0.000000
0.000000
0.000000
0.000000
0.097053
0.059687
0.041084
0.018497
0.064768
0.060138
0.071987
0.080452
0.046672
0.054446
0.052900
0.085277
0.085812
0.119671
0.069941
0.113604
0.172880
0.081924
0.127613
0.106452
0.031557
0.095117
0.058285
0.133640
1.000000
1.000000
1.000000
0.000000
0.000000
0.000000
0.000000
0.067237
0.161061
0.071029
0.079360
0.083375
0.107544
0.097414
0.103377
0.102880
0.099785
0.108902
0.052464
0.063825
0.116891
0.072755
0.145021
0.017387
0.127880
0.057841
0.069112
0.117681
0.048450
0.232526
1.475948
1.000000
1.000000
1.000000
0.000000
0.000000
0.000000
0.000000
0.115919
0.139870
0.034440
0.009293
0.062430
0.064228
0.047481
0.033383
0.012336
0.041330
0.030520
0.037695
0.083698
0.131473
0.098976
0.169693
0.124619
0.153385
0.106210
0.169535
0.338716
0.068470
0.373352
0.592218
1.000000
1.000000
1.000000
0.000000
0.000000
0.000000
0.000000
0.071375
0.190648
0.029715
0.040277
0.098948
0.084131
0.086878
0.108035
0.131984
0.119130
0.119043
0.135234
0.170043
0.085583
0.202500
0.076891
0.151355
0.053756
0.147134
0.091460
0.180603
0.045605
0.281947
1.188846
1.000000
1.000000
1.000000
0.000000
0.000000
0.000000
0.000000
0.123488
0.157146
0.016840
0.032599
0.067956
0.077417
0.055183
0.045083
0.069018
0.092875
0.087395
0.048624
0.088903
0.066536
0.082900
0.056553
0.161146
0.030666
0.175513
0.048623
0.061599
0.140585
0.058603
0.426526
1.000000
1.000000
1.000000
0.000000
0.000000
0.000000
0.000000
0.063754
0.169393
0.010376
0.033919
0.082422
0.059911
0.059723
0.042675
0.107583
0.015632
0.070314
0.098082
0.068295
0.046484
0.088162
0.054970
0.064572
0.141137
0.102212
0.121073
0.036893
0.092195
0.059605
0.841926
1.000000
1.000000
1.000000
0.000000
0.000000
0.000000
0.000000
0.101709
0.105161
0.019254
0.022937
0.039829
0.050266
0.079946
0.033998
0.072875
0.049715
0.033099
0.035689
0.058036
0.071583
0.044948
0.103399
0.079485
0.123721
0.066181
0.072697
0.015785
0.057768
0.154913
0.304264
1.000000
1.000000
1.000000
0.000000
0.000000
0.000000
0.000000
0.091204
0.178807
0.056448
0.066509
0.101164
0.054089
0.046900
0.058987
0.034672
0.050309
0.069468
0.071837
0.054475
0.070247
0.099660
0.049263
0.041571
0.064258
0.025382
0.077096
0.085042
0.154341
0.161865
0.407433
1.000000
1.000000
1.000000
0.000000
0.000000
0.000000
0.000000
0.091580
0.081215
0.047121
0.031093
0.057537
0.040553
0.096668
0.076908
0.092817
0.042833
0.063061
0.037729
0.114553
0.067131
0.055812
0.080082
0.027236
0.069056
0.032396
0.067525
0.024403
0.034729
0.098559
0.416756
1.000000
1.000000
1.000000
0.000000
0.000000
0.000000
0.000000
0.116841
0.170472
0.041703
0.072337
0.071327
0.071954
0.042511
0.051114
0.063953
0.060749
0.078074
0.056579
0.052292
0.041434
0.059398
0.096420
0.057901
0.069544
0.057151
0.075461
0.075726
0.065083
0.247897
0.321638
1.000000
1.000000
1.000000
0.000000
0.000000
0.000000
0.000000
0.069805
0.044085
0.023846
0.064841
0.068234
0.055619
0.064539
0.046091
0.057037
0.056248
0.053145
0.027001
0.047763
0.074402
0.066787
0.077662
0.051837
0.025642
0.017320
0.060657
0.073197
0.033841
0.036234
0.185151
1.000000
1.000000
1.000000
0.000000
0.000000
0.000000
0.000000
0.134212
0.076119
0.022932
0.084175
0.092959
0.082449
0.081534
0.081151
0.088675
0.068793
0.062943
0.057978
0.087064
0.064976
0.044498
0.030437
0.002033
0.072128
0.063273
0.102025
0.027584
0.043457
0.028818
0.307299
1.000000
1.000000
1.000000
0.000000
0.000000
0.000000
0.000000
0.094906
0.080457
0.037151
0.057222
0.074963
0.063751
0.049844
0.023305
0.045482
0.045995
0.080759
0.040104
0.047775
0.048632
0.083232
0.112282
0.017201
0.036959
0.017332
0.092578
0.077318
0.031340
0.154019
0.705432
1.000000
1.000000
1.000000
0.000000
0.000000
0.000000
0.000000
0.085410
0.058675
0.008575
0.110650
0.102259
0.101391
0.078781
0.099826
0.054787
0.063956
0.031527
0.026198
0.066727
0.054450
0.102223
0.053242
0.002415
0.101804
0.040985
0.105727
0.047784
0.159884
0.047807
0.423056
1.000000
1.000000
1.000000
0.000000
0.000000
0.000000
0.000000
0.104606
0.092536
0.050924
0.064852
0.081051
0.062176
0.062531
0.040903
0.054310
0.044336
0.071820
0.051247
0.117606
0.057043
0.137006
0.176895
0.151341
0.126457
0.072413
0.100493
0.094800
0.090037
0.062825
0.390110
0.000000
0.000000
0.000000
0.000000
0.049971
0.094009
0.026480
0.124670
0.073183
0.076513
0.075966
0.056981
0.048903
0.020334
0.034315
0.038895
0.078885
0.057978
0.069497
0.132659
0.062593
0.070846
0.035411
0.125439
0.096518
0.174927
0.029632
1.015656
0.000000
0.000000
0.000000
0.000000
0.052191
0.073227
0.052107
0.098935
0.108491
0.087716
0.098532
0.062361
0.050498
0.043933
0.070495
0.058698
0.089147
0.113099
0.138676
0.200847
0.064222
0.136907
0.065242
0.057730
0.062895
0.174138
0.148159
0.423050
0.000000
0.000000
0.000000
0.000000
0.077941
0.093310
0.031210
0.090378
0.104216
0.064224
0.097853
0.063209
0.064994
0.045872
0.065616
0.045001
0.076775
0.034489
0.059614
0.063976
0.059707
0.009749
0.029946
0.168252
0.025062
0.107183
0.164432
4.467840
0.000000
0.000000
0.000000
0.000000
0.044952
0.078046
0.054929
0.094912
0.086181
0.054269
0.075993
0.057919
0.048359
0.058377
0.045282
0.063100
0.027704
0.100367
0.104591
0.135801
0.148702
0.142152
0.081766
0.019736
0.040758
0.015803
0.348366
0.151645
0.000000
0.000000
0.000000
0.000000
0.083150
0.089879
0.034073
0.064637
0.102075
0.066065
0.114669
0.051096
0.089634
0.042342
0.094455
0.035912
0.092748
0.070781
0.081491
0.072550
0.025457
0.036614
0.049630
0.032226
0.107388
0.017307
0.071044
0.226938
0.000000
0.000000
0.000000
0.000000
0.076541
0.053841
0.034029
0.071585
0.086971
0.044881
0.070076
0.033970
0.042723
0.045218
0.049060
0.046719
0.029956
0.022282
0.033774
0.026474
0.049344
0.060082
0.113023
0.019274
0.092787
0.065918
0.138303
0.065893
0.000000
0.000000
0.000000
0.000000
0.083143
0.088147
0.029760
0.062340
0.105921
0.056005
0.094234
0.054941
0.087672
0.055986
0.060883
0.053052
0.050807
0.061379
0.014575
0.017890
0.058182
0.069815
0.031271
0.089526
0.030874
0.017448
0.049910
0.211605
0.000000
0.000000
0.000000
0.000000
0.099726
0.049135
0.023884
0.059555
0.076831
0.054019
0.069696
0.044424
0.036738
0.038463
0.048176
0.053311
0.078960
0.076494
0.046911
0.096862
0.041304
0.030497
0.071631
0.051265
0.072999
0.078873
0.011752
0.155060
0.000000
0.000000
0.000000
0.000000
0.099776
0.087796
0.045658
0.049586
0.089963
0.047790
0.074247
0.039653
0.068055
0.056125
0.053124
0.060344
0.052091
0.054706
0.067922
0.031388
0.028639
0.054025
0.068410
0.071007
0.076693
0.076429
0.100704
0.059952
0.000000
0.000000
0.000000
0.000000
0.106827
0.065059
0.047039
0.040520
0.061937
0.052523
0.058744
0.058386
0.055448
0.056604
0.060776
0.069251
0.066757
0.049147
0.012667
0.015141
0.015930
0.006513
0.032310
0.083351
0.078568
0.096287
0.075597
0.243132
0.000000
0.000000
0.000000
0.000000
0.099537
0.067595
0.050734
0.050593
0.097933
0.064809
0.083424
0.038563
0.060960
0.043324
0.061022
0.050844
0.059046
0.083062
0.057709
0.082213
0.020169
0.011704
0.048721
0.089994
0.069946
0.062904
0.050818
0.382324
0.000000
0.000000
0.000000
0.000000
0.110119
0.056013
0.062994
0.025202
0.063577
0.043948
0.050627
0.054298
0.055516
0.055008
0.061353
0.065281
0.081728
0.067750
0.085014
0.049878
0.055290
0.058342
0.056678
0.042367
0.090792
0.128871
0.166798
0.401742
0.000000
0.000000
0.000000
0.000000
0.110565
0.052233
0.066155
0.042998
0.077807
0.064817
0.073086
0.045819
0.061005
0.050437
0.055524
0.046572
0.053200
0.038844
0.047019
0.037018
0.064227
0.064621
0.028227
0.015815
0.166859
0.109345
0.107914
0.146425
0.000000
0.000000
0.000000
0.000000
0.107609
0.048186
0.070073
0.030604
0.064967
0.046924
0.048945
0.049961
0.046009
0.040970
0.058017
0.053217
0.055977
0.052465
0.043774
0.026889
0.029334
0.023326
0.026464
0.034860
0.020461
0.124499
0.086265
0.190129
0.000000
0.000000
0.000000
0.000000
0.114983
0.034714
0.077429
0.035979
0.062984
0.059635
0.057475
0.042163
0.045290
0.047207
0.047377
0.047757
0.063312
0.050804
0.054310
0.067052
0.034740
0.095009
0.056811
0.103542
0.068468
0.084108
0.073551
0.184641
0.000000
0.000000
0.000000
0.000000
0.119773
0.045001
0.081973
0.031981
0.059331
0.051346
0.043782
0.049201
0.045961
0.040963
0.060705
0.053344
0.074102
0.067546
0.081007
0.059055
0.087620
0.052636
0.111538
0.083671
0.081729
0.144361
0.052525
0.092533
0.000000
0.000000
0.000000
0.000000
0.114413
0.027707
0.080944
0.029331
0.050799
0.059539
0.052650
0.042117
0.039737
0.046067
0.052622
0.048207
0.068775
0.045583
0.077947
0.045893
0.069962
0.024573
0.097089
0.023552
0.072554
0.046011
0.126761
0.116524
0.000000
0.000000
0.000000
0.000000
0.125310
0.038089
0.088975
0.035018
0.053329
0.047182
0.034637
0.046158
0.042668
0.038954
0.049111
0.041405
0.071333
0.057295
0.071584
0.026245
0.061083
0.010972
0.072210
0.081005
0.074617
0.095205
0.137627
0.059354
0.000000
0.000000
0.000000
0.000000
0.116341
0.025266
0.084733
0.019610
0.033120
0.057560
0.044014
0.044100
0.035074
0.036161
0.050356
0.053485
0.070083
0.038233
0.075869
0.037203
0.067957
0.020393
0.055754
0.043043
0.035018
0.080741
0.048902
0.196655
0.000000
0.000000
0.000000
0.000000
0.119495
0.033123
0.094903
0.028573
0.034857
0.044803
0.029964
0.038364
0.036040
0.046259
0.047775
0.042399
0.066831
0.040888
0.081919
0.035418
0.083817
0.028329
0.068855
0.038555
0.071973
0.121817
0.383043
0.588272
0.000000
0.000000
0.000000
0.000000
0.119940
0.030848
0.084216
0.016429
0.021722
0.045816
0.024818
0.049173
0.029831
0.044227
0.043716
0.037071
0.067596
0.041986
0.089070
0.024723
0.079547
0.042175
0.080514
0.066144
0.115485
0.132087
0.267227
1.066318
0.000000
0.000000
0.000000
0.000000
0.111303
0.028759
0.099540
0.015379
0.013155
0.042383
0.019229
0.038059
0.022029
0.036967
0.037518
0.043137
0.068233
0.029510
0.076079
0.036555
0.090660
0.024224
0.062940
0.078062
0.081070
0.048448
0.071044
1.289305
0.000000
0.000000
0.000000
0.000000
0.116748
0.036269
0.086149
0.012600
0.010329
0.040937
0.009300
0.040004
0.012315
0.037328
0.032708
0.025457
0.059354
0.031957
0.090937
0.025328
0.081285
0.041285
0.069888
0.058410
0.048474
0.050566
0.098270
1.433130
0.000000
0.000000
0.000000
0.000000
0.104895
0.029548
0.091908
0.015211
0.006713
0.041577
0.017104
0.037375
0.010853
0.029448
0.021152
0.027181
0.056644
0.028367
0.075443
0.018125
0.071991
0.031926
0.058272
0.083618
0.044867
0.015393
0.045791
1.585199
0.000000
0.000000
0.000000
0.000000
0.104108
0.029427
0.083058
0.014602
0.010055
0.037981
0.006579
0.035371
0.009547
0.033598
0.033546
0.039768
0.059395
0.017982
0.065568
0.032736
0.081493
0.040726
0.045732
0.071268
0.030232
0.033458
0.074729
1.637186
0.000000
0.000000
0.000000
0.000000
0.101737
0.030782
0.087087
0.014621
0.007112
0.034714
0.012911
0.035524
0.022501
0.037441
0.033176
0.033315
0.052068
0.036382
0.084711
0.028661
0.067142
0.054389
0.050093
0.073726
0.034294
0.036534
0.038371
1.830305
0.000000
0.000000
0.000000
0.000000
0.102546
0.036123
0.081190
0.017357
0.013046
0.035653
0.020055
0.036492
0.020646
0.028653
0.021332
0.031009
0.059164
0.029144
0.066195
0.034579
0.070735
0.039748
0.022746
0.059246
0.020563
0.065124
0.024381
1.825167
0.000000
0.000000
0.000000
0.000000
0.097107
0.038600
0.079297
0.011145
0.015891
0.030292
0.020438
0.031817
0.022251
0.033385
0.039089
0.029139
0.037718
0.025910
0.055386
0.020572
0.043861
0.045416
0.033437
0.022421
0.008717
0.072274
0.036814
2.013624
0.000000
0.000000
0.000000
0.000000
0.095218
0.038229
0.074972
0.017674
0.019272
0.024293
0.023526
0.029049
0.033517
0.032871
0.035138
0.032112
0.043643
0.030544
0.038723
0.024588
0.026423
0.034855
0.023878
0.030162
0.005297
0.103867
0.034833
1.983481
0.000000
0.000000
0.000000
0.000000
0.093472
0.046954
0.075051
0.015759
0.020141
0.021505
0.026323
0.024833
0.031253
0.030641
0.035177
0.034926
0.037022
0.036132
0.028598
0.037772
0.028935
0.045951
0.033833
0.017402
0.013724
0.092111
0.020810
2.123126
0.000000
0.000000
0.000000
0.000000
0.091544
0.049400
0.071604
0.021179
0.021696
0.017909
0.022544
0.023601
0.029369
0.026536
0.035813
0.032558
0.028735
0.037013
0.022111
0.038709
0.016972
0.047217
0.012253
0.025299
0.008851
0.127172
0.041840
2.057997
0.000000
0.000000
0.000000
0.000000
0.089699
0.053605
0.070902
0.025608
0.021978
0.013296
0.021614
0.020061
0.028274
0.027282
0.025990
0.032070
0.027968
0.036285
0.004322
0.050049
0.026555
0.033572
0.018557
0.030198
0.003447
0.105850
0.052335
2.146461
0.000000
0.000000
0.000000
0.000000
0.090516
0.058409
0.067486
0.024942
0.020491
0.011815
0.016000
0.017306
0.020900
0.022638
0.029174
0.028235
0.011441
0.037331
0.008317
0.042165
0.038245
0.025689
0.011996
0.045490
0.013852
0.135399
0.053587
2.060932
0.000000
0.000000
0.000000
0.000000
0.084315
0.060700
0.067964
0.033585
0.022679
0.011664
0.012859
0.012964
0.021119
0.018439
0.014492
0.025889
0.007331
0.037963
0.028569
0.042527
0.036102
0.016026
0.014513
0.058081
0.020046
0.111854
0.083888
2.044324
0.000000
0.000000
0.000000
0.000000
0.083845
0.063504
0.065134
0.031840
0.020870
0.007942
0.009173
0.012847
0.014649
0.018216
0.017631
0.028351
0.007702
0.036369
0.030156
0.037354
0.043874
0.005444
0.033572
0.067301
0.021692
0.127027
0.078841
1.969496
0.000000
0.000000
0.000000
0.000000
0.081969
0.069362
0.063367
0.033674
0.022661
0.007541
0.006214
0.009605
0.015271
0.020356
0.012950
0.025499
0.014971
0.036655
0.044294
0.018078
0.044978
0.026633
0.032029
0.071207
0.038712
0.114066
0.100673