<?xml version='1.0' encoding='UTF-8'?>
<VTKFile xmlns='VTK' byte_order='LittleEndian' version='0.1' type='UnstructuredGrid'>
<UnstructuredGrid>
<Piece NumberOfCells='2512' NumberOfPoints='2512'>
<Points>
<DataArray NumberOfComponents='3' type='Float32' Name='Position' format='ascii'>
-0.075000 -0.075000 0.000000
-0.075000 -0.050000 0.000000
-0.075000 -0.025000 0.000000
-0.075000 0.000000 0.000000
-0.075000 0.025000 0.000000
-0.075000 0.050000 0.000000
-0.075000 0.075000 0.000000
-0.075000 0.100000 0.000000
-0.075000 0.125000 0.000000
-0.075000 0.150000 0.000000
-0.075000 0.175000 0.000000
-0.075000 0.200000 0.000000
-0.075000 0.225000 0.000000
-0.075000 0.250000 0.000000
-0.075000 0.275000 0.000000
-0.075000 0.300000 0.000000
-0.075000 0.325000 0.000000
-0.075000 0.350000 0.000000
-0.075000 0.375000 0.000000
-0.075000 0.400000 0.000000
-0.075000 0.425000 0.000000
-0.075000 0.450000 0.000000
-0.075000 0.475000 0.000000
-0.075000 0.500000 0.000000
-0.075000 0.525000 0.000000
-0.075000 0.550000 0.000000
-0.075000 0.575000 0.000000
-0.075000 0.600000 0.000000
-0.050000 -0.075000 0.000000
-0.050000 -0.050000 0.000000
-0.050000 -0.025000 0.000000
-0.050000 0.000000 0.000000
-0.050000 0.025000 0.000000
-0.050000 0.050000 0.000000
-0.050000 0.075000 0.000000
-0.050000 0.100000 0.000000
-0.050000 0.125000 0.000000
-0.050000 0.150000 0.000000
-0.050000 0.175000 0.000000
-0.050000 0.200000 0.000000
-0.050000 0.225000 0.000000
-0.050000 0.250000 0.000000
-0.050000 0.275000 0.000000
-0.050000 0.300000 0.000000
-0.050000 0.325000 0.000000
-0.050000 0.350000 0.000000
-0.050000 0.375000 0.000000
-0.050000 0.400000 0.000000
-0.050000 0.425000 0.000000
-0.050000 0.450000 0.000000
-0.050000 0.475000 0.000000
-0.050000 0.500000 0.000000
-0.050000 0.525000 0.000000
-0.050000 0.550000 0.000000
-0.050000 0.575000 0.000000
-0.050000 0.600000 0.000000
-0.025000 -0.075000 0.000000
-0.025000 -0.050000 0.000000
-0.025000 -0.025000 0.000000
-0.025000 0.000000 0.000000
-0.025000 0.025000 0.000000
-0.025000 0.050000 0.000000
-0.025000 0.075000 0.000000
-0.025000 0.100000 0.000000
-0.025000 0.125000 0.000000
-0.025000 0.150000 0.000000
-0.025000 0.175000 0.000000
-0.025000 0.200000 0.000000
-0.025000 0.225000 0.000000
-0.025000 0.250000 0.000000
-0.025000 0.275000 0.000000
-0.025000 0.300000 0.000000
-0.025000 0.325000 0.000000
-0.025000 0.350000 0.000000
-0.025000 0.375000 0.000000
-0.025000 0.400000 0.000000
-0.025000 0.425000 0.000000
-0.025000 0.450000 0.000000
-0.025000 0.475000 0.000000
-0.025000 0.500000 0.000000
-0.025000 0.525000 0.000000
-0.025000 0.550000 0.000000
-0.025000 0.575000 0.000000
-0.025000 0.600000 0.000000
0.000000 -0.075000 0.000000
0.000000 -0.050000 0.000000
0.000000 -0.025000 0.000000
0.000000 0.000000 0.000000
0.000000 0.025000 0.000000
0.000000 0.050000 0.000000
0.000000 0.075000 0.000000
0.000000 0.100000 0.000000
0.000000 0.125000 0.000000
0.000000 0.150000 0.000000
0.000000 0.175000 0.000000
0.000000 0.200000 0.000000
0.000000 0.225000 0.000000
0.000000 0.250000 0.000000
0.000000 0.275000 0.000000
0.000000 0.300000 0.000000
0.000000 0.325000 0.000000
0.000000 0.350000 0.000000
0.000000 0.375000 0.000000
0.000000 0.400000 0.000000
0.000000 0.425000 0.000000
0.000000 0.450000 0.000000
0.000000 0.475000 0.000000
0.000000 0.500000 0.000000
0.000000 0.525000 0.000000
0.000000 0.550000 0.000000
0.000000 0.575000 0.000000
0.000000 0.600000 0.000000
0.025000 -0.075000 0.000000
0.025000 -0.050000 0.000000
0.025000 -0.025000 0.000000
0.025000 0.000000 0.000000
0.024197 0.024882 0.000000
0.027714 0.049656 0.000000
0.023403 0.072754 0.000000
0.027342 0.096526 0.000000
0.026375 0.139409 0.000000
0.022607 0.168095 0.000000
0.025903 0.198324 0.000000
0.023794 0.222213 0.000000
0.021788 0.258866 0.000000
0.028389 0.282050 0.000000
0.025270 0.304833 0.000000
0.024023 0.329039 0.000000
0.026153 0.357591 0.000000
0.024689 0.380541 0.000000
0.026736 0.403014 0.000000
0.024472 0.426991 0.000000
0.021196 0.463649 0.000000
0.025910 0.492451 0.000000
0.023891 0.516541 0.000000
0.038747 0.534135 0.000000
0.025825 0.577169 0.000000
0.036262 0.600000 0.000000
0.053853 0.600000 0.000000
0.014625 0.600000 0.000000
0.845000 0.625000 0.000000
0.845000 0.650000 0.000000
0.845000 0.675000 0.000000
0.050000 -0.075000 0.000000
0.050000 -0.050000 0.000000
0.050000 -0.025000 0.000000
0.050000 0.000000 0.000000
0.049610 0.025638 0.000000
0.049934 0.053937 0.000000
0.052586 0.081194 0.000000
0.026187 0.117962 0.000000
0.041972 0.157523 0.000000
0.046920 0.188236 0.000000
0.048104 0.215275 0.000000
0.041657 0.241660 0.000000
0.051433 0.262393 0.000000
0.055160 0.289537 0.000000
0.051073 0.312983 0.000000
0.043616 0.343987 0.000000
0.054411 0.371389 0.000000
0.053996 0.397117 0.000000
0.051123 0.420886 0.000000
0.039202 0.446238 0.000000
0.047684 0.466662 0.000000
0.047792 0.494207 0.000000
0.058600 0.521982 0.000000
0.066064 0.548089 0.000000
0.023539 0.549686 0.000000
0.066538 0.581769 0.000000
0.101193 0.580009 0.000000
0.075497 0.600000 0.000000
0.870000 0.625000 0.000000
0.870000 0.650000 0.000000
0.870000 0.675000 0.000000
0.075000 -0.075000 0.000000
0.075000 -0.050000 0.000000
0.075000 -0.025000 0.000000
0.075000 0.000000 0.000000
0.093853 0.036162 0.000000
0.072446 0.023983 0.000000
0.059400 0.101464 0.000000
0.056980 0.123585 0.000000
0.065570 0.145467 0.000000
0.065775 0.169850 0.000000
0.073906 0.192332 0.000000
0.072319 0.214874 0.000000
0.068895 0.242572 0.000000
0.073393 0.270593 0.000000
0.080346 0.296641 0.000000
0.065785 0.327636 0.000000
0.071334 0.353060 0.000000
0.076769 0.380094 0.000000
0.076709 0.405373 0.000000
0.091129 0.432174 0.000000
0.068915 0.436360 0.000000
0.069068 0.477860 0.000000
0.074024 0.503382 0.000000
0.085708 0.529803 0.000000
0.085991 0.557371 0.000000
0.047826 0.565772 0.000000
0.094957 0.600000 0.000000
0.114593 0.600000 0.000000
0.895000 0.625000 0.000000
0.895000 0.650000 0.000000
0.895000 0.675000 0.000000
0.100000 -0.075000 0.000000
0.100000 -0.050000 0.000000
0.100000 -0.025000 0.000000
0.100000 0.000000 0.000000
0.111560 0.021512 0.000000
0.074462 0.052332 0.000000
0.087379 0.096298 0.000000
0.081050 0.126086 0.000000
0.094328 0.163218 0.000000
0.121074 0.167350 0.000000
0.097587 0.183066 0.000000
0.089235 0.231757 0.000000
0.099429 0.257005 0.000000
0.099703 0.280749 0.000000
0.091951 0.317200 0.000000
0.093840 0.342153 0.000000
0.096872 0.363715 0.000000
0.110154 0.386240 0.000000
0.100382 0.407171 0.000000
0.115368 0.434493 0.000000
0.081349 0.457700 0.000000
0.097015 0.479192 0.000000
0.119205 0.487271 0.000000
0.097688 0.504346 0.000000
0.105534 0.540544 0.000000
0.117726 0.559759 0.000000
0.136278 0.574366 0.000000
0.132731 0.600000 0.000000
0.920000 0.625000 0.000000
0.920000 0.650000 0.000000
0.920000 0.675000 0.000000
0.125000 -0.075000 0.000000
0.125000 -0.050000 0.000000
0.125000 -0.025000 0.000000
0.125000 0.000000 0.000000
0.133966 0.033155 0.000000
0.104138 0.060528 0.000000
0.075793 0.074322 0.000000
0.106381 0.114678 0.000000
0.100001 0.138168 0.000000
0.125888 0.145932 0.000000
0.120024 0.197508 0.000000
0.106187 0.214650 0.000000
0.118676 0.235359 0.000000
0.121618 0.264293 0.000000
0.113645 0.301695 0.000000
0.136079 0.312498 0.000000
0.117882 0.325714 0.000000
0.125117 0.359783 0.000000
0.135918 0.378961 0.000000
0.126617 0.404656 0.000000
0.138905 0.427865 0.000000
0.110386 0.457555 0.000000
0.140522 0.475745 0.000000
0.133856 0.531104 0.000000
0.147094 0.550044 0.000000
0.168509 0.600000 0.000000
0.189207 0.574721 0.000000
0.150509 0.600000 0.000000
0.945000 0.625000 0.000000
0.945000 0.650000 0.000000
0.945000 0.675000 0.000000
0.150000 -0.075000 0.000000
0.150000 -0.050000 0.000000
0.150000 -0.025000 0.000000
0.150000 0.000000 0.000000
0.158246 0.022019 0.000000
0.127729 0.055604 0.000000
0.107588 0.083241 0.000000
0.147834 0.103073 0.000000
0.127539 0.115746 0.000000
0.147710 0.159400 0.000000
0.142628 0.183162 0.000000
0.140479 0.212252 0.000000
0.141597 0.235715 0.000000
0.147028 0.261262 0.000000
0.136809 0.283317 0.000000
0.160985 0.313833 0.000000
0.137573 0.342433 0.000000
0.157608 0.359941 0.000000
0.151698 0.401509 0.000000
0.160405 0.438532 0.000000
0.138265 0.453299 0.000000
0.162844 0.487133 0.000000
0.122541 0.512857 0.000000
0.146790 0.504212 0.000000
0.162425 0.530078 0.000000
0.162968 0.574371 0.000000
0.206323 0.600000 0.000000
0.187420 0.600000 0.000000
0.970000 0.625000 0.000000
0.970000 0.650000 0.000000
0.970000 0.675000 0.000000
0.175000 -0.075000 0.000000
0.175000 -0.050000 0.000000
0.175000 -0.025000 0.000000
0.175000 0.000000 0.000000
0.181023 0.027781 0.000000
0.150747 0.049420 0.000000
0.129202 0.082972 0.000000
0.172104 0.110159 0.000000
0.152498 0.127913 0.000000
0.165145 0.146866 0.000000
0.176147 0.177053 0.000000
0.163664 0.195697 0.000000
0.165873 0.221264 0.000000
0.169221 0.252587 0.000000
0.161571 0.289110 0.000000
0.185417 0.326583 0.000000
0.164831 0.337100 0.000000
0.178965 0.366423 0.000000
0.169701 0.388690 0.000000
0.176104 0.413727 0.000000
0.169878 0.462261 0.000000
0.186999 0.484761 0.000000
0.176194 0.509989 0.000000
0.192384 0.531873 0.000000
0.175945 0.550490 0.000000
0.206306 0.552638 0.000000
0.216536 0.576187 0.000000
0.225094 0.600000 0.000000
0.995000 0.625000 0.000000
0.995000 0.650000 0.000000
0.995000 0.675000 0.000000
0.200000 -0.075000 0.000000
0.200000 -0.050000 0.000000
0.200000 -0.025000 0.000000
0.200000 0.000000 0.000000
0.207010 0.024601 0.000000
0.167531 0.064491 0.000000
0.157652 0.081586 0.000000
0.190826 0.091728 0.000000
0.187832 0.126527 0.000000
0.190862 0.152538 0.000000
0.191138 0.196970 0.000000
0.205440 0.238370 0.000000
0.182945 0.232735 0.000000
0.178477 0.275120 0.000000
0.188193 0.297679 0.000000
0.207335 0.308913 0.000000
0.200533 0.345468 0.000000
0.205027 0.367617 0.000000
0.192453 0.399757 0.000000
0.205735 0.426076 0.000000
0.184338 0.441030 0.000000
0.200391 0.457694 0.000000
0.205829 0.508859 0.000000
0.229619 0.499070 0.000000
0.218922 0.529465 0.000000
0.233287 0.552894 0.000000
[...]
<PointData>
<DataArray NumberOfComponents='1' type='Int32' Name='ParticleType' format='ascii'>
3
3
3
3
3
3
3
3
3
3
3
3
3
3
3
3
3
3
3
3
3
3
3
3
3
3
3
3
3
3
3
3
3
3
3
3
3
3
3
3
3
3
3
3
3
3
3
3
3
3
3
3
3
3
3
3
3
3
2
2
2
2
2
2
2
2
2
2
2
2
2
2
2
2
2
2
2
2
2
2
2
2
2
2
3
3
2
2
2
2
2
2
2
2
2
2
2
2
2
2
2
2
2
2
2
2
2
2
2
2
2
2
3
3
2
2
0
0
0
0
0
0
0
0
0
0
0
0
0
0
0
0
0
0
0
0
0
0
0
0
1
1
1
3
3
2
2
0
0
0
0
0
0
0
0
0
0
0
0
0
0
0
0
0
0
0
0
0
0
0
0
1
1
1
3
3
2
2
0
0
0
0
0
0
0
0
0
0
0
0
0
0
0
0
0
0
0
0
0
0
0
0
1
1
1
3
3
2
2
0
0
0
0
0
0
0
0
0
0
0
0
0
0
0
0
0
0
0
0
0
0
0
0
1
1
1
3
3
2
2
0
0
0
0
0
0
0
0
0
0
0
0
0
0
0
0
0
0
0
0
0
0
0
0
1
1
1
3
3
2
2
0
0
0
0
0
0
0
0
0
0
0
0
0
0
0
0
0
0
0
0
0
0
0
0
1
1
1
3
3
2
2
0
0
0
0
0
0
0
0
0
0
0
0
0
0
0
0
0
0
0
0
0
0
0
0
1
1
1
3
3
2
2
0
0
0
0
0
0
0
0
0
0
0
0
0
0
0
0
0
0
0
0
0
0
0
0
1
1
1
3
3
2
2
0
0
0
0
0
0
0
0
0
0
0
0
0
0
0
0
0
0
0
0
0
0
0
0
1
1
1
3
3
2
2
0
0
0
0
0
0
0
0
0
0
0
0
0
0
0
0
0
0
0
0
0
0
0
0
1
1
1
3
3
2
2
0
0
0
0
0
0
0
0
0
0
0
0
0
0
0
0
0
0
0
0
0
0
0
0
1
1
1
3
3
2
2
0
0
0
0
0
0
0
0
0
0
0
0
0
0
0
0
0
0
0
0
0
0
0
0
1
1
1
3
3
2
2
0
0
0
0
0
0
0
0
0
0
0
0
0
0
0
0
0
0
0
0
0
0
0
0
1
1
1
3
3
2
2
0
0
0
0
0
0
0
0
0
0
0
0
0
0
0
0
0
0
0
0
0
0
0
0
1
1
1
3
3
2
2
0
0
0
0
0
0
0
0
0
0
0
0
0
0
0
0
0
0
0
0
0
0
0
0
1
1
1
3
3
2
2
0
0
0
0
0
0
0
0
0
0
0
0
0
0
0
0
0
0
0
0
0
0
0
0
1
1
1
3
3
2
2
0
0
0
0
0
0
0
0
0
0
0
0
0
0
0
0
0
0
0
0
0
0
0
0
3
3
2
2
0
0
0
0
0
0
0
0
0
0
0
0
0
0
0
0
0
0
0
0
0
0
0
0
3
3
2
2
0
0
0
0
0
0
0
0
0
0
0
0
0
0
0
0
0
0
0
0
0
0
0
0
3
3
2
2
0
0
0
0
0
0
0
0
0
0
0
0
0
0
0
0
0
0
0
0
0
0
0
0
3
3
2
2
0
0
0
0
0
0
0
0
0
0
0
0
0
0
0
0
0
0
0
0
0
0
0
0
3
3
2
2
0
0
0
0
0
0
0
0
0
0
0
0
0
0
0
0
0
0
0
0
0
0
0
0
3
3
2
2
0
0
0
0
0
0
0
0
0
0
0
0
0
0
0
0
0
0
0
0
0
0
0
0
3
3
2
2
0
0
0
0
0
0
0
0
0
0
0
0
0
0
0
0
0
0
0
0
0
0
0
0
3
3
2
2
0
0
0
0
0
0
0
0
0
0
0
0
0
0
0
0
0
0
0
0
0
0
0
0
3
3
2
2
0
0
0
0
0
0
0
0
0
0
0
0
0
0
0
0
0
0
0
0
0
0
0
0
3
3
2
2
0
0
0
0
0
0
0
0
0
0
0
0
0
0
0
0
0
0
0
0
0
0
0
0
3
3
2
2
0
0
0
0
0
0
0
0
0
0
0
0
0
0
0
0
0
0
0
0
0
0
0
0
3
3
2
2
0
0
0
0
0
0
0
0
0
0
0
0
0
0
0
0
0
0
0
0
0
0
0
0
3
3
2
2
0
0
0
0
0
0
0
0
0
0
0
0
0
0
0
0
0
0
0
0
0
0
0
0
3
3
2
2
0
0
0
0
0
0
0
0
0
0
0
0
0
0
0
0
0
0
0
0
0
0
0
0
3
3
2
2
0
0
0
0
0
0
0
0
0
0
0
0
0
0
0
0
0
0
0
0
0
0
0
0
3
3
2
2
0
0
0
0
0
0
0
0
0
0
0
0
0
0
0
0
0
0
0
0
0
0
0
0
3
3
2
2
0
0
0
0
0
0
0
0
0
0
0
0
0
0
0
0
0
0
0
0
0
0
0
0
3
3
2
2
0
0
0
0
0
0
0
0
0
0
0
0
0
0
0
0
0
0
0
0
0
0
0
0
3
3
2
2
0
0
0
0
0
0
0
0
0
0
0
0
0
0
0
0
0
0
0
0
0
0
0
0
3
3
2
2
0
0
0
0
0
0
0
0
0
0
0
0
0
0
0
0
0
0
0
0
0
0
0
0
3
3
2
2
0
0
0
0
0
0
0
0
0
0
0
0
0
0
0
0
0
0
0
0
0
0
0
0
3
3
2
2
0
0
0
0
0
0
0
0
0
0
0
0
0
0
0
0
0
0
0
0
0
0
0
0
3
3
2
2
0
0
0
0
0
0
0
0
0
0
0
0
0
0
0
0
0
0
0
0
0
0
0
0
3
3
2
2
0
0
0
0
0
0
0
0
0
0
0
0
0
0
0
0
0
0
0
0
0
0
0
0
3
3
2
2
0
0
0
0
0
0
0
0
0
0
0
0
0
0
0
0
0
0
0
0
0
0
0
0
3
3
2
2
0
0
0
0
0
0
0
0
0
0
0
0
0
0
0
0
0
0
0
0
0
0
0
0
3
3
2
2
0
0
0
0
0
0
0
0
0
0
0
0
0
0
0
0
0
0
0
0
0
0
0
0
3
3
2
2
0
0
0
0
0
0
0
0
0
0
0
0
0
0
0
0
0
0
0
0
0
0
0
0
3
3
2
2
0
0
0
0
0
0
0
0
0
0
0
0
0
0
0
0
0
0
0
0
0
0
0
0
3
3
2
2
0
0
0
0
0
0
0
0
0
0
0
0
0
0
0
0
0
0
0
0
0
0
0
0
3
3
2
2
0
0
0
0
0
0
0
0
0
0
0
0
0
0
0
0
0
0
0
0
0
0
0
0
3
3
2
2
0
0
0
0
0
0
0
0
0
0
0
0
0
0
0
0
0
0
0
0
0
0
0
0
3
3
2
2
0
0
0
0
0
0
0
0
0
0
0
0
0
0
0
0
0
0
0
0
0
0
0
0
3
3
2
2
0
0
0
0
0
0
0
0
0
0
0
0
0
0
0
0
0
0
0
0
0
0
0
0
3
3
2
2
0
0
0
0
0
0
0
0
0
0
0
0
0
0
0
0
0
0
0
0
0
0
0
0
3
3
2
2
0
0
0
0
0
0
0
0
0
0
0
0
0
0
0
0
0
0
0
0
0
0
0
0
3
3
2
2
0
0
0
0
0
0
0
0
0
0
0
0
0
0
0
0
0
0
0
0
0
0
0
0
3
3
2
2
0
0
0
0
0
0
0
0
0
0
0
0
0
0
0
0
0
0
0
0
0
0
0
0
3
3
2
2
0
0
0
0
0
0
0
0
0
0
0
0
0
0
0
0
0
0
0
0
0
0
0
0
3
3
2
2
0
0
0
0
0
0
0
0
0
0
0
0
0
0
0
0
0
0
0
0
0
0
0
0
3
3
2
2
0
0
0
0
0
0
0
0
0
0
0
0
0
0
0
0
0
0
0
0
0
0
0
0
3
3
2
2
0
0
0
0
0
0
0
0
0
0
0
0
0
0
0
0
0
0
0
0
0
0
0
0
3
3
2
2
0
0
0
0
0
0
0
0
0
0
0
0
0
0
0
0
0
0
0
0
0
0
0
0
3
3
2
2
0
0
0
0
0
0
0
0
0
0
0
0
0
0
0
0
0
0
0
0
0
0
0
0
3
3
2
2
0
0
0
0
0
0
0
0
0
0
0
0
0
0
0
0
0
0
0
0
0
0
0
0
3
3
2
2
0
0
0
0
0
0
0
0
0
0
0
0
0
0
0
0
0
0
0
0
0
0
0
0
3
3
2
2
0
0
0
0
0
0
0
0
0
0
0
0
0
0
0
0
0
0
0
0
0
0
0
0
3
3
2
2
0
0
0
0
0
0
0
0
0
0
0
0
0
0
0
0
0
0
0
0
0
0
0
0
3
3
2
2
0
0
0
0
0
0
0
0
0
0
0
0
0
0
0
0
0
0
0
0
0
0
0
0
3
3
2
2
0
0
0
0
0
0
0
0
0
0
0
0
0
0
0
0
0
0
0
0
0
0
0
0
3
3
2
2
0
0
0
0
0
0
0
0
0
0
0
0
0
0
0
0
0
0
0
0
0
0
0
0
3
3
2
2
0
0
0
0
0
0
0
0
0
0
0
0
0
0
0
0
0
0
0
0
0
0
0
0
3
3
2
2
0
0
0
0
0
0
0
0
0
0
0
0
0
0
0
0
0
0
0
0
0
0
0
0
3
3
2
2
0
0
0
0
0
0
0
0
0
0
0
0
0
0
0
0
0
0
0
0
0
0
0
0
3
3
2
2
0
0
0
0
0
0
0
0
0
0
0
0
0
0
0
0
0
0
0
0
0
0
0
0
3
3
2
2
0
0
0
0
0
0
0
0
0
0
0
0
0
0
0
0
0
0
0
0
0
0
0
0
3
3
2
2
0
0
0
0
0
0
0
0
0
0
0
0
0
0
0
0
0
0
0
0
0
0
0
0
3
3
2
2
0
0
0
0
0
0
0
0
0
0
0
0
0
0
0
0
0
0
0
0
0
0
0
0
3
3
2
2
0
0
0
0
0
0
0
0
0
0
0
0
0
0
0
0
0
0
0
0
0
0
0
0
3
3
2
2
0
0
0
0
0
0
0
0
0
0
0
0
0
0
0
0
0
0
0
0
0
0
0
0
3
3
2
2
0
0
0
0
0
0
0
0
0
0
0
0
0
0
0
0
0
0
0
0
0
0
0
0
3
3
2
2
0
0
0
0
0
0
0
0
0
0
0
0
0
0
0
0
0
0
0
0
0
0
0
0
3
3
2
2
0
0
0
0
0
0
0
0
0
0
0
0
0
0
0
0
0
0
0
0
0
0
0
0
3
3
2
2
2
2
2
2
2
2
2
2
2
2
2
2
2
2
2
2
2
2
2
2
2
2
2
2
3
3
2
2
2
2
2
2
2
2
2
2
2
2
2
2
2
2
2
2
2
2
2
2
2
2
2
2
3
3
3
3
3
3
3
3
3
3
3
3
3
3
3
3
3
3
3
3
3
3
3
3
3
3
3
3
3
3
3
3
3
3
3
3
3
3
3
3
3
3
3
3
3
3
3
3
3
3
3
3
3
3
3
3
</DataArray>
<DataArray NumberOfComponents='1' type='Float32' Name='Velocity' format='ascii'>
0.000000
0.000000
0.000000
0.000000
0.000000
0.000000
0.000000
0.000000
0.000000
0.000000
0.000000
0.000000
0.000000
0.000000
0.000000
0.000000
0.000000
0.000000
0.000000
0.000000
0.000000
0.000000
0.000000
0.000000
0.000000
0.000000
0.000000
0.000000
0.000000
0.000000
0.000000
0.000000
0.000000
0.000000
0.000000
0.000000
0.000000
0.000000
0.000000
0.000000
0.000000
0.000000
0.000000
0.000000
0.000000
0.000000
0.000000
0.000000
0.000000
0.000000
0.000000
0.000000
0.000000
0.000000
0.000000
0.000000
0.000000
0.000000
0.000000
0.000000
0.000000
0.000000
0.000000
0.000000
0.000000
0.000000
0.000000
0.000000
0.000000
0.000000
0.000000
0.000000
0.000000
0.000000
0.000000
0.000000
0.000000
0.000000
0.000000
0.000000
0.000000
0.000000
0.000000
0.000000
0.000000
0.000000
0.000000
0.000000
0.000000
0.000000
0.000000
0.000000
0.000000
0.000000
0.000000
0.000000
0.000000
0.000000
0.000000
0.000000
0.000000
0.000000
0.000000
0.000000
0.000000
0.000000
0.000000
0.000000
0.000000
0.000000
0.000000
0.000000
0.000000
0.000000
0.000000
0.000000
0.083241
0.114079
0.141446
0.079974
0.247615
0.083996
0.033645
0.117642
0.158296
0.200202
0.190290
0.095689
0.306953
0.278290
0.220972
0.276080
0.258730
0.322242
0.296955
0.092641
0.149565
69.347069
46.552940
68.407753
1.000000
1.000000
1.000000
0.000000
0.000000
0.000000
0.000000
0.124648
0.278118
0.258874
0.121297
0.104497
0.190973
0.060727
0.207712
0.130889
0.255816
0.323486
0.255306
0.114953
0.110934
0.160585
0.190514
0.168833
0.155947
0.486271
0.319821
0.253367
0.328075
0.625606
46.899689
1.000000
1.000000
1.000000
0.000000
0.000000
0.000000
0.000000
0.128083
0.101751
0.370320
0.282816
0.232739
0.234645
0.101064
0.124152
0.148220
0.107061
0.194658
0.252358
0.104262
0.090153
0.127452
0.222175
0.144898
0.204855
0.162165
0.343119
0.912485
0.379672
35.487080
35.555279
1.000000
1.000000
1.000000
0.000000
0.000000
0.000000
0.000000
0.058190
0.035337
0.075796
0.060977
0.169110
0.070702
0.025549
0.237896
0.404322
0.258694
0.180949
0.072699
0.251122
0.214254
0.206052
0.343766
0.080248
0.283972
0.173062
0.269976
0.444657
0.119093
0.344243
45.347328
1.000000
1.000000
1.000000
0.000000
0.000000
0.000000
0.000000
0.214872
0.126112
0.308835
0.147112
0.193765
0.122034
0.180486
0.181065
0.229520
0.099765
0.083455
0.043515
0.055664
0.163821
0.031096
0.218081
0.132896
0.211869
0.221703
0.081585
0.399085
24.069359
0.340022
45.923546
1.000000
1.000000
1.000000
0.000000
0.000000
0.000000
0.000000
0.152703
0.289634
0.292836
0.075958
0.265997
0.130886
0.211647
0.129179
0.119646
0.186429
0.146472
0.130999
0.141753
0.135663
0.124686
0.135568
0.122946
0.368191
0.053521
0.089137
0.329174
0.318397
50.346973
48.478786
1.000000
1.000000
1.000000
0.000000
0.000000
0.000000
0.000000
0.079057
0.234839
0.133480
0.100960
0.424693
0.294403
0.416637
0.230495
0.310201
0.417194
0.170973
0.288448
0.168566
0.117323
0.054612
0.384754
0.079626
0.216661
0.142976
0.235513
0.624529
0.038953
0.423010
42.717655
1.000000
1.000000
1.000000
0.000000
0.000000
0.000000
0.000000
0.109630
0.090222
0.364515
0.168121
0.218911
0.018282
0.245087
0.217465
0.111509
0.113604
0.204421
0.108379
0.162493
0.248062
0.363097
0.216605
0.176056
0.113910
0.280247
0.222319
0.251708
0.274645
0.212060
41.806026
1.000000
1.000000
1.000000
0.000000
0.000000
0.000000
0.000000
0.119124
0.094195
0.103200
0.246990
0.111876
0.257259
0.276953
0.176803
0.207026
0.274218
0.206893
0.150327
0.236794
0.075776
0.059662
0.455452
0.325052
0.162462
0.046142
0.151217
0.295735
0.149535
0.338356
42.420101
1.000000
1.000000
1.000000
0.000000
0.000000
0.000000
0.000000
0.094899
0.051982
0.143680
0.036062
0.122631
0.239381
0.185276
0.136520
0.101569
0.103625
0.190615
0.124249
0.236631
0.146536
0.097336
0.309346
0.356640
0.227183
0.120777
0.257716
0.273356
0.194873
30.510664
36.599308
1.000000
1.000000
1.000000
0.000000
0.000000
0.000000
0.000000
0.114728
0.101094
0.160146
0.210408
0.088851
0.085895
0.131562
0.060945
0.089270
0.179438
0.077770
0.130506
0.223233
0.011308
0.097539
0.136483
0.092695
0.167966
0.120095
0.337971
0.308766
0.395425
0.117398
31.968731
1.000000
1.000000
1.000000
0.000000
0.000000
0.000000
0.000000
0.115131
0.115316
0.054198
0.099849
0.059554
0.133320
0.182996
0.100551
0.146824
0.145399
0.134363
0.107373
0.091759
0.162939
0.236387
0.128491
0.184441
0.125179
0.021399
0.342084
0.104356
0.311113
36.801537
38.909256
1.000000
1.000000
1.000000
0.000000
0.000000
0.000000
0.000000
0.118542
0.103260
0.190029
0.061743
0.177790
0.152686
0.210185
0.054855
0.086835
0.098971
0.107700
0.080714
0.225304
0.131615
0.107972
0.100161
0.090733
0.166841
0.384458
0.111390
0.206484
0.048300
0.153908
36.158703
1.000000
1.000000
1.000000
0.000000
0.000000
0.000000
0.000000
0.025566
0.148446
0.177656
0.110026
0.010838
0.148782
0.140087
0.039536
0.208869
0.172286
0.040592
0.088192
0.032495
0.113023
0.190866
0.120175
0.121472
0.165573
0.099388
0.078318
0.199505
0.246927
0.061775
33.269295
1.000000
1.000000
1.000000
0.000000
0.000000
0.000000
0.000000
0.037695
0.101211
0.076308
0.061405
0.226093
0.090564
0.028595
0.161876
0.152983
0.155959
0.072015
0.167462
0.120438
0.178931
0.097382
0.183279
0.207424
0.133974
0.192285
0.093716
0.102423
0.145971
29.296980
39.168224
1.000000
1.000000
1.000000
0.000000
0.000000
0.000000
0.000000
0.033052
0.144090
0.180848
0.122803
0.111959
0.054469
0.029976
0.094588
0.107190
0.043769
0.072752
0.098477
0.124609
0.091275
0.137090
0.049501
0.306290
0.163643
0.111680
0.028235
0.204488
0.191160
0.363509
39.570095
1.000000
1.000000
1.000000
0.000000
0.000000
0.000000
0.000000
0.019675
0.054768
0.082613
0.022333
0.150331
0.071082
0.062645
0.145406
0.166681
0.074622
0.170650
0.043168
0.047485
0.065162
0.172656
0.194137
0.079735
0.079775
0.230664
0.310713
0.419120
0.457959
0.302291
42.734962
0.000000
0.000000
0.000000
0.000000
0.067151
0.228769
0.052169
0.032266
0.253290
0.023994
0.031937
0.151417
0.096269
0.077196
0.166221
0.091951
0.172180
0.157029
0.177090
0.111047
0.206666
0.239092
0.292480
0.341604
0.169204
0.604252
0.233374
43.810631
0.000000
0.000000
0.000000
0.000000
0.075223
0.114727
0.096466
0.141913
0.088303
0.113250
0.016426
0.033634
0.263662
0.133652
0.044566
0.106707
0.092923
0.166624
0.137737
0.081805
0.095512
0.073516
0.256012
0.418008
0.234779
0.756978
0.492202
38.140747
0.000000
0.000000
0.000000
0.000000
0.069028
0.175399
0.049881
0.159912
0.080523
0.030100
0.207256
0.142132
0.070416
0.153372
0.068665
0.058692
0.067947
0.095522
0.045117
0.092378
0.127899
0.021579
0.413567
0.199519
0.848441
0.140804
37.062042
51.749264
0.000000
0.000000
0.000000
0.000000
0.084592
0.101213
0.204372
0.072285
0.095386
0.131803
0.089856
0.099973
0.098382
0.105268
0.081301
0.043997
0.051279
0.044284
0.114648
0.154769
0.158209
0.312167
0.127294
0.065767
0.565404
0.832090
35.839291
44.844944
0.000000
0.000000
0.000000
0.000000
0.140763
0.138690
0.151299
0.150341
0.118013
0.104654
0.100605
0.264763
0.035705
0.022136
0.117843
0.225982
0.186604
0.020272
0.148459
0.041255
0.207896
0.114641
0.124058
0.175836
0.254545
0.461131
0.622735
45.369221
0.000000
0.000000
0.000000
0.000000
0.109578
0.134306
0.160497
0.093330
0.136404
0.086549
0.034069
0.056522
0.009726
0.093254
0.071281
0.110098
0.078347
0.015381
0.030283
0.154239
0.057655
0.039721
0.082250
0.334503
0.380016
0.255144
47.313892
32.865875
0.000000
0.000000
0.000000
0.000000
0.087008
0.064023
0.052916
0.065703
0.061879
0.125171
0.097806
0.037008
0.199336
0.085456
0.091813
0.100094
0.139293
0.057420
0.134072
0.290297
0.165942
0.192822
0.240749
0.366456
0.111910
0.085156
0.217482
30.927475
0.000000
0.000000
0.000000
0.000000
0.128052
0.042655
0.058588
0.071204
0.074191
0.058707
0.091231
0.098340
0.039370
0.064208
0.022116
0.168991
0.051724
0.153812
0.161758
0.202041
0.048435
0.105916
0.121155
0.302003
0.219558
0.323699
0.472699
40.699432
0.000000
0.000000
0.000000
0.000000
0.092994
0.044293
0.049371
0.122907
0.095417
0.064211
0.085281
0.093500
0.066385
0.127123
0.134917
0.122041
0.058501
0.046061
0.157039
0.085630
0.166623
0.046268
0.072082
0.239757
0.426129
0.398067
0.081269
53.626064
0.000000
0.000000
0.000000
0.000000
0.111248
0.055101
0.061256
0.091997
0.145425
0.094512
0.036818
0.027044
0.055224
0.135717
0.067822
0.034514
0.113547
0.128001
0.191584
0.038048
0.100645
0.195792
0.159297
0.073530
0.045151
0.145454
0.310386
54.636372
0.000000
0.000000
0.000000
0.000000
0.048005
0.043888
0.043801
0.017806
0.091900
0.038032
0.143951
0.089059
0.068299
0.118322
0.176391
0.017952
0.129888
0.048112
0.015424
0.121872
0.185164
0.151121
0.128911
0.141790
0.168723
0.122888
0.280393
39.058311
0.000000
0.000000
0.000000
0.000000
0.021029
0.093715
0.075273
0.171623
0.081202
0.165454
0.098534
0.058538
0.160580
0.062420
0.059017
0.036387
0.049645
0.058176
0.160324
0.099814
0.204082
0.097418
0.084338
0.286389
0.152520
0.214267
0.201748
43.848190
0.000000
0.000000
0.000000
0.000000
0.029843
0.107896
0.073775
0.035249
0.104905
0.086166
0.063890
0.091205
0.088528
0.116763
0.125489
0.065776
0.083648
0.129812
0.117546
0.058042
0.158868
0.197098
0.187566
0.159003
0.224390
0.424605
0.848509
35.042377
0.000000
0.000000
0.000000
0.000000
0.042547
0.056417
0.030175
0.045724
0.056147
0.179957
0.092065
0.099442
0.105099
0.106932
0.071250
0.051014
0.101478
0.071503
0.088845
0.070563
0.178146
0.050985
0.151735
0.110285
0.233817
0.301009
0.718915
32.895420
0.000000
0.000000
0.000000
0.000000
0.059346
0.087607
0.025976
0.064159
0.099625
0.019150
0.043119
0.026821
0.105832
0.084958
0.090164
0.034874
0.174190
0.008434
0.224855
0.060381
0.177454
0.176114
0.107961
0.148081
0.376302
0.234716
0.447528
35.656933
0.000000
0.000000
0.000000
0.000000
0.098595
0.100615
0.038291
0.060761
0.131621
0.211057
0.066819
0.057171
0.115096
0.048900
0.145826
0.050342
0.098917
0.101729
0.101794
0.129669
0.029264
0.236532
0.137040
0.117987
0.110800
0.151713
0.199982
17.618980
0.000000
0.000000
0.000000
0.000000
0.043463
0.033914
0.081001
0.064986
0.093105
0.121430
0.039855
0.064038
0.049347
0.071620
0.095924
0.038240
0.107668
0.038056
0.110806
0.091392
0.096220
0.144812
0.050725
0.042833
0.341736
0.173014
0.339595
12.348533
0.000000
0.000000
0.000000
0.000000
0.094551
0.071320
0.099054
0.047085
0.073941
0.115684
0.058290
0.046956
0.046788
0.063536
0.109592
0.074042
0.131037
0.047833
0.202416
0.122300
0.155582
0.112364
0.128147
0.166805
0.326479
0.115036
0.168717
8.137153
0.000000
0.000000
0.000000
0.000000
0.033979
0.035794
0.050354
0.062109
0.044967
0.120667
0.068244
0.064919
0.053924
0.060620
0.148525
0.054911
0.114671
0.053852
0.098837
0.112929
0.106542
0.041456
0.172931
0.247341
0.295872
0.202703
0.068463
9.939275
0.000000
0.000000
0.000000
0.000000
0.040469
0.030993
0.011697
0.057402
0.029708
0.108251
0.031254
0.073270
0.023860
0.110077
0.113914
0.049907
0.120732
0.041609
0.129979
0.052783
0.117189
0.140899
0.032755
0.176163
0.089748
0.247553
0.231449
5.679593
0.000000
0.000000
0.000000
0.000000
0.031475
0.044028
0.049667
0.024701
0.082403
0.096836
0.109331
0.071893
0.023803
0.037173
0.070247
0.072827
0.082261
0.029664
0.199478
0.077282
0.183312
0.174782
0.126118
0.270025
0.269750
0.179342
0.521731
9.882860
0.000000
0.000000
0.000000
0.000000
0.022486
0.057412
0.053315
0.031469
0.057860
0.127311
0.025989
0.076072
0.060407
0.047922
0.108508
0.024421
0.104459
0.032230
0.071896
0.047524
0.115105
0.132769
0.151763
0.182430
0.157760
0.101464
0.160474
6.277058
0.000000
0.000000
0.000000
0.000000
0.061197
0.069755
0.009583
0.036599
0.096201
0.115580
0.124157
0.027941
0.073062
0.097684
0.065271
0.107919
0.066879
0.058433
0.186494
0.114542
0.043794
0.160435
0.114168
0.280598
0.312746
0.167694
0.628943
8.709285
0.000000
0.000000
0.000000
0.000000
0.018430
0.081346
0.088804
0.022645
0.045894
0.173450
0.085182
0.099989
0.038763
0.063439
0.025139
0.043620
0.069396
0.047037
0.126167
0.089650
0.149301
0.190069
0.231212
0.076844
0.232684
0.289014
0.133414
10.033016
0.000000
0.000000
0.000000
0.000000
0.035999
0.020326
0.059139
0.063795
0.121300
0.034296
0.167675
0.053270
0.072231
0.070766
0.161368
0.088955
0.097546
0.090832
0.049614
0.092596
0.213476
0.227866
0.159708
0.181699
0.234529
0.216526
0.054683
12.132494
0.000000
0.000000
0.000000
0.000000
0.041345
0.090647
0.081334
0.070306
0.083493
0.007434
0.004489
0.129853
0.071061
0.153612
0.104009
0.094307
0.071417
0.061566
0.240553
0.046934
0.041175
0.189528
0.175395
0.192064
0.009765
0.160016
0.491806
21.866096
0.000000
0.000000
0.000000
0.000000
0.018111
0.031434
0.103019
0.180401
0.110385
0.071722
0.082722
0.117005
0.146981
0.117007
0.057328
0.119949
0.004842
0.039519
0.053166
0.063253
0.308179
0.248565
0.182744
0.305749
0.153619
0.155309
0.133461
23.655190
0.000000
0.000000
0.000000
0.000000
0.043793
0.050343
0.055795
0.131964
0.108566
0.131469
0.069294
0.052893
0.103253
0.137336
0.042996
0.066191
0.096637
0.081185
0.102861
0.077779
0.208862
0.137071
0.247370
0.112014
0.181225
0.251479
14.588593
30.089962
0.000000
0.000000
0.000000
0.000000
0.015218
0.061304
0.033327
0.162529
0.052273
0.062427
0.064470
0.061856
0.057306
0.106324
0.092575
0.080700
0.091301
0.077775
0.049116
0.261469
0.091343
0.148817
0.017321
0.180467
0.293013
0.187528
0.118445
37.810448
0.000000
0.000000
0.000000
0.000000
0.054162
0.036761
0.040850
0.053875
0.131927
0.038565
0.066417
0.024814
0.056367
0.115870
0.065774
0.073953
0.196655
0.137750
0.159260
0.186435
0.138298
0.040940
0.194934
0.322750
0.259549
0.057171
0.091967
45.118202
0.000000
0.000000
0.000000
0.000000
0.014330
0.013766
0.053927
0.078031
0.111207
0.017932
0.069863
0.112107
0.090495
0.022722
0.137270
0.079720
0.202393
0.123257
0.221004
0.112758
0.089341
0.129176
0.155801
0.161381
0.338386
0.154409
0.386022
44.945465
0.000000
0.000000
0.000000
0.000000
0.018911
0.058728
0.025356
0.067781
0.050805
0.252507
0.131147
0.135045
0.079006
0.101220
0.072950
0.123649
0.231220
0.112385
0.199674
0.181164
0.218599
0.130542
0.116659
0.115712
0.275506
0.448437
46.526890
50.506065
0.000000
0.000000
0.000000
0.000000
0.020134
0.044450
0.070292
0.036102
0.085165
0.132741
0.075548
0.228235
0.080942
0.086043
0.064489
0.045707
0.149759
0.181855
0.084366
0.196989
0.119285
0.058353
0.283711
0.216217
0.356017
0.293139
0.127592
52.818272
0.000000
0.000000
0.000000
0.000000
0.046006
0.037327
0.136521
0.134356
0.158248
0.164615
0.187347
0.185933
0.121369
0.066104
0.148484
0.135510
0.182904
0.078562
0.206305
0.066316
0.163495
0.192378
0.148546
0.087887
0.094693
0.301431
32.664444
48.181438
0.000000
0.000000
0.000000
0.000000
0.043760
0.074185
0.094042
0.210002
0.075836
0.126988
0.235742
0.063619
0.020634
0.064387
0.059351
0.159968
0.116837
0.271603
0.119183
0.175508
0.217929
0.078444
0.218609
0.233011
0.270941
0.164217
0.497386
47.204781
0.000000
0.000000
0.000000
0.000000
0.045859
0.098455
0.077423
0.056293
0.053338
0.103078
0.056093
0.064562
0.142649
0.118113
0.092611
0.056387
0.061447
0.174294
0.135667
0.132693