<?xml version='1.0' encoding='UTF-8'?>
<VTKFile xmlns='VTK' byte_order='LittleEndian' version='0.1' type='UnstructuredGrid'>
<UnstructuredGrid>
<Piece NumberOfCells='2512' NumberOfPoints='2512'>
<Points>
<DataArray NumberOfComponents='3' type='Float32' Name='Position' format='ascii'>
-0.075000 -0.075000 0.000000
-0.075000 -0.050000 0.000000
-0.075000 -0.025000 0.000000
-0.075000 0.000000 0.000000
-0.075000 0.025000 0.000000
-0.075000 0.050000 0.000000
-0.075000 0.075000 0.000000
-0.075000 0.100000 0.000000
-0.075000 0.125000 0.000000
-0.075000 0.150000 0.000000
-0.075000 0.175000 0.000000
-0.075000 0.200000 0.000000
-0.075000 0.225000 0.000000
-0.075000 0.250000 0.000000
-0.075000 0.275000 0.000000
-0.075000 0.300000 0.000000
-0.075000 0.325000 0.000000
-0.075000 0.350000 0.000000
-0.075000 0.375000 0.000000
-0.075000 0.400000 0.000000
-0.075000 0.425000 0.000000
-0.075000 0.450000 0.000000
-0.075000 0.475000 0.000000
-0.075000 0.500000 0.000000
-0.075000 0.525000 0.000000
-0.075000 0.550000 0.000000
-0.075000 0.575000 0.000000
-0.075000 0.600000 0.000000
-0.050000 -0.075000 0.000000
-0.050000 -0.050000 0.000000
-0.050000 -0.025000 0.000000
-0.050000 0.000000 0.000000
-0.050000 0.025000 0.000000
-0.050000 0.050000 0.000000
-0.050000 0.075000 0.000000
-0.050000 0.100000 0.000000
-0.050000 0.125000 0.000000
-0.050000 0.150000 0.000000
-0.050000 0.175000 0.000000
-0.050000 0.200000 0.000000
-0.050000 0.225000 0.000000
-0.050000 0.250000 0.000000
-0.050000 0.275000 0.000000
-0.050000 0.300000 0.000000
-0.050000 0.325000 0.000000
-0.050000 0.350000 0.000000
-0.050000 0.375000 0.000000
-0.050000 0.400000 0.000000
-0.050000 0.425000 0.000000
-0.050000 0.450000 0.000000
-0.050000 0.475000 0.000000
-0.050000 0.500000 0.000000
-0.050000 0.525000 0.000000
-0.050000 0.550000 0.000000
-0.050000 0.575000 0.000000
-0.050000 0.600000 0.000000
-0.025000 -0.075000 0.000000
-0.025000 -0.050000 0.000000
-0.025000 -0.025000 0.000000
-0.025000 0.000000 0.000000
-0.025000 0.025000 0.000000
-0.025000 0.050000 0.000000
-0.025000 0.075000 0.000000
-0.025000 0.100000 0.000000
-0.025000 0.125000 0.000000
-0.025000 0.150000 0.000000
-0.025000 0.175000 0.000000
-0.025000 0.200000 0.000000
-0.025000 0.225000 0.000000
-0.025000 0.250000 0.000000
-0.025000 0.275000 0.000000
-0.025000 0.300000 0.000000
-0.025000 0.325000 0.000000
-0.025000 0.350000 0.000000
-0.025000 0.375000 0.000000
-0.025000 0.400000 0.000000
-0.025000 0.425000 0.000000
-0.025000 0.450000 0.000000
-0.025000 0.475000 0.000000
-0.025000 0.500000 0.000000
-0.025000 0.525000 0.000000
-0.025000 0.550000 0.000000
-0.025000 0.575000 0.000000
-0.025000 0.600000 0.000000
0.000000 -0.075000 0.000000
0.000000 -0.050000 0.000000
0.000000 -0.025000 0.000000
0.000000 0.000000 0.000000
0.000000 0.025000 0.000000
0.000000 0.050000 0.000000
0.000000 0.075000 0.000000
0.000000 0.100000 0.000000
0.000000 0.125000 0.000000
0.000000 0.150000 0.000000
0.000000 0.175000 0.000000
0.000000 0.200000 0.000000
0.000000 0.225000 0.000000
0.000000 0.250000 0.000000
0.000000 0.275000 0.000000
0.000000 0.300000 0.000000
0.000000 0.325000 0.000000
0.000000 0.350000 0.000000
0.000000 0.375000 0.000000
0.000000 0.400000 0.000000
0.000000 0.425000 0.000000
0.000000 0.450000 0.000000
0.000000 0.475000 0.000000
0.000000 0.500000 0.000000
0.000000 0.525000 0.000000
0.000000 0.550000 0.000000
0.000000 0.575000 0.000000
0.000000 0.600000 0.000000
0.025000 -0.075000 0.000000
0.025000 -0.050000 0.000000
0.025000 -0.025000 0.000000
0.025000 0.000000 0.000000
-3119.014453 0.600000 0.000000
79.849194 -137.916842 0.000000
-26.959730 -46.668439 0.000000
19.269153 -45.632373 0.000000
0.163464 0.021933 0.000000
-70564079.431431 0.600000 0.000000
11.765958 -85.278556 0.000000
34.411849 -63.202278 0.000000
-51.070265 -10.204898 0.000000
12.508976 -373.134900 0.000000
624.110352 -2157.231597 0.000000
41.187955 -274.418697 0.000000
57192.932332 0.600000 0.000000
-20992.625207 0.600000 0.000000
-100.145683 0.600000 0.000000
-314.217943 -604.236590 0.000000
-90.477280 -89.876074 0.000000
786.231667 -1097.362224 0.000000
80.842594 -94.361264 0.000000
-1259.030959 0.600000 0.000000
322.725523 -689.974964 0.000000
-828.862279 0.600000 0.000000
-1915.073192 0.600000 0.000000
62785477.386663 0.600000 0.000000
1.755000 0.625000 0.000000
1.755000 0.650000 0.000000
1.755000 0.675000 0.000000
0.050000 -0.075000 0.000000
0.050000 -0.050000 0.000000
0.050000 -0.025000 0.000000
0.050000 0.000000 0.000000
-102.898669 0.600000 0.000000
-92.600689 -29.575437 0.000000
1356.023226 0.600000 0.000000
70.958547 0.600000 0.000000
3932.532478 0.600000 0.000000
-25.340503 -19.409280 0.000000
-23.532181 -47.619702 0.000000
-7.971163 0.173737 0.000000
-16901.573895 -31478.423370 0.000000
16416.901803 0.600000 0.000000
7.302390 -95.666651 0.000000
81.807533 -79.184547 0.000000
-211.796109 -83.349155 0.000000
2209.647796 0.425480 0.000000
17342.124509 0.600000 0.000000
-825.193737 0.600000 0.000000
-100.059602 -50.758024 0.000000
-308.454766 0.600000 0.000000
1582.553667 0.600000 0.000000
-221.225431 -292.933603 0.000000
1087.030859 0.600000 0.000000
20844.607925 -4348.168726 0.000000
206.282391 -848.504192 0.000000
2246.996291 0.600000 0.000000
1.780000 0.625000 0.000000
1.780000 0.650000 0.000000
1.780000 0.675000 0.000000
0.075000 -0.075000 0.000000
0.075000 -0.050000 0.000000
0.075000 -0.025000 0.000000
0.075000 0.000000 0.000000
-69.237180 -70.439670 0.000000
26013.974185 0.600000 0.000000
23.221607 0.600000 0.000000
-3367.501516 0.600000 0.000000
-54.760145 -39.518483 0.000000
199.828004 0.600000 0.000000
36.283134 -174.192206 0.000000
3956.702959 0.600000 0.000000
766.183342 0.600000 0.000000
39.959454 -474.756978 0.000000
128.798818 -127.988344 0.000000
-1412.988460 0.600000 0.000000
-660.267642 0.600000 0.000000
981.668816 -650.551727 0.000000
710.288465 0.600000 0.000000
25.411823 -2.790442 0.000000
3947.846512 -1570.835815 0.000000
0.556744 0.034131 0.000000
269.539625 -213.403139 0.000000
64.258472 -92.733016 0.000000
5176.919156 0.600000 0.000000
-94.261131 -260.251934 0.000000
-7249.786370 0.600000 0.000000
-1620.684919 0.600000 0.000000
1.805000 0.625000 0.000000
1.805000 0.650000 0.000000
1.805000 0.675000 0.000000
0.100000 -0.075000 0.000000
0.100000 -0.050000 0.000000
0.100000 -0.025000 0.000000
0.100000 0.000000 0.000000
-2546.209302 0.441159 0.000000
119552121.239602 0.600000 0.000000
-862.349276 -820.466901 0.000000
99169.501770 0.600000 0.000000
-7861.584005 0.600000 0.000000
-5.143058 0.600000 0.000000
-168313.481277 0.600000 0.000000
132.076197 -3.174434 0.000000
20.423879 -30.956781 0.000000
84.473476 -39.151122 0.000000
-31.464476 -56.115786 0.000000
-2449.116662 0.600000 0.000000
-171.900756 0.600000 0.000000
268.970290 -66.460315 0.000000
-193.852192 0.600000 0.000000
-157.387025 -133.869550 0.000000
0.050740 0.025399 0.000000
-30.610143 0.600000 0.000000
79.073150 -53.026401 0.000000
-246.765105 0.600000 0.000000
1.075040 0.023514 0.000000
110.986835 -165.482532 0.000000
2498.068473 0.600000 0.000000
-31382.547874 0.600000 0.000000
1.830000 0.625000 0.000000
1.830000 0.650000 0.000000
1.830000 0.675000 0.000000
0.125000 -0.075000 0.000000
0.125000 -0.050000 0.000000
0.125000 -0.025000 0.000000
0.125000 0.000000 0.000000
-708.466315 0.600000 0.000000
2219.315950 0.600000 0.000000
-2068.633269 0.600000 0.000000
-637.910779 0.600000 0.000000
8.364984 -52.218883 0.000000
154.468175 -109.740853 0.000000
-908.195561 0.600000 0.000000
-15.850158 -104.884512 0.000000
60736.734055 0.600000 0.000000
-387.213612 -1276.775043 0.000000
-515.909546 0.600000 0.000000
-7893.991198 0.600000 0.000000
-24.312760 -3.661229 0.000000
-347.580450 0.572877 0.000000
-487.518594 0.600000 0.000000
-718.059542 0.600000 0.000000
7129.213964 0.600000 0.000000
1532.171397 0.600000 0.000000
-32.993155 -124.665562 0.000000
-265.402939 -165.714824 0.000000
-148.761425 -2.540854 0.000000
3059.182930 0.600000 0.000000
756837.925319 0.600000 0.000000
-240895.462419 0.600000 0.000000
1.855000 0.625000 0.000000
1.855000 0.650000 0.000000
1.855000 0.675000 0.000000
0.150000 -0.075000 0.000000
0.150000 -0.050000 0.000000
0.150000 -0.025000 0.000000
0.150000 0.000000 0.000000
-43.999428 -0.001803 0.000000
-1654.775074 0.600000 0.000000
-1.523592 -53.295468 0.000000
-189.483931 -117.593480 0.000000
-5652.628463 0.600000 0.000000
1.097367 0.028461 0.000000
343.222079 0.600000 0.000000
9.629977 -29.368456 0.000000
-197.344898 0.600000 0.000000
-4851.108737 0.600000 0.000000
-597.517715 -269.903171 0.000000
28.981367 -68.905806 0.000000
-100.558278 -92.107985 0.000000
-32326.425055 0.600000 0.000000
-9715.803477 0.600000 0.000000
-188.249462 -77.259575 0.000000
-248.948625 0.600000 0.000000
12.295803 -5271.612213 0.000000
10074.009280 0.600000 0.000000
6967.858159 0.600000 0.000000
-9729.896588 0.600000 0.000000
161.773018 -391.005112 0.000000
3979.899479 0.600000 0.000000
1605.619760 0.600000 0.000000
1.880000 0.625000 0.000000
1.880000 0.650000 0.000000
1.880000 0.675000 0.000000
0.175000 -0.075000 0.000000
0.175000 -0.050000 0.000000
0.175000 -0.025000 0.000000
0.175000 0.000000 0.000000
-440.614604 0.600000 0.000000
-4944.925598 0.600000 0.000000
10.848314 -45.376631 0.000000
79856.249384 0.600000 0.000000
899.638057 0.600000 0.000000
-201.947233 -155.295455 0.000000
23.165403 -195.930286 0.000000
301.822865 0.600000 0.000000
-1947.836101 0.600000 0.000000
-1138.481234 -582.034951 0.000000
23247.992749 0.600000 0.000000
-3599.374937 0.600000 0.000000
3940.289820 0.600000 0.000000
6320.141524 0.600000 0.000000
2337.559870 -1125.817710 0.000000
-598.933564 0.600000 0.000000
-5543.290777 -12376.003626 0.000000
5155.532192 0.600000 0.000000
28155888.682452 0.600000 0.000000
930.716082 0.600000 0.000000
9816.041320 0.600000 0.000000
-776.012236 -358.926775 0.000000
-112.979157 -695.513966 0.000000
2808.972176 0.600000 0.000000
1.905000 0.625000 0.000000
1.905000 0.650000 0.000000
1.905000 0.675000 0.000000
0.200000 -0.075000 0.000000
0.200000 -0.050000 0.000000
[...]
<PointData>
<DataArray NumberOfComponents='1' type='Int32' Name='ParticleType' format='ascii'>
3
3
3
3
3
3
3
3
3
3
3
3
3
3
3
3
3
3
3
3
3
3
3
3
3
3
3
3
3
3
3
3
3
3
3
3
3
3
3
3
3
3
3
3
3
3
3
3
3
3
3
3
3
3
3
3
3
3
2
2
2
2
2
2
2
2
2
2
2
2
2
2
2
2
2
2
2
2
2
2
2
2
2
2
3
3
2
2
2
2
2
2
2
2
2
2
2
2
2
2
2
2
2
2
2
2
2
2
2
2
2
2
3
3
2
2
0
0
0
0
0
0
0
0
0
0
0
0
0
0
0
0
0
0
0
0
0
0
0
0
1
1
1
3
3
2
2
0
0
0
0
0
0
0
0
0
0
0
0
0
0
0
0
0
0
0
0
0
0
0
0
1
1
1
3
3
2
2
0
0
0
0
0
0
0
0
0
0
0
0
0
0
0
0
0
0
0
0
0
0
0
0
1
1
1
3
3
2
2
0
0
0
0
0
0
0
0
0
0
0
0
0
0
0
0
0
0
0
0
0
0
0
0
1
1
1
3
3
2
2
0
0
0
0
0
0
0
0
0
0
0
0
0
0
0
0
0
0
0
0
0
0
0
0
1
1
1
3
3
2
2
0
0
0
0
0
0
0
0
0
0
0
0
0
0
0
0
0
0
0
0
0
0
0
0
1
1
1
3
3
2
2
0
0
0
0
0
0
0
0
0
0
0
0
0
0
0
0
0
0
0
0
0
0
0
0
1
1
1
3
3
2
2
0
0
0
0
0
0
0
0
0
0
0
0
0
0
0
0
0
0
0
0
0
0
0
0
1
1
1
3
3
2
2
0
0
0
0
0
0
0
0
0
0
0
0
0
0
0
0
0
0
0
0
0
0
0
0
1
1
1
3
3
2
2
0
0
0
0
0
0
0
0
0
0
0
0
0
0
0
0
0
0
0
0
0
0
0
0
1
1
1
3
3
2
2
0
0
0
0
0
0
0
0
0
0
0
0
0
0
0
0
0
0
0
0
0
0
0
0
1
1
1
3
3
2
2
0
0
0
0
0
0
0
0
0
0
0
0
0
0
0
0
0
0
0
0
0
0
0
0
1
1
1
3
3
2
2
0
0
0
0
0
0
0
0
0
0
0
0
0
0
0
0
0
0
0
0
0
0
0
0
1
1
1
3
3
2
2
0
0
0
0
0
0
0
0
0
0
0
0
0
0
0
0
0
0
0
0
0
0
0
0
1
1
1
3
3
2
2
0
0
0
0
0
0
0
0
0
0
0
0
0
0
0
0
0
0
0
0
0
0
0
0
1
1
1
3
3
2
2
0
0
0
0
0
0
0
0
0
0
0
0
0
0
0
0
0
0
0
0
0
0
0
0
1
1
1
3
3
2
2
0
0
0
0
0
0
0
0
0
0
0
0
0
0
0
0
0
0
0
0
0
0
0
0
3
3
2
2
0
0
0
0
0
0
0
0
0
0
0
0
0
0
0
0
0
0
0
0
0
0
0
0
3
3
2
2
0
0
0
0
0
0
0
0
0
0
0
0
0
0
0
0
0
0
0
0
0
0
0
0
3
3
2
2
0
0
0
0
0
0
0
0
0
0
0
0
0
0
0
0
0
0
0
0
0
0
0
0
3
3
2
2
0
0
0
0
0
0
0
0
0
0
0
0
0
0
0
0
0
0
0
0
0
0
0
0
3
3
2
2
0
0
0
0
0
0
0
0
0
0
0
0
0
0
0
0
0
0
0
0
0
0
0
0
3
3
2
2
0
0
0
0
0
0
0
0
0
0
0
0
0
0
0
0
0
0
0
0
0
0
0
0
3
3
2
2
0
0
0
0
0
0
0
0
0
0
0
0
0
0
0
0
0
0
0
0
0
0
0
0
3
3
2
2
0
0
0
0
0
0
0
0
0
0
0
0
0
0
0
0
0
0
0
0
0
0
0
0
3
3
2
2
0
0
0
0
0
0
0
0
0
0
0
0
0
0
0
0
0
0
0
0
0
0
0
0
3
3
2
2
0
0
0
0
0
0
0
0
0
0
0
0
0
0
0
0
0
0
0
0
0
0
0
0
3
3
2
2
0
0
0
0
0
0
0
0
0
0
0
0
0
0
0
0
0
0
0
0
0
0
0
0
3
3
2
2
0
0
0
0
0
0
0
0
0
0
0
0
0
0
0
0
0
0
0
0
0
0
0
0
3
3
2
2
0
0
0
0
0
0
0
0
0
0
0
0
0
0
0
0
0
0
0
0
0
0
0
0
3
3
2
2
0
0
0
0
0
0
0
0
0
0
0
0
0
0
0
0
0
0
0
0
0
0
0
0
3
3
2
2
0
0
0
0
0
0
0
0
0
0
0
0
0
0
0
0
0
0
0
0
0
0
0
0
3
3
2
2
0
0
0
0
0
0
0
0
0
0
0
0
0
0
0
0
0
0
0
0
0
0
0
0
3
3
2
2
0
0
0
0
0
0
0
0
0
0
0
0
0
0
0
0
0
0
0
0
0
0
0
0
3
3
2
2
0
0
0
0
0
0
0
0
0
0
0
0
0
0
0
0
0
0
0
0
0
0
0
0
3
3
2
2
0
0
0
0
0
0
0
0
0
0
0
0
0
0
0
0
0
0
0
0
0
0
0
0
3
3
2
2
0
0
0
0
0
0
0
0
0
0
0
0
0
0
0
0
0
0
0
0
0
0
0
0
3
3
2
2
0
0
0
0
0
0
0
0
0
0
0
0
0
0
0
0
0
0
0
0
0
0
0
0
3
3
2
2
0
0
0
0
0
0
0
0
0
0
0
0
0
0
0
0
0
0
0
0
0
0
0
0
3
3
2
2
0
0
0
0
0
0
0
0
0
0
0
0
0
0
0
0
0
0
0
0
0
0
0
0
3
3
2
2
0
0
0
0
0
0
0
0
0
0
0
0
0
0
0
0
0
0
0
0
0
0
0
0
3
3
2
2
0
0
0
0
0
0
0
0
0
0
0
0
0
0
0
0
0
0
0
0
0
0
0
0
3
3
2
2
0
0
0
0
0
0
0
0
0
0
0
0
0
0
0
0
0
0
0
0
0
0
0
0
3
3
2
2
0
0
0
0
0
0
0
0
0
0
0
0
0
0
0
0
0
0
0
0
0
0
0
0
3
3
2
2
0
0
0
0
0
0
0
0
0
0
0
0
0
0
0
0
0
0
0
0
0
0
0
0
3
3
2
2
0
0
0
0
0
0
0
0
0
0
0
0
0
0
0
0
0
0
0
0
0
0
0
0
3
3
2
2
0
0
0
0
0
0
0
0
0
0
0
0
0
0
0
0
0
0
0
0
0
0
0
0
3
3
2
2
0
0
0
0
0
0
0
0
0
0
0
0
0
0
0
0
0
0
0
0
0
0
0
0
3
3
2
2
0
0
0
0
0
0
0
0
0
0
0
0
0
0
0
0
0
0
0
0
0
0
0
0
3
3
2
2
0
0
0
0
0
0
0
0
0
0
0
0
0
0
0
0
0
0
0
0
0
0
0
0
3
3
2
2
0
0
0
0
0
0
0
0
0
0
0
0
0
0
0
0
0
0
0
0
0
0
0
0
3
3
2
2
0
0
0
0
0
0
0
0
0
0
0
0
0
0
0
0
0
0
0
0
0
0
0
0
3
3
2
2
0
0
0
0
0
0
0
0
0
0
0
0
0
0
0
0
0
0
0
0
0
0
0
0
3
3
2
2
0
0
0
0
0
0
0
0
0
0
0
0
0
0
0
0
0
0
0
0
0
0
0
0
3
3
2
2
0
0
0
0
0
0
0
0
0
0
0
0
0
0
0
0
0
0
0
0
0
0
0
0
3
3
2
2
0
0
0
0
0
0
0
0
0
0
0
0
0
0
0
0
0
0
0
0
0
0
0
0
3
3
2
2
0
0
0
0
0
0
0
0
0
0
0
0
0
0
0
0
0
0
0
0
0
0
0
0
3
3
2
2
0
0
0
0
0
0
0
0
0
0
0
0
0
0
0
0
0
0
0
0
0
0
0
0
3
3
2
2
0
0
0
0
0
0
0
0
0
0
0
0
0
0
0
0
0
0
0
0
0
0
0
0
3
3
2
2
0
0
0
0
0
0
0
0
0
0
0
0
0
0
0
0
0
0
0
0
0
0
0
0
3
3
2
2
0
0
0
0
0
0
0
0
0
0
0
0
0
0
0
0
0
0
0
0
0
0
0
0
3
3
2
2
0
0
0
0
0
0
0
0
0
0
0
0
0
0
0
0
0
0
0
0
0
0
0
0
3
3
2
2
0
0
0
0
0
0
0
0
0
0
0
0
0
0
0
0
0
0
0
0
0
0
0
0
3
3
2
2
0
0
0
0
0
0
0
0
0
0
0
0
0
0
0
0
0
0
0
0
0
0
0
0
3
3
2
2
0
0
0
0
0
0
0
0
0
0
0
0
0
0
0
0
0
0
0
0
0
0
0
0
3
3
2
2
0
0
0
0
0
0
0
0
0
0
0
0
0
0
0
0
0
0
0
0
0
0
0
0
3
3
2
2
0
0
0
0
0
0
0
0
0
0
0
0
0
0
0
0
0
0
0
0
0
0
0
0
3
3
2
2
0
0
0
0
0
0
0
0
0
0
0
0
0
0
0
0
0
0
0
0
0
0
0
0
3
3
2
2
0
0
0
0
0
0
0
0
0
0
0
0
0
0
0
0
0
0
0
0
0
0
0
0
3
3
2
2
0
0
0
0
0
0
0
0
0
0
0
0
0
0
0
0
0
0
0
0
0
0
0
0
3
3
2
2
0
0
0
0
0
0
0
0
0
0
0
0
0
0
0
0
0
0
0
0
0
0
0
0
3
3
2
2
0
0
0
0
0
0
0
0
0
0
0
0
0
0
0
0
0
0
0
0
0
0
0
0
3
3
2
2
0
0
0
0
0
0
0
0
0
0
0
0
0
0
0
0
0
0
0
0
0
0
0
0
3
3
2
2
0
0
0
0
0
0
0
0
0
0
0
0
0
0
0
0
0
0
0
0
0
0
0
0
3
3
2
2
0
0
0
0
0
0
0
0
0
0
0
0
0
0
0
0
0
0
0
0
0
0
0
0
3
3
2
2
0
0
0
0
0
0
0
0
0
0
0
0
0
0
0
0
0
0
0
0
0
0
0
0
3
3
2
2
0
0
0
0
0
0
0
0
0
0
0
0
0
0
0
0
0
0
0
0
0
0
0
0
3
3
2
2
0
0
0
0
0
0
0
0
0
0
0
0
0
0
0
0
0
0
0
0
0
0
0
0
3
3
2
2
0
0
0
0
0
0
0
0
0
0
0
0
0
0
0
0
0
0
0
0
0
0
0
0
3
3
2
2
0
0
0
0
0
0
0
0
0
0
0
0
0
0
0
0
0
0
0
0
0
0
0
0
3
3
2
2
2
2
2
2
2
2
2
2
2
2
2
2
2
2
2
2
2
2
2
2
2
2
2
2
3
3
2
2
2
2
2
2
2
2
2
2
2
2
2
2
2
2
2
2
2
2
2
2
2
2
2
2
3
3
3
3
3
3
3
3
3
3
3
3
3
3
3
3
3
3
3
3
3
3
3
3
3
3
3
3
3
3
3
3
3
3
3
3
3
3
3
3
3
3
3
3
3
3
3
3
3
3
3
3
3
3
3
3
</DataArray>
<DataArray NumberOfComponents='1' type='Float32' Name='Velocity' format='ascii'>
0.000000
0.000000
0.000000
0.000000
0.000000
0.000000
0.000000
0.000000
0.000000
0.000000
0.000000
0.000000
0.000000
0.000000
0.000000
0.000000
0.000000
0.000000
0.000000
0.000000
0.000000
0.000000
0.000000
0.000000
0.000000
0.000000
0.000000
0.000000
0.000000
0.000000
0.000000
0.000000
0.000000
0.000000
0.000000
0.000000
0.000000
0.000000
0.000000
0.000000
0.000000
0.000000
0.000000
0.000000
0.000000
0.000000
0.000000
0.000000
0.000000
0.000000
0.000000
0.000000
0.000000
0.000000
0.000000
0.000000
0.000000
0.000000
0.000000
0.000000
0.000000
0.000000
0.000000
0.000000
0.000000
0.000000
0.000000
0.000000
0.000000
0.000000
0.000000
0.000000
0.000000
0.000000
0.000000
0.000000
0.000000
0.000000
0.000000
0.000000
0.000000
0.000000
0.000000
0.000000
0.000000
0.000000
0.000000
0.000000
0.000000
0.000000
0.000000
0.000000
0.000000
0.000000
0.000000
0.000000
0.000000
0.000000
0.000000
0.000000
0.000000
0.000000
0.000000
0.000000
0.000000
0.000000
0.000000
0.000000
0.000000
0.000000
0.000000
0.000000
0.000000
0.000000
0.000000
0.000000
4401.125000
214.445724
74.798401
69.140503
1.047516
95356864.000000
117.961678
99.049194
69.826103
528.810486
2978.343506
371.155090
76158.226562
28428.828125
148.476532
904.661194
171.757812
1791.517212
170.397308
1675.694092
1008.933105
1148.908936
2536.128906
83049576.000000
1.000000
1.000000
1.000000
0.000000
0.000000
0.000000
0.000000
136.514481
131.521362
1853.159058
101.634949
5235.541992
45.308239
73.990921
51.894684
47326.648438
49280.359375
131.118454
156.098618
303.112854
3767.475342
23500.082031
1095.137329
150.278442
427.138763
2117.494629
491.711395
1533.093750
28241.275391
1156.096558
2971.943115
1.000000
1.000000
1.000000
0.000000
0.000000
0.000000
0.000000
133.796539
35737.613281
37.084465
4700.171875
91.797043
289.990814
244.737961
5296.640625
1016.836792
649.168457
243.730591
1881.039429
907.051392
1564.127930
945.327576
33.970951
5673.964844
1.725238
460.126099
153.312576
6866.498535
370.617157
9610.116211
2164.303955
1.000000
1.000000
1.000000
0.000000
0.000000
0.000000
0.000000
4556.876465
164219952.000000
1583.372070
135656.203125
10448.498047
130.151611
227129.031250
175.783783
52.532410
125.583786
89.094582
3279.296387
253.038467
368.626343
330.641022
278.217712
0.135248
430.586670
131.162201
347.027679
0.346618
268.016785
3320.190674
41519.171875
1.000000
1.000000
1.000000
0.000000
0.000000
0.000000
0.000000
1028.581787
3408.392822
2795.762451
886.944458
74.493561
252.778046
1506.733032
144.935745
81647.414062
1775.658936
885.638611
12657.913086
36.252949
470.797333
662.632568
1093.362061
10191.628906
2077.946289
176.270615
418.025513
196.355423
4130.842285
998466.625000
324624.781250
1.000000
1.000000
1.000000
0.000000
0.000000
0.000000
0.000000
44.288910
2226.785645
74.474060
299.255066
7623.875488
1.243812
466.544342
44.970154
232.280106
6514.464355
871.286499
102.618172
186.134460
42874.460938
12942.612305
271.400513
356.840088
7005.262207
13420.311523
9315.255859
12991.086914
562.166931
5252.230469
2126.041504
1.000000
1.000000
1.000000
0.000000
0.000000
0.000000
0.000000
621.994873
6834.251465
65.616035
107050.984375
1221.636841
339.960602
265.440826
437.895538
2641.782471
1697.799927
31802.392578
5007.586914
5385.404785
8406.667969
3479.839355
805.052551
17941.402344
6927.329590
37641568.000000
1239.926514
12991.564453
1131.424561
932.815491
3816.133789
1.000000
1.000000
1.000000
0.000000
0.000000
0.000000
0.000000
996.395691
2529.336670
1055.679565
942.291321
2521.466797
119.246651
27921.128906
287566.156250
1587.735474
1610.458008
101.110558
130.967804
324.386444
24645172.000000
1351.161011
15050.902344
1111.184692
1791.195435
1779.756836
4261.484863
17893.652344
2291.380859
1940.470337
2322.514648
1.000000
1.000000
1.000000
0.000000
0.000000
0.000000
0.000000
48.174500
10989698.000000
2050.967285
84.312958
769.490906
196.819366
20260.873047
485.918518
2113.594482
370.643463
6044.623535
393.721191
8532.450195
1151.599731
156.335968
1.011171
174149.500000
205.012329
266.256042
68543.257812
1493.719360
26142.476562
97.450516
191028.375000
1.000000
1.000000
1.000000
0.000000
0.000000
0.000000
0.000000
43348.945312
297.946136
131.195282
8021.443848
16063.663086
668.350098
1101.006226
12930.001953
190196.281250
590.188782
166.263184
945.437561
1673.332275
204.842987
93.305809
118.422569
266763.218750
160.672974
353.496582
289706.187500
499.798187
1109.052124
95400.984375
95085.882812
1.000000
1.000000
1.000000
0.000000
0.000000
0.000000
0.000000
609.426025
136.454758
1754.941040
38.224010
1783.038818
155.318222
95.683502
163.870361
248.706604
164.494675
860.015320
2965.874268
2010.051147
672.846924
304234.031250
60897.398438
109189544.000000
856.795227
43348.011719
5688.787598
128.947052
9136.436523
3866.500244
3979.984375
1.000000
1.000000
1.000000
0.000000
0.000000
0.000000
0.000000
295.324036
1010911488.000000
272.774017
313831.718750
43311.789062
41954936.000000
8092.936035
9932.335938
332.009949
408.907562
1308.246460
11015329.000000
864.259094
7859819520.000000
32.983246
57765.027344
117242.046875
1863.464844
622.897461
53.806427
7545.450195
6939.759766
161842336.000000
7707.910156
1.000000
1.000000
1.000000
0.000000
0.000000
0.000000
0.000000
816.663696
300.391449
103.541023
91.072701
109.036179
10577.905273
167.610199
164.186005
141.278030
2428.203125
6692.480957
1625.378906
350.224030
59.553452
2802.630615
383.601471
340.073090
64.858597
431.569855
1685.245728
695.528687
75.241287
39987.753906
4015.285156
1.000000
1.000000
1.000000
0.000000
0.000000
0.000000
0.000000
86.312752
1914.575439
187.957397
32.928497
241.119659
336.958374
2331.802490
7078.833008
854.727661
1095.219238
20025.517578
77.255791
404.982513
253.034653
249.592911
9486.189453
49153.605469
268.591217
90296.820312
277.018005
6454.150879
1132.325439
5125.139160
998081.687500
1.000000
1.000000
1.000000
0.000000
0.000000
0.000000
0.000000
118.391029
81898.585938
126.372658
0.449901
145.201385
595.811829
107.017906
2074.940186
41956152.000000
86.168350
883.978943
1016.818970
339448.062500
24146.160156
484.883423
714.351135
1161.940308
222.975388
1295.680420
54.817131
1556.840332
82941672.000000
953.960205
15229.207031
1.000000
1.000000
1.000000
0.000000
0.000000
0.000000
0.000000
1401.908569
44920.683594
323.528748
288.648956
467.401764
909.785767
143.437180
1768.262329
215.716873
2585.662109
17706.910156
452.689606
2946.386719
694.175476
216.478226
48621.312500
97.882774
12590.268555
3798.972656
1775.759155
128.115265
1779.937012
1134.106689
15809.682617
1.000000
1.000000
1.000000
0.000000
0.000000
0.000000
0.000000
243.446274
1059.954468
201.347305
517.217712
23249.568359
36.136890
1803.286255
2050.030029
4755.323730
129.612854
613.019043
4968.329590
3716.902832
182.417358
277.300507
134.903412
361.974335
384.419220
159659.750000
194.327408
5987.977539
73.895203
105.083229
4414.780762
0.000000
0.000000
0.000000
0.000000
62.511391
39281.582031
2572.595459
156.440170
2681.639648
4977.319336
2319.034424
9501.788086
2523.517822
21144.859375
6729.084961
7730.205078
195.143646
98441824.000000
1942.779541
495978.718750
6310.322266
25976.505859
422.215881
553.482788
96046.179688
27242.648438
149.300125
1061.903687
0.000000
0.000000
0.000000
0.000000
1952.449219
668.851501
136.038651
380.234283
299.271790
5030.263672
124.592659
65.537010
172.164886
8015.213379
1055.086426
3710.454102
98599.757812
236.748199
131.573181
162.555511
289.156219
530.331482
4829300.500000
19885750.000000
1419.862183
2162.996094
609.789734
15961.950195
0.000000
0.000000
0.000000
0.000000
56.673409
1297.802856
471.882629
3293.922119
3091.947266
181.831528
13265.561523
470.894440
124.865639
288258.031250
51.115101
1298.220825
528.703491
43177.468750
904.130005
1069.014038
1930363.250000
14035.929688
198.425461
55.060951
2958.163574
698.571289
1277.174805
4774220.000000
0.000000
0.000000
0.000000
0.000000
1512.734375
1345.414673
163.400253
4139.390625
43065.175781
605.853699
409.950745
352.434387
688.211670
302.851929
1742.355469
271.090607
580.339233
169.919754
118.661446
101.125420
5530499.500000
211.565994
1230.791626
352.985168
4797.619141
2164.342041
1856.314575
2571.270508
0.000000
0.000000
0.000000
0.000000
129.725922
732.599792
58.633816
1666460.000000
23588.001953
280.934204
65.340828
74.217026
1927.909790
6806.859375
203547328.000000
139.889847
2088.053711
817.781189
278.660583
118.485214
736.721069
197.008514
188.227203
331.235291
1228.375732
307293.531250
348.604736
1176.042114
0.000000
0.000000
0.000000
0.000000
416.548950
1507.768311
266.794495
1458.942749
125.759369
2293.091797
466.895721
39930.300781
97.930763
30677.166016
1211.159790
226.629990
3374.444824
65.370010
3205.594727
102359.640625
1635.320557
153.864517
3966.656250
255.157608
38518.191406
122.454353
708.932312
2748.293701
0.000000
0.000000
0.000000
0.000000
70.812241
1.965282
9624.393555
367294.187500
354.514221
210.632950
57535692.000000
21693.412109
798.859375
892.601746
6318.474609
1935943.625000
143.699097
102.285751
1904.936035
985.559326
1161.649414
1434.367798
4917.648438
1235.609863
203547792.000000
40052.699219
4401.748047
9517.318359
0.000000
0.000000
0.000000
0.000000
65.610512
420902.468750
290.302948
1.103481
139926.078125
87.681419
15248.611328
1198.114990
371.532166
335.846008
795.476257
2211.713135
17535.962891
28250.261719
1566.217041
191.998276
259.928436
312.464417
1241.935913
2.477035
15372175.000000
92.753120
418.060120
1086.275513
0.000000
0.000000
0.000000
0.000000
622.756226
50.229095
3202.726562
901.419373
2151.218750
297.637024
709960.875000
352.472382
448.330566
9596.965820
677.936157
127.294037
43.941193
49.536331
444.638092
4.051744
1020.417419
853.642822
3773.859131
300.659363
3791.987549
12455.854492
5500.575195
4545.049316
0.000000
0.000000
0.000000
0.000000
1069.055176
163.191177
10160.012695
24003.607422
0.383901
79958.921875
81155.093750
140152.968750
2076.671875
92.831390
107.782326
330.951752
1349.020142
0.807334
885.530640
615.541687
71.920471
58.689888
937.122986
1078.810791
2232.742920
996.059570
158.961060
1799.763794
0.000000
0.000000
0.000000
0.000000
16078.410156
69402.562500
862.832092
102.168777
205149.765625
798.770569
166.157227
4412.469727
1246.710693
91.097565
24622.740234
22168.769531
260.732330
10533.922852
372.724548
289.592316
1438.925171
2014.672852
539.917542
27196.537109
235.820297
6550.508301
87.748917
8849.786133
0.000000
0.000000
0.000000
0.000000
16155.109375
112181.312500
709.984680
1525.925171
126.874878
94768.734375
305.636932
3324.317627
3163.432373
479.618408
455.032684
218.932419
1100.656982
5126.430664
12372.828125
82307.070312
81594.234375
25816.574219
580.258972
967.224121
163329.265625
107688.367188
1087.599976
2166.434570
0.000000
0.000000
0.000000
0.000000
474.997253
79.018715
68.129005
85.458481
107776.617188
3961.655762
1711.857788
336.612610
697.874268
663460.062500
2239.385010
1530.127808
1049.701172
23744.455078
53.856880
155.780045
106.302872
112.125290
960.760803
228.440598
228.399887
2351.681396
370.544495
2051.727051
0.000000
0.000000
0.000000
0.000000
12854.525391
64.897842
786193.125000
725.485229
261.408508
310.820068
358.804901
1898.092529
9.667529
22491.892578
29818181648384.000000
500.466339
623.689575
804.130005
176.783356
813.243652
302.417389
141.886322
297.482819
65.876663
716.485413
32273.294922
7112.406738
6859.382812
0.000000
0.000000
0.000000
0.000000
2045.209229
11138.296875
1783.828003
155.618164
1586.540771
4642.046875
336.512329
12982.958984
19754.939453
345.963501
3009.603271
49007.937500
865.591736
252.225449
6126.142578
616.118042
1226.728760
545.286926
82.454933
3512.592041
90958.132812
380.049011
1720.616699
20951.664062
0.000000
0.000000
0.000000
0.000000
84.933952
71.943825
3367.952637
210.155060
19582.304688
1957.191895
801.581177
482.934387
550.079163
126.054062
45.693901
71.859879
112.702057
1251777920.000000
3622.034912
158.182220
239.971832
205.256927
132.694611
39098.683594
279.494049
5787.412598
22682.361328
5684.374512
0.000000
0.000000
0.000000
0.000000
109266000.000000
4917.506836
1119.371948
94.329987
297.138885
1107.469849
1.771924
95356440.000000
1633.712280
16802.599609
1750.886597
148.291626
24.749086
83.425781
24338.173828
251.387589
3994.005615
835.062683
1149.422119
166.670349
305.291290
2319.810791
11944.691406
5083.636230
0.000000
0.000000
0.000000
0.000000
128181.062500
2.385059
215609.859375
535.709717
122.466583
5.309958
152.919128
386.431274
551.105896
13220.535156
46276.191406
185422.359375
1102.932373
29612.628906
1146.777100
2676.350830
6082527.000000
246.399933
579.457581
48.884319
14900.020508
374.146729
2857.919922
23664962.000000
0.000000
0.000000
0.000000
0.000000
190374.984375
105.122604
550.260925
229.301468
22320.673828
3954.807861
9132.129883
117335.429688
1644.353882
545.388245
76.583603
687.235352
36312.179688
162.666870
47.004581
169.892670
202056.750000
4900.871094
1322.884155
118.629036
1745.651733
453.949066
714.519531
3153.932861
0.000000
0.000000
0.000000
0.000000
68.363411
1.241679
19159504.000000
961.319031
133.057144
500.843262
356.868591
3015.680176
369.397034
15210.006836
348.290924
344.475281
2974.656982
287.560089
413.009674
113043.062500
1574.952148
3447.202393
2708.852295
3056.201904
905.503540
761.513550
39001.480469
11095.351562
0.000000
0.000000
0.000000
0.000000
59.479866
401.993011
489.062653
7979.300781
698.272156
831.801453
2776.458252
172.825104
15609.740234
13.316404
1801.364136
285.351379
114.136101
77766.054688
1173.649414
2781.436768
653.111572
309.074097
3431.913330
1632.870972
535.939148
174261.906250
451.365784
79955.390625
0.000000
0.000000
0.000000
0.000000
33.906818
124.989075
118.415932
810.367737
105.297043
206.197723
78.838730
45.304867
15372272.000000
125.142799
80961.031250
448975.000000
1671.858521
158.649109
289.403961
98099.492188
2749.259766
944355.062500
363.581360
129.587418
21631.236328
70.716621
137.915283
4928.843750
0.000000
0.000000
0.000000
0.000000
83570.039062
172.907104
2605.939209
2181.200195
1034.892212
173770.437500
78.635178
644.294128
585.150513
56.891304
211.592575
484.184479
1.837857
4055.011719
3390.468262
587638.875000
261.945679
314.224609
220.913910
795.401489
696.591675
111.927490
207.893478
954.343628
0.000000
0.000000
0.000000
0.000000
111.791138
106.739960
176.138428
319320.937500
2216.927002
3.148813
222.287384
3293.485107
570.473511
6088.300293
27423.613281
21588.621094
43.132614
432.637360
8697.522461
173.782837
30.487173
128166.570312
17507.855469
4537.017090
7346.229980
196823.812500
148.381042
8062.219727
0.000000
0.000000
0.000000
0.000000
339.206940
2884.245117
397.389130
94.641258
10510.975586
2768.815430
3398.319092
8100.891113
68835.500000
171.703522
215246224.000000
4244.198242
876.928711
229.296005
102.235069
488973.312500
38.263077
112331.820312
2133.382080
119.460220
2612.427979
2150.495605
91.635170