<?xml version='1.0' encoding='UTF-8'?>
<VTKFile xmlns='VTK' byte_order='LittleEndian' version='0.1' type='UnstructuredGrid'>
<UnstructuredGrid>
<Piece NumberOfCells='2512' NumberOfPoints='2512'>
<Points>
<DataArray NumberOfComponents='3' type='Float32' Name='Position' format='ascii'>
-0.075000 -0.075000 0.000000
-0.075000 -0.050000 0.000000
-0.075000 -0.025000 0.000000
-0.075000 0.000000 0.000000
-0.075000 0.025000 0.000000
-0.075000 0.050000 0.000000
-0.075000 0.075000 0.000000
-0.075000 0.100000 0.000000
-0.075000 0.125000 0.000000
-0.075000 0.150000 0.000000
-0.075000 0.175000 0.000000
-0.075000 0.200000 0.000000
-0.075000 0.225000 0.000000
-0.075000 0.250000 0.000000
-0.075000 0.275000 0.000000
-0.075000 0.300000 0.000000
-0.075000 0.325000 0.000000
-0.075000 0.350000 0.000000
-0.075000 0.375000 0.000000
-0.075000 0.400000 0.000000
-0.075000 0.425000 0.000000
-0.075000 0.450000 0.000000
-0.075000 0.475000 0.000000
-0.075000 0.500000 0.000000
-0.075000 0.525000 0.000000
-0.075000 0.550000 0.000000
-0.075000 0.575000 0.000000
-0.075000 0.600000 0.000000
-0.050000 -0.075000 0.000000
-0.050000 -0.050000 0.000000
-0.050000 -0.025000 0.000000
-0.050000 0.000000 0.000000
-0.050000 0.025000 0.000000
-0.050000 0.050000 0.000000
-0.050000 0.075000 0.000000
-0.050000 0.100000 0.000000
-0.050000 0.125000 0.000000
-0.050000 0.150000 0.000000
-0.050000 0.175000 0.000000
-0.050000 0.200000 0.000000
-0.050000 0.225000 0.000000
-0.050000 0.250000 0.000000
-0.050000 0.275000 0.000000
-0.050000 0.300000 0.000000
-0.050000 0.325000 0.000000
-0.050000 0.350000 0.000000
-0.050000 0.375000 0.000000
-0.050000 0.400000 0.000000
-0.050000 0.425000 0.000000
-0.050000 0.450000 0.000000
-0.050000 0.475000 0.000000
-0.050000 0.500000 0.000000
-0.050000 0.525000 0.000000
-0.050000 0.550000 0.000000
-0.050000 0.575000 0.000000
-0.050000 0.600000 0.000000
-0.025000 -0.075000 0.000000
-0.025000 -0.050000 0.000000
-0.025000 -0.025000 0.000000
-0.025000 0.000000 0.000000
-0.025000 0.025000 0.000000
-0.025000 0.050000 0.000000
-0.025000 0.075000 0.000000
-0.025000 0.100000 0.000000
-0.025000 0.125000 0.000000
-0.025000 0.150000 0.000000
-0.025000 0.175000 0.000000
-0.025000 0.200000 0.000000
-0.025000 0.225000 0.000000
-0.025000 0.250000 0.000000
-0.025000 0.275000 0.000000
-0.025000 0.300000 0.000000
-0.025000 0.325000 0.000000
-0.025000 0.350000 0.000000
-0.025000 0.375000 0.000000
-0.025000 0.400000 0.000000
-0.025000 0.425000 0.000000
-0.025000 0.450000 0.000000
-0.025000 0.475000 0.000000
-0.025000 0.500000 0.000000
-0.025000 0.525000 0.000000
-0.025000 0.550000 0.000000
-0.025000 0.575000 0.000000
-0.025000 0.600000 0.000000
0.000000 -0.075000 0.000000
0.000000 -0.050000 0.000000
0.000000 -0.025000 0.000000
0.000000 0.000000 0.000000
0.000000 0.025000 0.000000
0.000000 0.050000 0.000000
0.000000 0.075000 0.000000
0.000000 0.100000 0.000000
0.000000 0.125000 0.000000
0.000000 0.150000 0.000000
0.000000 0.175000 0.000000
0.000000 0.200000 0.000000
0.000000 0.225000 0.000000
0.000000 0.250000 0.000000
0.000000 0.275000 0.000000
0.000000 0.300000 0.000000
0.000000 0.325000 0.000000
0.000000 0.350000 0.000000
0.000000 0.375000 0.000000
0.000000 0.400000 0.000000
0.000000 0.425000 0.000000
0.000000 0.450000 0.000000
0.000000 0.475000 0.000000
0.000000 0.500000 0.000000
0.000000 0.525000 0.000000
0.000000 0.550000 0.000000
0.000000 0.575000 0.000000
0.000000 0.600000 0.000000
0.025000 -0.075000 0.000000
0.025000 -0.050000 0.000000
0.025000 -0.025000 0.000000
0.025000 0.000000 0.000000
-522.391146 0.600000 0.000000
17.561673 -29.490954 0.000000
-5.839472 -9.622239 0.000000
4.236837 -9.413017 0.000000
0.179773 0.115000 0.000000
-14303529.558946 0.600000 0.000000
2.593126 -17.991097 0.000000
7.430824 -13.067410 0.000000
-11.195120 -1.554020 0.000000
3.085384 -62.981844 0.000000
136.413479 -470.745082 0.000000
9.063658 -59.509111 0.000000
12259.793025 0.600000 0.000000
-4566.096356 0.600000 0.000000
-11.370911 0.600000 0.000000
-68.985548 -131.861074 0.000000
-19.858837 -18.899816 0.000000
171.826629 -238.980568 0.000000
16.778584 -18.585228 0.000000
-270.492265 0.600000 0.000000
71.537326 -152.000555 0.000000
-176.180330 0.600000 0.000000
-420.342955 0.600000 0.000000
13786229.437356 0.600000 0.000000
1.165000 0.625000 0.000000
1.165000 0.650000 0.000000
1.165000 0.675000 0.000000
0.050000 -0.075000 0.000000
0.050000 -0.050000 0.000000
0.050000 -0.025000 0.000000
0.050000 0.000000 0.000000
-22.358263 0.600000 0.000000
-19.439050 -5.417792 0.000000
271.465476 0.600000 0.000000
11.523055 0.600000 0.000000
845.334127 0.600000 0.000000
-5.226100 -3.505172 0.000000
-5.121566 -9.739967 0.000000
-9.992154 0.600000 0.000000
-3693.692069 -6878.698305 0.000000
3587.826701 0.600000 0.000000
1.621646 -20.218419 0.000000
16.965976 -15.483621 0.000000
-46.239993 -17.422856 0.000000
180.552065 0.600000 0.000000
3477.082056 0.600000 0.000000
-179.440622 0.600000 0.000000
-22.038195 -10.341763 0.000000
-59.525144 0.600000 0.000000
333.736557 0.600000 0.000000
-47.530976 -62.270553 0.000000
225.120510 0.600000 0.000000
4533.868819 -944.906034 0.000000
45.807352 -187.255965 0.000000
494.124386 0.600000 0.000000
1.190000 0.625000 0.000000
1.190000 0.650000 0.000000
1.190000 0.675000 0.000000
0.075000 -0.075000 0.000000
0.075000 -0.050000 0.000000
0.075000 -0.025000 0.000000
0.075000 0.000000 0.000000
-14.991064 -14.793745 0.000000
4928.802371 0.600000 0.000000
4.340134 0.600000 0.000000
-682.810110 0.600000 0.000000
-11.939594 -8.059052 0.000000
34.738905 0.600000 0.000000
7.600418 -34.377049 0.000000
846.083766 0.600000 0.000000
171.219910 0.600000 0.000000
8.383678 -94.754182 0.000000
28.048863 -27.084178 0.000000
-303.555560 0.600000 0.000000
-140.473222 0.600000 0.000000
213.575985 -140.728602 0.000000
150.572954 0.600000 0.000000
5.849191 -0.132078 0.000000
838.152833 -332.984591 0.000000
0.017735 0.027812 0.000000
57.920878 -45.059307 0.000000
13.989842 -19.235637 0.000000
1126.003723 0.600000 0.000000
-20.617694 -56.064861 0.000000
-1580.106374 0.600000 0.000000
-345.606522 0.600000 0.000000
1.215000 0.625000 0.000000
1.215000 0.650000 0.000000
1.215000 0.675000 0.000000
0.100000 -0.075000 0.000000
0.100000 -0.050000 0.000000
0.100000 -0.025000 0.000000
0.100000 0.000000 0.000000
1.010189 0.600000 0.000000
22662351.563326 0.600000 0.000000
-186.651161 -177.078952 0.000000
19132.434240 0.600000 0.000000
-1697.068083 0.600000 0.000000
-2.574745 0.600000 0.000000
-34307.363100 0.600000 0.000000
28.478586 0.001574 0.000000
4.557481 -6.034535 0.000000
18.451144 -7.223030 0.000000
-6.684795 -11.459863 0.000000
-524.888603 0.600000 0.000000
-15.861368 0.600000 0.000000
58.454054 -13.531454 0.000000
-33.667394 0.600000 0.000000
-33.386366 -28.015147 0.000000
0.133802 0.029664 0.000000
-6.915611 0.600000 0.000000
16.359518 -9.391066 0.000000
-32.993874 0.600000 0.000000
1.039865 0.126831 0.000000
24.172682 -35.017363 0.000000
543.612034 0.600000 0.000000
-6890.010001 0.600000 0.000000
1.240000 0.625000 0.000000
1.240000 0.650000 0.000000
1.240000 0.675000 0.000000
0.125000 -0.075000 0.000000
0.125000 -0.050000 0.000000
0.125000 -0.025000 0.000000
0.125000 0.000000 0.000000
-149.522064 0.600000 0.000000
478.631142 0.600000 0.000000
-423.507036 0.600000 0.000000
-129.336971 0.600000 0.000000
2.012204 -10.432026 0.000000
34.012294 -23.507100 0.000000
-200.635666 0.600000 0.000000
-3.301953 -22.000901 0.000000
12568.289625 0.600000 0.000000
-83.729977 -275.759206 0.000000
-105.307835 0.600000 0.000000
-426.304367 0.600000 0.000000
-3.667286 0.227399 0.000000
-70.689258 0.600000 0.000000
-100.249783 0.600000 0.000000
-113.666937 0.600000 0.000000
1543.383902 0.600000 0.000000
329.893368 0.600000 0.000000
-7.045218 -25.657716 0.000000
-57.329040 -35.001232 0.000000
-33.003121 0.357134 0.000000
574.756188 0.600000 0.000000
167742.611325 0.600000 0.000000
-49366.848895 0.600000 0.000000
1.265000 0.625000 0.000000
1.265000 0.650000 0.000000
1.265000 0.675000 0.000000
0.150000 -0.075000 0.000000
0.150000 -0.050000 0.000000
0.150000 -0.025000 0.000000
0.150000 0.000000 0.000000
-18.149320 0.600000 0.000000
-349.988960 0.600000 0.000000
-0.296966 -11.075695 0.000000
-40.473437 -24.588937 0.000000
-1052.554464 0.600000 0.000000
1.990201 0.388172 0.000000
67.239805 0.600000 0.000000
2.070325 -5.638610 0.000000
-29.718104 0.600000 0.000000
-1007.702113 0.600000 0.000000
-129.933981 -58.012541 0.000000
6.484103 -14.398851 0.000000
-20.624323 -18.505751 0.000000
-7030.930353 0.600000 0.000000
-2079.949707 0.600000 0.000000
-40.996270 -16.058236 0.000000
-40.578889 0.600000 0.000000
2.783419 -1140.221259 0.000000
2159.940950 0.600000 0.000000
1472.012001 0.600000 0.000000
-2065.188422 0.600000 0.000000
36.185830 -85.725036 0.000000
882.303014 0.600000 0.000000
353.100154 0.600000 0.000000
1.290000 0.625000 0.000000
1.290000 0.650000 0.000000
1.290000 0.675000 0.000000
0.175000 -0.075000 0.000000
0.175000 -0.050000 0.000000
0.175000 -0.025000 0.000000
0.175000 0.000000 0.000000
-89.919403 0.600000 0.000000
-953.749235 0.600000 0.000000
2.487156 -9.279654 0.000000
16696.290305 0.600000 0.000000
191.533872 0.600000 0.000000
-44.011140 -33.356727 0.000000
5.169027 -42.060433 0.000000
61.616776 0.600000 0.000000
-404.224493 0.600000 0.000000
-247.438798 -126.080532 0.000000
4484.582101 0.600000 0.000000
-591.020855 0.600000 0.000000
849.479578 0.600000 0.000000
1360.313181 0.600000 0.000000
488.810263 -234.567054 0.000000
-122.313069 0.600000 0.000000
-1217.055293 -2716.704408 0.000000
1069.329791 0.600000 0.000000
5947363.032130 0.600000 0.000000
199.228811 0.600000 0.000000
2155.938651 0.600000 0.000000
-171.118704 -78.292721 0.000000
-24.975225 -153.937181 0.000000
513.706058 0.600000 0.000000
1.315000 0.625000 0.000000
1.315000 0.650000 0.000000
1.315000 0.675000 0.000000
0.200000 -0.075000 0.000000
0.200000 -0.050000 0.000000
0.200000 -0.025000 0.000000
0.200000 0.000000 0.000000
-143.548878 0.600000 0.000000
-310.224506 0.600000 0.000000
161.336875 -8.481954 0.000000
[...]
<PointData>
<DataArray NumberOfComponents='1' type='Int32' Name='ParticleType' format='ascii'>
3
3
3
3
3
3
3
3
3
3
3
3
3
3
3
3
3
3
3
3
3
3
3
3
3
3
3
3
3
3
3
3
3
3
3
3
3
3
3
3
3
3
3
3
3
3
3
3
3
3
3
3
3
3
3
3
3
3
2
2
2
2
2
2
2
2
2
2
2
2
2
2
2
2
2
2
2
2
2
2
2
2
2
2
3
3
2
2
2
2
2
2
2
2
2
2
2
2
2
2
2
2
2
2
2
2
2
2
2
2
2
2
3
3
2
2
0
0
0
0
0
0
0
0
0
0
0
0
0
0
0
0
0
0
0
0
0
0
0
0
1
1
1
3
3
2
2
0
0
0
0
0
0
0
0
0
0
0
0
0
0
0
0
0
0
0
0
0
0
0
0
1
1
1
3
3
2
2
0
0
0
0
0
0
0
0
0
0
0
0
0
0
0
0
0
0
0
0
0
0
0
0
1
1
1
3
3
2
2
0
0
0
0
0
0
0
0
0
0
0
0
0
0
0
0
0
0
0
0
0
0
0
0
1
1
1
3
3
2
2
0
0
0
0
0
0
0
0
0
0
0
0
0
0
0
0
0
0
0
0
0
0
0
0
1
1
1
3
3
2
2
0
0
0
0
0
0
0
0
0
0
0
0
0
0
0
0
0
0
0
0
0
0
0
0
1
1
1
3
3
2
2
0
0
0
0
0
0
0
0
0
0
0
0
0
0
0
0
0
0
0
0
0
0
0
0
1
1
1
3
3
2
2
0
0
0
0
0
0
0
0
0
0
0
0
0
0
0
0
0
0
0
0
0
0
0
0
1
1
1
3
3
2
2
0
0
0
0
0
0
0
0
0
0
0
0
0
0
0
0
0
0
0
0
0
0
0
0
1
1
1
3
3
2
2
0
0
0
0
0
0
0
0
0
0
0
0
0
0
0
0
0
0
0
0
0
0
0
0
1
1
1
3
3
2
2
0
0
0
0
0
0
0
0
0
0
0
0
0
0
0
0
0
0
0
0
0
0
0
0
1
1
1
3
3
2
2
0
0
0
0
0
0
0
0
0
0
0
0
0
0
0
0
0
0
0
0
0
0
0
0
1
1
1
3
3
2
2
0
0
0
0
0
0
0
0
0
0
0
0
0
0
0
0
0
0
0
0
0
0
0
0
1
1
1
3
3
2
2
0
0
0
0
0
0
0
0
0
0
0
0
0
0
0
0
0
0
0
0
0
0
0
0
1
1
1
3
3
2
2
0
0
0
0
0
0
0
0
0
0
0
0
0
0
0
0
0
0
0
0
0
0
0
0
1
1
1
3
3
2
2
0
0
0
0
0
0
0
0
0
0
0
0
0
0
0
0
0
0
0
0
0
0
0
0
1
1
1
3
3
2
2
0
0
0
0
0
0
0
0
0
0
0
0
0
0
0
0
0
0
0
0
0
0
0
0
3
3
2
2
0
0
0
0
0
0
0
0
0
0
0
0
0
0
0
0
0
0
0
0
0
0
0
0
3
3
2
2
0
0
0
0
0
0
0
0
0
0
0
0
0
0
0
0
0
0
0
0
0
0
0
0
3
3
2
2
0
0
0
0
0
0
0
0
0
0
0
0
0
0
0
0
0
0
0
0
0
0
0
0
3
3
2
2
0
0
0
0
0
0
0
0
0
0
0
0
0
0
0
0
0
0
0
0
0
0
0
0
3
3
2
2
0
0
0
0
0
0
0
0
0
0
0
0
0
0
0
0
0
0
0
0
0
0
0
0
3
3
2
2
0
0
0
0
0
0
0
0
0
0
0
0
0
0
0
0
0
0
0
0
0
0
0
0
3
3
2
2
0
0
0
0
0
0
0
0
0
0
0
0
0
0
0
0
0
0
0
0
0
0
0
0
3
3
2
2
0
0
0
0
0
0
0
0
0
0
0
0
0
0
0
0
0
0
0
0
0
0
0
0
3
3
2
2
0
0
0
0
0
0
0
0
0
0
0
0
0
0
0
0
0
0
0
0
0
0
0
0
3
3
2
2
0
0
0
0
0
0
0
0
0
0
0
0
0
0
0
0
0
0
0
0
0
0
0
0
3
3
2
2
0
0
0
0
0
0
0
0
0
0
0
0
0
0
0
0
0
0
0
0
0
0
0
0
3
3
2
2
0
0
0
0
0
0
0
0
0
0
0
0
0
0
0
0
0
0
0
0
0
0
0
0
3
3
2
2
0
0
0
0
0
0
0
0
0
0
0
0
0
0
0
0
0
0
0
0
0
0
0
0
3
3
2
2
0
0
0
0
0
0
0
0
0
0
0
0
0
0
0
0
0
0
0
0
0
0
0
0
3
3
2
2
0
0
0
0
0
0
0
0
0
0
0
0
0
0
0
0
0
0
0
0
0
0
0
0
3
3
2
2
0
0
0
0
0
0
0
0
0
0
0
0
0
0
0
0
0
0
0
0
0
0
0
0
3
3
2
2
0
0
0
0
0
0
0
0
0
0
0
0
0
0
0
0
0
0
0
0
0
0
0
0
3
3
2
2
0
0
0
0
0
0
0
0
0
0
0
0
0
0
0
0
0
0
0
0
0
0
0
0
3
3
2
2
0
0
0
0
0
0
0
0
0
0
0
0
0
0
0
0
0
0
0
0
0
0
0
0
3
3
2
2
0
0
0
0
0
0
0
0
0
0
0
0
0
0
0
0
0
0
0
0
0
0
0
0
3
3
2
2
0
0
0
0
0
0
0
0
0
0
0
0
0
0
0
0
0
0
0
0
0
0
0
0
3
3
2
2
0
0
0
0
0
0
0
0
0
0
0
0
0
0
0
0
0
0
0
0
0
0
0
0
3
3
2
2
0
0
0
0
0
0
0
0
0
0
0
0
0
0
0
0
0
0
0
0
0
0
0
0
3
3
2
2
0
0
0
0
0
0
0
0
0
0
0
0
0
0
0
0
0
0
0
0
0
0
0
0
3
3
2
2
0
0
0
0
0
0
0
0
0
0
0
0
0
0
0
0
0
0
0
0
0
0
0
0
3
3
2
2
0
0
0
0
0
0
0
0
0
0
0
0
0
0
0
0
0
0
0
0
0
0
0
0
3
3
2
2
0
0
0
0
0
0
0
0
0
0
0
0
0
0
0
0
0
0
0
0
0
0
0
0
3
3
2
2
0
0
0
0
0
0
0
0
0
0
0
0
0
0
0
0
0
0
0
0
0
0
0
0
3
3
2
2
0
0
0
0
0
0
0
0
0
0
0
0
0
0
0
0
0
0
0
0
0
0
0
0
3
3
2
2
0
0
0
0
0
0
0
0
0
0
0
0
0
0
0
0
0
0
0
0
0
0
0
0
3
3
2
2
0
0
0
0
0
0
0
0
0
0
0
0
0
0
0
0
0
0
0
0
0
0
0
0
3
3
2
2
0
0
0
0
0
0
0
0
0
0
0
0
0
0
0
0
0
0
0
0
0
0
0
0
3
3
2
2
0
0
0
0
0
0
0
0
0
0
0
0
0
0
0
0
0
0
0
0
0
0
0
0
3
3
2
2
0
0
0
0
0
0
0
0
0
0
0
0
0
0
0
0
0
0
0
0
0
0
0
0
3
3
2
2
0
0
0
0
0
0
0
0
0
0
0
0
0
0
0
0
0
0
0
0
0
0
0
0
3
3
2
2
0
0
0
0
0
0
0
0
0
0
0
0
0
0
0
0
0
0
0
0
0
0
0
0
3
3
2
2
0
0
0
0
0
0
0
0
0
0
0
0
0
0
0
0
0
0
0
0
0
0
0
0
3
3
2
2
0
0
0
0
0
0
0
0
0
0
0
0
0
0
0
0
0
0
0
0
0
0
0
0
3
3
2
2
0
0
0
0
0
0
0
0
0
0
0
0
0
0
0
0
0
0
0
0
0
0
0
0
3
3
2
2
0
0
0
0
0
0
0
0
0
0
0
0
0
0
0
0
0
0
0
0
0
0
0
0
3
3
2
2
0
0
0
0
0
0
0
0
0
0
0
0
0
0
0
0
0
0
0
0
0
0
0
0
3
3
2
2
0
0
0
0
0
0
0
0
0
0
0
0
0
0
0
0
0
0
0
0
0
0
0
0
3
3
2
2
0
0
0
0
0
0
0
0
0
0
0
0
0
0
0
0
0
0
0
0
0
0
0
0
3
3
2
2
0
0
0
0
0
0
0
0
0
0
0
0
0
0
0
0
0
0
0
0
0
0
0
0
3
3
2
2
0
0
0
0
0
0
0
0
0
0
0
0
0
0
0
0
0
0
0
0
0
0
0
0
3
3
2
2
0
0
0
0
0
0
0
0
0
0
0
0
0
0
0
0
0
0
0
0
0
0
0
0
3
3
2
2
0
0
0
0
0
0
0
0
0
0
0
0
0
0
0
0
0
0
0
0
0
0
0
0
3
3
2
2
0
0
0
0
0
0
0
0
0
0
0
0
0
0
0
0
0
0
0
0
0
0
0
0
3
3
2
2
0
0
0
0
0
0
0
0
0
0
0
0
0
0
0
0
0
0
0
0
0
0
0
0
3
3
2
2
0
0
0
0
0
0
0
0
0
0
0
0
0
0
0
0
0
0
0
0
0
0
0
0
3
3
2
2
0
0
0
0
0
0
0
0
0
0
0
0
0
0
0
0
0
0
0
0
0
0
0
0
3
3
2
2
0
0
0
0
0
0
0
0
0
0
0
0
0
0
0
0
0
0
0
0
0
0
0
0
3
3
2
2
0
0
0
0
0
0
0
0
0
0
0
0
0
0
0
0
0
0
0
0
0
0
0
0
3
3
2
2
0
0
0
0
0
0
0
0
0
0
0
0
0
0
0
0
0
0
0
0
0
0
0
0
3
3
2
2
0
0
0
0
0
0
0
0
0
0
0
0
0
0
0
0
0
0
0
0
0
0
0
0
3
3
2
2
0
0
0
0
0
0
0
0
0
0
0
0
0
0
0
0
0
0
0
0
0
0
0
0
3
3
2
2
0
0
0
0
0
0
0
0
0
0
0
0
0
0
0
0
0
0
0
0
0
0
0
0
3
3
2
2
0
0
0
0
0
0
0
0
0
0
0
0
0
0
0
0
0
0
0
0
0
0
0
0
3
3
2
2
0
0
0
0
0
0
0
0
0
0
0
0
0
0
0
0
0
0
0
0
0
0
0
0
3
3
2
2
0
0
0
0
0
0
0
0
0
0
0
0
0
0
0
0
0
0
0
0
0
0
0
0
3
3
2
2
0
0
0
0
0
0
0
0
0
0
0
0
0
0
0
0
0
0
0
0
0
0
0
0
3
3
2
2
0
0
0
0
0
0
0
0
0
0
0
0
0
0
0
0
0
0
0
0
0
0
0
0
3
3
2
2
0
0
0
0
0
0
0
0
0
0
0
0
0
0
0
0
0
0
0
0
0
0
0
0
3
3
2
2
2
2
2
2
2
2
2
2
2
2
2
2
2
2
2
2
2
2
2
2
2
2
2
2
3
3
2
2
2
2
2
2
2
2
2
2
2
2
2
2
2
2
2
2
2
2
2
2
2
2
2
2
3
3
3
3
3
3
3
3
3
3
3
3
3
3
3
3
3
3
3
3
3
3
3
3
3
3
3
3
3
3
3
3
3
3
3
3
3
3
3
3
3
3
3
3
3
3
3
3
3
3
3
3
3
3
3
3
</DataArray>
<DataArray NumberOfComponents='1' type='Float32' Name='Velocity' format='ascii'>
0.000000
0.000000
0.000000
0.000000
0.000000
0.000000
0.000000
0.000000
0.000000
0.000000
0.000000
0.000000
0.000000
0.000000
0.000000
0.000000
0.000000
0.000000
0.000000
0.000000
0.000000
0.000000
0.000000
0.000000
0.000000
0.000000
0.000000
0.000000
0.000000
0.000000
0.000000
0.000000
0.000000
0.000000
0.000000
0.000000
0.000000
0.000000
0.000000
0.000000
0.000000
0.000000
0.000000
0.000000
0.000000
0.000000
0.000000
0.000000
0.000000
0.000000
0.000000
0.000000
0.000000
0.000000
0.000000
0.000000
0.000000
0.000000
0.000000
0.000000
0.000000
0.000000
0.000000
0.000000
0.000000
0.000000
0.000000
0.000000
0.000000
0.000000
0.000000
0.000000
0.000000
0.000000
0.000000
0.000000
0.000000
0.000000
0.000000
0.000000
0.000000
0.000000
0.000000
0.000000
0.000000
0.000000
0.000000
0.000000
0.000000
0.000000
0.000000
0.000000
0.000000
0.000000
0.000000
0.000000
0.000000
0.000000
0.000000
0.000000
0.000000
0.000000
0.000000
0.000000
0.000000
0.000000
0.000000
0.000000
0.000000
0.000000
0.000000
0.000000
0.000000
0.000000
0.000000
0.000000
4401.161621
209.432266
69.776443
63.800991
0.714370
95356864.000000
112.232704
93.958267
68.601631
523.031189
2972.789062
365.436615
76158.250000
28429.998047
111.357567
899.529541
167.659378
1786.815552
165.982193
1675.793945
1003.694031
1089.573730
2536.401367
83049576.000000
1.000000
1.000000
1.000000
0.000000
0.000000
0.000000
0.000000
136.687805
129.709045
1797.824707
96.879707
5235.741211
41.727360
68.791496
63.836254
47321.554688
49285.574219
125.352783
152.047012
300.973907
2373.848389
23500.087891
1095.350098
147.619476
434.097321
2117.666748
487.092560
1443.865845
28240.095703
1150.477661
2972.096436
1.000000
1.000000
1.000000
0.000000
0.000000
0.000000
0.000000
129.656906
35737.625000
40.315853
4535.093262
88.375046
240.524765
239.073944
5320.190918
1053.868530
643.406311
239.639191
1881.199585
908.444275
1560.930420
959.052856
33.196056
5671.826660
3.643682
456.526611
148.540405
6866.573730
365.178131
9610.175781
2141.201904
1.000000
1.000000
1.000000
0.000000
0.000000
0.000000
0.000000
7.090001
164219952.000000
1579.384888
135656.203125
10448.532227
136.163406
227129.031250
175.606781
47.657475
123.067268
84.039543
3279.904541
124.842850
367.216614
222.505661
274.463867
2.763906
434.258545
127.860573
424.263763
3.944167
263.203247
3320.585449
41519.273438
1.000000
1.000000
1.000000
0.000000
0.000000
0.000000
0.000000
1029.129395
3411.292480
2796.189209
907.597717
68.777359
249.412552
1510.240479
139.218933
81647.484375
1770.125610
888.367554
12657.981445
35.186871
465.042053
666.692688
696.543884
10193.771484
2079.085205
170.677567
414.949860
196.210876
3741.494141
998466.625000
324624.781250
1.000000
1.000000
1.000000
0.000000
0.000000
0.000000
0.000000
118.354088
2240.550049
68.694504
296.193787
7866.756836
1.729049
452.886047
39.462215
387.677185
6514.514160
868.899963
97.273888
182.218246
42874.496094
12942.663086
269.181641
300.462921
6999.479980
13420.494141
9315.300781
12991.105469
556.819763
5252.395996
2126.362793
1.000000
1.000000
1.000000
0.000000
0.000000
0.000000
0.000000
623.722717
6835.077148
59.983498
107050.992188
1225.754395
336.427216
259.697968
440.057281
2508.001465
1695.166016
31802.394531
5951.674316
5386.748047
8406.708008
3477.328369
880.418823
17936.125000
6927.442871
37641568.000000
1225.030640
12991.772461
1128.991211
927.108398
4005.552002
1.000000
1.000000
1.000000
0.000000
0.000000
0.000000
0.000000
981.185059
2538.540039
1055.336060
936.515198
2479.677002
116.139816
27921.140625
287566.156250
1582.081055
1611.285767
97.147820
125.198494
318.654572
24645172.000000
1351.583252
15052.147461
1059.278931
1785.445557
1779.950806
4261.540527
17893.675781
2291.454590
1933.396240
2322.777832
1.000000
1.000000
1.000000
0.000000
0.000000
0.000000
0.000000
115.546028
10989698.000000
2051.619385
80.118256
754.688904
191.677017
20260.886719
484.527557
2113.028564
365.226654
6044.657227
389.178040
8532.686523
986.707214
153.267914
1.568069
174154.984375
199.455704
262.847443
68543.257812
1488.343750
26142.683594
91.978905
191028.375000
1.000000
1.000000
1.000000
0.000000
0.000000
0.000000
0.000000
43348.953125
292.656403
127.856102
8021.474121
16063.673828
668.298645
1457.662354
12930.062500
190196.296875
585.570496
162.198318
939.655762
1674.066162
199.233215
91.782234
133.751205
266763.218750
154.937546
350.090485
289706.187500
494.704041
1085.191895
95400.992188
95085.890625
1.000000
1.000000
1.000000
0.000000
0.000000
0.000000
0.000000
610.264099
130.737640
1761.469482
37.941521
1826.216675
195.238907
89.905014
158.276566
244.130493
163.253448
857.642883
2962.037598
2022.320068
667.654419
304234.031250
60897.406250
109189544.000000
855.536560
43347.984375
5692.299316
124.498199
9136.527344
3759.831543
3982.434326
1.000000
1.000000
1.000000
0.000000
0.000000
0.000000
0.000000
290.110046
1010911488.000000
272.338531
313831.718750
43311.804688
41954936.000000
8036.558594
9932.419922
327.528687
362.281738
1308.513184
11015329.000000
862.009216
7859819520.000000
27.492815
57765.035156
117242.046875
1863.524048
770.778687
50.903683
7545.497070
6939.790527
161842336.000000
7707.993164
1.000000
1.000000
1.000000
0.000000
0.000000
0.000000
0.000000
819.696655
297.058014
99.692238
88.922333
103.414062
10577.984375
156.637802
163.120270
138.677017
2391.322510
6692.502441
1620.925537
344.884460
58.942348
2805.638428
377.853027
241.996811
116.189690
425.905884
1686.574097
650.061279
69.506310
39987.769531
3991.767090
1.000000
1.000000
1.000000
0.000000
0.000000
0.000000
0.000000
81.594521
1941.649902
182.241714
32.637901
236.259964
332.089050
2332.265625
7073.073730
914.790588
1092.533569
20030.414062
71.737839
400.676544
251.455276
244.918900
9488.391602
49153.625000
262.828369
90296.828125
274.847748
6454.416016
1076.936768
5125.920898
998081.687500
1.000000
1.000000
1.000000
0.000000
0.000000
0.000000
0.000000
98.002617
81898.593750
121.707413
8.293283
140.420151
594.468323
78.020691
1772.201660
41956152.000000
80.558357
898.650085
1017.848877
339448.062500
24146.232422
482.673889
708.579651
1170.146729
221.821976
1296.486816
49.487667
1560.406006
82941672.000000
956.423950
15229.264648
1.000000
1.000000
1.000000
0.000000
0.000000
0.000000
0.000000
1402.014893
44920.703125
318.771423
282.874634
514.177979
909.164978
140.700500
1764.697876
215.388184
2619.445801
17710.685547
447.225555
2946.470215
662.149353
4.774291
48621.332031
94.555977
12590.303711
3793.515869
1772.047729
125.849579
1776.745728
1128.502075
15809.723633
1.000000
1.000000
1.000000
0.000000
0.000000
0.000000
0.000000
239.364990
1067.964478
196.729355
512.293213
23249.576172
52.146412
1826.426147
2046.601074
4755.601074
123.891029
612.724121
4968.300293
3887.476562
181.116501
276.492371
129.402084
361.825745
408.281677
159659.765625
188.968918
5939.154297
69.030800
99.539856
4415.180176
0.000000
0.000000
0.000000
0.000000
57.527519
39281.593750
2573.813477
150.659897
2675.951904
4871.250977
2316.565674
10128.709961
2525.537842
21141.681641
6729.311035
7730.252441
193.624298
98441824.000000
1950.305054
495978.718750
6310.384277
25976.556641
417.635376
552.849731
96046.179688
27242.652344
144.628937
1062.563843
0.000000
0.000000
0.000000
0.000000
1975.037231
607.621582
131.526108
374.802002
296.025604
5025.933594
118.981491
60.824146
150.527176
7906.481934
898.076416
3710.590088
98599.781250
230.990372
128.938644
157.522644
286.101715
528.241211
4829300.500000
19885750.000000
1371.308594
2165.131592
608.325562
15961.990234
0.000000
0.000000
0.000000
0.000000
50.895012
1298.005005
474.445129
3207.414062
3088.150146
286.564240
13265.640625
466.711243
123.425064
288258.031250
45.921436
1294.972290
523.666016
43177.656250
898.616760
1040.897217
1930363.250000
14036.084961
196.372528
50.270561
2958.455078
693.335938
1278.673462
4774220.000000
0.000000
0.000000
0.000000
0.000000
1512.902710
1346.870850
158.245682
4118.885742
43065.179688
615.308533
405.170105
351.387848
682.659790
301.357666
1742.146484
268.941772
592.593811
164.180725
117.923347
119.194427
5530499.500000
209.817123
1231.321167
347.729889
4797.762207
2296.072021
1829.006836
2450.399170
0.000000
0.000000
0.000000
0.000000
124.049072
729.326111
53.038040
1666460.000000
23588.011719
278.645599
60.792870
70.390198
1763.366333
6722.018555
203547328.000000
135.008118
2171.814941
812.338135
273.760101
112.797249
734.970764
198.461761
186.048096
325.514221
1228.526001
307293.531250
342.847931
1176.821899
0.000000
0.000000
0.000000
0.000000
360.859100
1507.945435
263.414825
1453.640869
119.985794
2300.594971
467.337372
39930.312500
93.999237
30677.169922
1209.905029
224.246185
3375.634033
60.218281
3205.815674
102359.648438
1629.554932
151.575714
3974.467041
249.564072
38518.199219
118.038628
655.588928
2748.649170
0.000000
0.000000
0.000000
0.000000
66.092697
3.185014
9624.410156
367294.187500
350.606201
207.776566
57535692.000000
21698.707031
793.409912
886.848633
6320.172852
1935943.625000
138.010620
97.821869
1905.127197
992.425964
1158.264893
1433.934204
4917.814941
1250.766235
203547792.000000
40052.703125
4401.855469
9517.464844
0.000000
0.000000
0.000000
0.000000
145.880753
598.796814
284.561035
5.671672
139930.187500
82.287651
13827.793945
1193.358398
401.031494
335.650391
795.577148
2115.078857
16375.457031
28250.339844
1570.619141
186.453598
254.150574
306.764984
1241.021973
6.206388
15372175.000000
117.605476
416.093811
1096.544922
0.000000
0.000000
0.000000
0.000000
617.634644
44.675854
3190.245850
904.140076
2151.291748
292.128479
709960.875000
349.275940
445.804810
9597.207031
672.410400
126.970406
41.259678
47.235092
440.379120
4.306990
1014.966309
849.938721
3603.700684
300.453644
3786.668213
12455.860352
5500.654297
4545.276367
0.000000
0.000000
0.000000
0.000000
1066.420532
133.370590
10160.063477
24003.652344
2.590850
79958.921875
81155.101562
140148.859375
2028.294678
91.150116
106.394127
325.431580
1349.543457
3.302933
879.868042
617.350708
66.306892
58.264481
950.523438
1053.663330
2137.832764
991.693848
155.551987
1799.584229
0.000000
0.000000
0.000000
0.000000
16074.734375
69402.585938
858.939514
102.427864
205149.765625
798.602234
161.353485
5018.194336
1243.749268
85.884361
24622.828125
22169.048828
254.965958
10534.145508
367.000122
285.669281
1437.493774
2015.616821
626.150391
27196.607422
234.517227
2188.278076
86.492989
8849.943359
0.000000
0.000000
0.000000
0.000000
16158.745117
112181.335938
699.991211
1520.325073
123.404716
94768.734375
303.693970
3356.323975
3158.408936
498.244110
450.781982
219.212204
1065.875977
4890.005859
12373.570312
82307.070312
81594.234375
25816.582031
577.472351
961.886169
163329.281250
107688.375000
1084.644897
2093.902344
0.000000
0.000000
0.000000
0.000000
466.835541
73.326912
66.433273
82.391663
107776.687500
3959.835205
1706.478149
234.401962
735.372192
663460.062500
2226.296875
1524.866089
1064.712524
23744.488281
49.142345
150.030334
100.765160
106.365074
1358.029907
228.209747
223.560394
2370.253906
370.192596
2052.858643
0.000000
0.000000
0.000000
0.000000
12854.917969
59.182911
786193.125000
729.899109
258.514984
305.047668
530.244934
1898.116943
6.876421
22493.492188
29818181648384.000000
494.685760
620.374329
779.497437
171.264160
811.857910
300.409058
138.563354
295.008820
63.567623
713.484924
32273.304688
7106.625977
6863.125488
0.000000
0.000000
0.000000
0.000000
1983.357300
11138.541016
1778.578369
152.702988
1581.439209
4642.686523
331.482910
12981.965820
19754.941406
343.014313
2985.937988
49007.941406
800.884827
248.840317
6126.155273
610.807922
1221.159912
541.036987
81.485054
3514.180420
90958.132812
376.238831
1714.233521
20956.642578
0.000000
0.000000
0.000000
0.000000
79.156105
66.580177
3365.600586
204.874481
19577.421875
2000.178833
801.615967
478.312897
550.354858
122.105270
41.270035
69.104088
106.955025
1251777920.000000
3622.981689
153.074127
237.498856
203.102951
126.989212
39097.035156
274.887482
5787.476562
22677.726562
5687.214355
0.000000
0.000000
0.000000
0.000000
109266000.000000
4917.513184
1114.501343
91.084282
153.701523
1108.014038
2.029389
95356440.000000
1635.091919
16808.042969
1745.694214
143.256042
24.076202
82.707916
24338.189453
245.930481
3994.067139
829.280762
1145.094971
151.059433
300.460480
2316.442383
11944.706055
5083.786133
0.000000
0.000000
0.000000
0.000000
128181.062500
4.559734
215609.859375
542.561157
122.309265
23.481409
151.515045
386.355682
545.945190
13220.929688
46276.214844
185422.375000
1085.001343
29612.689453
1152.099365
2769.669434
6082527.000000
240.665451
577.940491
46.723186
14900.022461
371.765778
2764.422119
23664962.000000
0.000000
0.000000
0.000000
0.000000
190375.000000
102.221695
551.778870
225.050583
22319.062500
3954.985107
9132.305664
117335.429688
1648.937500
535.080139
70.939301
684.976318
36312.191406
159.511475
41.483196
169.391464
202056.750000
4897.002930
1319.066284
105.301003
1744.151978
448.514771
708.741455
3154.197510
0.000000
0.000000
0.000000
0.000000
67.121399
2.170078
19159504.000000
965.023926
128.883011
501.576111
314.830750
2769.681641
363.829224
15206.757812
343.067230
295.047760
2974.766357
282.532257
399.979523
113043.070312
1572.961060
3447.420410
2615.989014
3026.817871
901.853271
756.360046
39003.113281
11095.408203
0.000000
0.000000
0.000000
0.000000
57.072392
424.065399
484.236969
8088.183105
657.581055
794.623535
2773.889893
168.253571
15409.585938
122.619308
1703.672485
279.683441
113.077812
77766.070312
1183.351318
2775.917236
650.846191
305.068542
3431.991699
1633.082275
530.262024
174256.421875
449.553223
79955.398438
0.000000
0.000000
0.000000
0.000000
33.357697
119.533966
113.769592
810.232483
100.287651
206.022644
75.289993
49.071091
15372272.000000
124.242470
80961.046875
448975.000000
1671.817627
153.328613
284.046783
98099.492188
2749.785889
944355.062500
362.563782
126.664467
21625.972656
66.923836
132.528824
4928.995117
0.000000
0.000000
0.000000
0.000000
83570.062500
170.589645
2840.995117
2176.703857
1036.291504
173768.734375
73.675873
644.942932
582.215820
37.736736
206.477768
479.439331
2.056675
3997.509521
3339.926514
587638.875000
256.276245
308.617462
215.538971
791.867981
694.976501
111.342545
204.221832
961.161987
0.000000
0.000000
0.000000
0.000000
107.540154
104.246544
170.930466
319320.937500
2212.929932
4.130382
217.889313
3245.330566
583.523254
6084.903809
7.682303
21588.785156
37.539688
427.177246
8697.589844
168.173981
28.715931
128166.570312
17502.097656
4531.328125
7180.397949
196818.234375
142.626373
7760.880371
0.000000
0.000000
0.000000
0.000000
334.010681
2919.917480
400.648926
90.098663
10511.025391
2768.978027
3062.910889
8100.865234
68835.500000
166.023148
215246224.000000
4244.366699
871.152527
226.162979
98.382294
488973.312500
35.895813
112331.835938
2101.887451
114.122154
2609.139160
2110.468506
86.669136
1156.574707
0.000000