<?xml version='1.0' encoding='UTF-8'?>
<VTKFile xmlns='VTK' byte_order='LittleEndian' version='0.1' type='UnstructuredGrid'>
<UnstructuredGrid>
<Piece NumberOfCells='2512' NumberOfPoints='2512'>
<Points>
<DataArray NumberOfComponents='3' type='Float32' Name='Position' format='ascii'>
-0.075000 -0.075000 0.000000
-0.075000 -0.050000 0.000000
-0.075000 -0.025000 0.000000
-0.075000 0.000000 0.000000
-0.075000 0.025000 0.000000
-0.075000 0.050000 0.000000
-0.075000 0.075000 0.000000
-0.075000 0.100000 0.000000
-0.075000 0.125000 0.000000
-0.075000 0.150000 0.000000
-0.075000 0.175000 0.000000
-0.075000 0.200000 0.000000
-0.075000 0.225000 0.000000
-0.075000 0.250000 0.000000
-0.075000 0.275000 0.000000
-0.075000 0.300000 0.000000
-0.075000 0.325000 0.000000
-0.075000 0.350000 0.000000
-0.075000 0.375000 0.000000
-0.075000 0.400000 0.000000
-0.075000 0.425000 0.000000
-0.075000 0.450000 0.000000
-0.075000 0.475000 0.000000
-0.075000 0.500000 0.000000
-0.075000 0.525000 0.000000
-0.075000 0.550000 0.000000
-0.075000 0.575000 0.000000
-0.075000 0.600000 0.000000
-0.050000 -0.075000 0.000000
-0.050000 -0.050000 0.000000
-0.050000 -0.025000 0.000000
-0.050000 0.000000 0.000000
-0.050000 0.025000 0.000000
-0.050000 0.050000 0.000000
-0.050000 0.075000 0.000000
-0.050000 0.100000 0.000000
-0.050000 0.125000 0.000000
-0.050000 0.150000 0.000000
-0.050000 0.175000 0.000000
-0.050000 0.200000 0.000000
-0.050000 0.225000 0.000000
-0.050000 0.250000 0.000000
-0.050000 0.275000 0.000000
-0.050000 0.300000 0.000000
-0.050000 0.325000 0.000000
-0.050000 0.350000 0.000000
-0.050000 0.375000 0.000000
-0.050000 0.400000 0.000000
-0.050000 0.425000 0.000000
-0.050000 0.450000 0.000000
-0.050000 0.475000 0.000000
-0.050000 0.500000 0.000000
-0.050000 0.525000 0.000000
-0.050000 0.550000 0.000000
-0.050000 0.575000 0.000000
-0.050000 0.600000 0.000000
-0.025000 -0.075000 0.000000
-0.025000 -0.050000 0.000000
-0.025000 -0.025000 0.000000
-0.025000 0.000000 0.000000
-0.025000 0.025000 0.000000
-0.025000 0.050000 0.000000
-0.025000 0.075000 0.000000
-0.025000 0.100000 0.000000
-0.025000 0.125000 0.000000
-0.025000 0.150000 0.000000
-0.025000 0.175000 0.000000
-0.025000 0.200000 0.000000
-0.025000 0.225000 0.000000
-0.025000 0.250000 0.000000
-0.025000 0.275000 0.000000
-0.025000 0.300000 0.000000
-0.025000 0.325000 0.000000
-0.025000 0.350000 0.000000
-0.025000 0.375000 0.000000
-0.025000 0.400000 0.000000
-0.025000 0.425000 0.000000
-0.025000 0.450000 0.000000
-0.025000 0.475000 0.000000
-0.025000 0.500000 0.000000
-0.025000 0.525000 0.000000
-0.025000 0.550000 0.000000
-0.025000 0.575000 0.000000
-0.025000 0.600000 0.000000
0.000000 -0.075000 0.000000
0.000000 -0.050000 0.000000
0.000000 -0.025000 0.000000
0.000000 0.000000 0.000000
0.000000 0.025000 0.000000
0.000000 0.050000 0.000000
0.000000 0.075000 0.000000
0.000000 0.100000 0.000000
0.000000 0.125000 0.000000
0.000000 0.150000 0.000000
0.000000 0.175000 0.000000
0.000000 0.200000 0.000000
0.000000 0.225000 0.000000
0.000000 0.250000 0.000000
0.000000 0.275000 0.000000
0.000000 0.300000 0.000000
0.000000 0.325000 0.000000
0.000000 0.350000 0.000000
0.000000 0.375000 0.000000
0.000000 0.400000 0.000000
0.000000 0.425000 0.000000
0.000000 0.450000 0.000000
0.000000 0.475000 0.000000
0.000000 0.500000 0.000000
0.000000 0.525000 0.000000
0.000000 0.550000 0.000000
0.000000 0.575000 0.000000
0.000000 0.600000 0.000000
0.025000 -0.075000 0.000000
0.025000 -0.050000 0.000000
0.025000 -0.025000 0.000000
0.025000 0.000000 0.000000
0.025273 0.024058 0.000000
0.025134 0.049362 0.000000
0.024767 0.075425 0.000000
0.024824 0.098512 0.000000
0.025976 0.124976 0.000000
0.024464 0.149246 0.000000
0.024776 0.176441 0.000000
0.025482 0.201737 0.000000
0.024211 0.226285 0.000000
0.025167 0.251123 0.000000
0.025254 0.275626 0.000000
0.024623 0.301055 0.000000
0.024917 0.326434 0.000000
0.024715 0.352648 0.000000
0.024012 0.379061 0.000000
0.025074 0.406506 0.000000
0.023122 0.434712 0.000000
0.023618 0.465224 0.000000
0.022964 0.494000 0.000000
0.023693 0.525247 0.000000
0.022281 0.564796 0.000000
0.032493 0.600000 0.000000
0.057259 0.600000 0.000000
0.016757 0.600000 0.000000
0.605000 0.625000 0.000000
0.605000 0.650000 0.000000
0.605000 0.675000 0.000000
0.050000 -0.075000 0.000000
0.050000 -0.050000 0.000000
0.050000 -0.025000 0.000000
0.050000 0.000000 0.000000
0.052917 0.024669 0.000000
0.047296 0.048050 0.000000
0.051501 0.077685 0.000000
0.048354 0.104971 0.000000
0.046623 0.137729 0.000000
0.048047 0.164438 0.000000
0.049041 0.191164 0.000000
0.051766 0.214722 0.000000
0.050752 0.239181 0.000000
0.050369 0.264507 0.000000
0.049481 0.288364 0.000000
0.048048 0.316922 0.000000
0.050310 0.341654 0.000000
0.046435 0.366409 0.000000
0.048257 0.393599 0.000000
0.045218 0.419031 0.000000
0.044908 0.446207 0.000000
0.047688 0.471685 0.000000
0.044778 0.494625 0.000000
0.045700 0.520076 0.000000
0.034959 0.549911 0.000000
0.055437 0.585146 0.000000
0.074471 0.564254 0.000000
0.077255 0.600000 0.000000
0.630000 0.625000 0.000000
0.630000 0.650000 0.000000
0.630000 0.675000 0.000000
0.075000 -0.075000 0.000000
0.075000 -0.050000 0.000000
0.075000 -0.025000 0.000000
0.075000 0.000000 0.000000
0.084967 0.023584 0.000000
0.070520 0.040532 0.000000
0.070881 0.074590 0.000000
0.072158 0.100338 0.000000
0.067484 0.122848 0.000000
0.076541 0.150511 0.000000
0.069366 0.173314 0.000000
0.078357 0.202482 0.000000
0.073972 0.226546 0.000000
0.075919 0.254407 0.000000
0.075881 0.278129 0.000000
0.070568 0.304447 0.000000
0.074203 0.328903 0.000000
0.073428 0.355775 0.000000
0.069998 0.382329 0.000000
0.073872 0.406640 0.000000
0.069534 0.431712 0.000000
0.068581 0.456552 0.000000
0.077464 0.480891 0.000000
0.076034 0.501399 0.000000
0.067277 0.526685 0.000000
0.056607 0.547979 0.000000
0.095825 0.563020 0.000000
0.093208 0.600000 0.000000
0.655000 0.625000 0.000000
0.655000 0.650000 0.000000
0.655000 0.675000 0.000000
0.100000 -0.075000 0.000000
0.100000 -0.050000 0.000000
0.100000 -0.025000 0.000000
0.100000 0.000000 0.000000
0.111322 0.023908 0.000000
0.091852 0.061845 0.000000
0.100598 0.084835 0.000000
0.099302 0.109798 0.000000
0.091585 0.134205 0.000000
0.099997 0.159319 0.000000
0.094682 0.183624 0.000000
0.101751 0.208552 0.000000
0.098001 0.234478 0.000000
0.099485 0.262335 0.000000
0.097749 0.290118 0.000000
0.097845 0.316064 0.000000
0.097337 0.340416 0.000000
0.096407 0.366935 0.000000
0.095912 0.389663 0.000000
0.098686 0.417579 0.000000
0.093483 0.440074 0.000000
0.098516 0.466765 0.000000
0.105125 0.491349 0.000000
0.096853 0.515894 0.000000
0.090255 0.542294 0.000000
0.115676 0.548732 0.000000
0.122165 0.580507 0.000000
0.111252 0.600000 0.000000
0.680000 0.625000 0.000000
0.680000 0.650000 0.000000
0.680000 0.675000 0.000000
0.125000 -0.075000 0.000000
0.125000 -0.050000 0.000000
0.125000 -0.025000 0.000000
0.125000 0.000000 0.000000
0.136018 0.027405 0.000000
0.107488 0.047835 0.000000
0.121599 0.073682 0.000000
0.126680 0.098695 0.000000
0.117816 0.121938 0.000000
0.126446 0.150113 0.000000
0.120661 0.172739 0.000000
0.125014 0.198726 0.000000
0.124762 0.224576 0.000000
0.120495 0.248496 0.000000
0.123806 0.274449 0.000000
0.118701 0.302571 0.000000
0.125748 0.324838 0.000000
0.119012 0.356638 0.000000
0.128669 0.375286 0.000000
0.116840 0.405509 0.000000
0.131061 0.423252 0.000000
0.115569 0.450838 0.000000
0.130473 0.470362 0.000000
0.118820 0.513317 0.000000
0.132854 0.537453 0.000000
0.143932 0.557290 0.000000
0.157400 0.582456 0.000000
0.130346 0.600000 0.000000
0.705000 0.625000 0.000000
0.705000 0.650000 0.000000
0.705000 0.675000 0.000000
0.150000 -0.075000 0.000000
0.150000 -0.050000 0.000000
0.150000 -0.025000 0.000000
0.150000 0.000000 0.000000
0.158886 0.024357 0.000000
0.135187 0.052148 0.000000
0.149108 0.081809 0.000000
0.150580 0.104359 0.000000
0.141222 0.132807 0.000000
0.152668 0.153457 0.000000
0.145189 0.184374 0.000000
0.150837 0.206636 0.000000
0.146849 0.237010 0.000000
0.147041 0.261064 0.000000
0.143484 0.287624 0.000000
0.151618 0.309298 0.000000
0.139793 0.340651 0.000000
0.155664 0.357476 0.000000
0.142075 0.390710 0.000000
0.156122 0.415238 0.000000
0.142243 0.443150 0.000000
0.156712 0.465483 0.000000
0.131064 0.493423 0.000000
0.156248 0.496517 0.000000
0.155180 0.517516 0.000000
0.159845 0.542052 0.000000
0.174509 0.600000 0.000000
0.148657 0.600000 0.000000
0.730000 0.625000 0.000000
0.730000 0.650000 0.000000
0.730000 0.675000 0.000000
0.175000 -0.075000 0.000000
0.175000 -0.050000 0.000000
0.175000 -0.025000 0.000000
0.175000 0.000000 0.000000
0.187620 0.023871 0.000000
0.158465 0.049778 0.000000
0.170488 0.072928 0.000000
0.179262 0.095825 0.000000
0.166366 0.122362 0.000000
0.178903 0.149665 0.000000
0.167321 0.171417 0.000000
0.176661 0.200311 0.000000
0.169235 0.223210 0.000000
0.172622 0.251588 0.000000
0.170121 0.275764 0.000000
0.173450 0.305737 0.000000
0.167220 0.331235 0.000000
0.177761 0.357674 0.000000
0.164078 0.388281 0.000000
0.179476 0.403663 0.000000
0.164258 0.439728 0.000000
0.187430 0.446386 0.000000
0.174519 0.478736 0.000000
0.191173 0.497331 0.000000
0.177396 0.523054 0.000000
0.192097 0.552052 0.000000
0.180689 0.567942 0.000000
0.188364 0.600000 0.000000
0.755000 0.625000 0.000000
0.755000 0.650000 0.000000
0.755000 0.675000 0.000000
0.200000 -0.075000 0.000000
0.200000 -0.050000 0.000000
0.200000 -0.025000 0.000000
0.200000 0.000000 0.000000
0.211536 0.025358 0.000000
0.182759 0.047766 0.000000
0.198620 0.077216 0.000000
0.200864 0.101572 0.000000
0.189430 0.127621 0.000000
0.203287 0.151775 0.000000
0.190921 0.183048 0.000000
0.203488 0.204116 0.000000
0.189782 0.236940 0.000000
0.202640 0.256989 0.000000
0.190829 0.283517 0.000000
0.199443 0.305944 0.000000
0.190479 0.330516 0.000000
0.207103 0.354318 0.000000
0.189026 0.376095 0.000000
0.211966 0.400138 0.000000
0.193544 0.421537 0.000000
0.213878 0.452205 0.000000
0.197023 0.469036 0.000000
0.210017 0.503899 0.000000
0.200489 0.529083 0.000000
0.218523 0.548622 0.000000
[...]
<PointData>
<DataArray NumberOfComponents='1' type='Int32' Name='ParticleType' format='ascii'>
3
3
3
3
3
3
3
3
3
3
3
3
3
3
3
3
3
3
3
3
3
3
3
3
3
3
3
3
3
3
3
3
3
3
3
3
3
3
3
3
3
3
3
3
3
3
3
3
3
3
3
3
3
3
3
3
3
3
2
2
2
2
2
2
2
2
2
2
2
2
2
2
2
2
2
2
2
2
2
2
2
2
2
2
3
3
2
2
2
2
2
2
2
2
2
2
2
2
2
2
2
2
2
2
2
2
2
2
2
2
2
2
3
3
2
2
0
0
0
0
0
0
0
0
0
0
0
0
0
0
0
0
0
0
0
0
0
0
0
0
1
1
1
3
3
2
2
0
0
0
0
0
0
0
0
0
0
0
0
0
0
0
0
0
0
0
0
0
0
0
0
1
1
1
3
3
2
2
0
0
0
0
0
0
0
0
0
0
0
0
0
0
0
0
0
0
0
0
0
0
0
0
1
1
1
3
3
2
2
0
0
0
0
0
0
0
0
0
0
0
0
0
0
0
0
0
0
0
0
0
0
0
0
1
1
1
3
3
2
2
0
0
0
0
0
0
0
0
0
0
0
0
0
0
0
0
0
0
0
0
0
0
0
0
1
1
1
3
3
2
2
0
0
0
0
0
0
0
0
0
0
0
0
0
0
0
0
0
0
0
0
0
0
0
0
1
1
1
3
3
2
2
0
0
0
0
0
0
0
0
0
0
0
0
0
0
0
0
0
0
0
0
0
0
0
0
1
1
1
3
3
2
2
0
0
0
0
0
0
0
0
0
0
0
0
0
0
0
0
0
0
0
0
0
0
0
0
1
1
1
3
3
2
2
0
0
0
0
0
0
0
0
0
0
0
0
0
0
0
0
0
0
0
0
0
0
0
0
1
1
1
3
3
2
2
0
0
0
0
0
0
0
0
0
0
0
0
0
0
0
0
0
0
0
0
0
0
0
0
1
1
1
3
3
2
2
0
0
0
0
0
0
0
0
0
0
0
0
0
0
0
0
0
0
0
0
0
0
0
0
1
1
1
3
3
2
2
0
0
0
0
0
0
0
0
0
0
0
0
0
0
0
0
0
0
0
0
0
0
0
0
1
1
1
3
3
2
2
0
0
0
0
0
0
0
0
0
0
0
0
0
0
0
0
0
0
0
0
0
0
0
0
1
1
1
3
3
2
2
0
0
0
0
0
0
0
0
0
0
0
0
0
0
0
0
0
0
0
0
0
0
0
0
1
1
1
3
3
2
2
0
0
0
0
0
0
0
0
0
0
0
0
0
0
0
0
0
0
0
0
0
0
0
0
1
1
1
3
3
2
2
0
0
0
0
0
0
0
0
0
0
0
0
0
0
0
0
0
0
0
0
0
0
0
0
1
1
1
3
3
2
2
0
0
0
0
0
0
0
0
0
0
0
0
0
0
0
0
0
0
0
0
0
0
0
0
3
3
2
2
0
0
0
0
0
0
0
0
0
0
0
0
0
0
0
0
0
0
0
0
0
0
0
0
3
3
2
2
0
0
0
0
0
0
0
0
0
0
0
0
0
0
0
0
0
0
0
0
0
0
0
0
3
3
2
2
0
0
0
0
0
0
0
0
0
0
0
0
0
0
0
0
0
0
0
0
0
0
0
0
3
3
2
2
0
0
0
0
0
0
0
0
0
0
0
0
0
0
0
0
0
0
0
0
0
0
0
0
3
3
2
2
0
0
0
0
0
0
0
0
0
0
0
0
0
0
0
0
0
0
0
0
0
0
0
0
3
3
2
2
0
0
0
0
0
0
0
0
0
0
0
0
0
0
0
0
0
0
0
0
0
0
0
0
3
3
2
2
0
0
0
0
0
0
0
0
0
0
0
0
0
0
0
0
0
0
0
0
0
0
0
0
3
3
2
2
0
0
0
0
0
0
0
0
0
0
0
0
0
0
0
0
0
0
0
0
0
0
0
0
3
3
2
2
0
0
0
0
0
0
0
0
0
0
0
0
0
0
0
0
0
0
0
0
0
0
0
0
3
3
2
2
0
0
0
0
0
0
0
0
0
0
0
0
0
0
0
0
0
0
0
0
0
0
0
0
3
3
2
2
0
0
0
0
0
0
0
0
0
0
0
0
0
0
0
0
0
0
0
0
0
0
0
0
3
3
2
2
0
0
0
0
0
0
0
0
0
0
0
0
0
0
0
0
0
0
0
0
0
0
0
0
3
3
2
2
0
0
0
0
0
0
0
0
0
0
0
0
0
0
0
0
0
0
0
0
0
0
0
0
3
3
2
2
0
0
0
0
0
0
0
0
0
0
0
0
0
0
0
0
0
0
0
0
0
0
0
0
3
3
2
2
0
0
0
0
0
0
0
0
0
0
0
0
0
0
0
0
0
0
0
0
0
0
0
0
3
3
2
2
0
0
0
0
0
0
0
0
0
0
0
0
0
0
0
0
0
0
0
0
0
0
0
0
3
3
2
2
0
0
0
0
0
0
0
0
0
0
0
0
0
0
0
0
0
0
0
0
0
0
0
0
3
3
2
2
0
0
0
0
0
0
0
0
0
0
0
0
0
0
0
0
0
0
0
0
0
0
0
0
3
3
2
2
0
0
0
0
0
0
0
0
0
0
0
0
0
0
0
0
0
0
0
0
0
0
0
0
3
3
2
2
0
0
0
0
0
0
0
0
0
0
0
0
0
0
0
0
0
0
0
0
0
0
0
0
3
3
2
2
0
0
0
0
0
0
0
0
0
0
0
0
0
0
0
0
0
0
0
0
0
0
0
0
3
3
2
2
0
0
0
0
0
0
0
0
0
0
0
0
0
0
0
0
0
0
0
0
0
0
0
0
3
3
2
2
0
0
0
0
0
0
0
0
0
0
0
0
0
0
0
0
0
0
0
0
0
0
0
0
3
3
2
2
0
0
0
0
0
0
0
0
0
0
0
0
0
0
0
0
0
0
0
0
0
0
0
0
3
3
2
2
0
0
0
0
0
0
0
0
0
0
0
0
0
0
0
0
0
0
0
0
0
0
0
0
3
3
2
2
0
0
0
0
0
0
0
0
0
0
0
0
0
0
0
0
0
0
0
0
0
0
0
0
3
3
2
2
0
0
0
0
0
0
0
0
0
0
0
0
0
0
0
0
0
0
0
0
0
0
0
0
3
3
2
2
0
0
0
0
0
0
0
0
0
0
0
0
0
0
0
0
0
0
0
0
0
0
0
0
3
3
2
2
0
0
0
0
0
0
0
0
0
0
0
0
0
0
0
0
0
0
0
0
0
0
0
0
3
3
2
2
0
0
0
0
0
0
0
0
0
0
0
0
0
0
0
0
0
0
0
0
0
0
0
0
3
3
2
2
0
0
0
0
0
0
0
0
0
0
0
0
0
0
0
0
0
0
0
0
0
0
0
0
3
3
2
2
0
0
0
0
0
0
0
0
0
0
0
0
0
0
0
0
0
0
0
0
0
0
0
0
3
3
2
2
0
0
0
0
0
0
0
0
0
0
0
0
0
0
0
0
0
0
0
0
0
0
0
0
3
3
2
2
0
0
0
0
0
0
0
0
0
0
0
0
0
0
0
0
0
0
0
0
0
0
0
0
3
3
2
2
0
0
0
0
0
0
0
0
0
0
0
0
0
0
0
0
0
0
0
0
0
0
0
0
3
3
2
2
0
0
0
0
0
0
0
0
0
0
0
0
0
0
0
0
0
0
0
0
0
0
0
0
3
3
2
2
0
0
0
0
0
0
0
0
0
0
0
0
0
0
0
0
0
0
0
0
0
0
0
0
3
3
2
2
0
0
0
0
0
0
0
0
0
0
0
0
0
0
0
0
0
0
0
0
0
0
0
0
3
3
2
2
0
0
0
0
0
0
0
0
0
0
0
0
0
0
0
0
0
0
0
0
0
0
0
0
3
3
2
2
0
0
0
0
0
0
0
0
0
0
0
0
0
0
0
0
0
0
0
0
0
0
0
0
3
3
2
2
0
0
0
0
0
0
0
0
0
0
0
0
0
0
0
0
0
0
0
0
0
0
0
0
3
3
2
2
0
0
0
0
0
0
0
0
0
0
0
0
0
0
0
0
0
0
0
0
0
0
0
0
3
3
2
2
0
0
0
0
0
0
0
0
0
0
0
0
0
0
0
0
0
0
0
0
0
0
0
0
3
3
2
2
0
0
0
0
0
0
0
0
0
0
0
0
0
0
0
0
0
0
0
0
0
0
0
0
3
3
2
2
0
0
0
0
0
0
0
0
0
0
0
0
0
0
0
0
0
0
0
0
0
0
0
0
3
3
2
2
0
0
0
0
0
0
0
0
0
0
0
0
0
0
0
0
0
0
0
0
0
0
0
0
3
3
2
2
0
0
0
0
0
0
0
0
0
0
0
0
0
0
0
0
0
0
0
0
0
0
0
0
3
3
2
2
0
0
0
0
0
0
0
0
0
0
0
0
0
0
0
0
0
0
0
0
0
0
0
0
3
3
2
2
0
0
0
0
0
0
0
0
0
0
0
0
0
0
0
0
0
0
0
0
0
0
0
0
3
3
2
2
0
0
0
0
0
0
0
0
0
0
0
0
0
0
0
0
0
0
0
0
0
0
0
0
3
3
2
2
0
0
0
0
0
0
0
0
0
0
0
0
0
0
0
0
0
0
0
0
0
0
0
0
3
3
2
2
0
0
0
0
0
0
0
0
0
0
0
0
0
0
0
0
0
0
0
0
0
0
0
0
3
3
2
2
0
0
0
0
0
0
0
0
0
0
0
0
0
0
0
0
0
0
0
0
0
0
0
0
3
3
2
2
0
0
0
0
0
0
0
0
0
0
0
0
0
0
0
0
0
0
0
0
0
0
0
0
3
3
2
2
0
0
0
0
0
0
0
0
0
0
0
0
0
0
0
0
0
0
0
0
0
0
0
0
3
3
2
2
0
0
0
0
0
0
0
0
0
0
0
0
0
0
0
0
0
0
0
0
0
0
0
0
3
3
2
2
0
0
0
0
0
0
0
0
0
0
0
0
0
0
0
0
0
0
0
0
0
0
0
0
3
3
2
2
0
0
0
0
0
0
0
0
0
0
0
0
0
0
0
0
0
0
0
0
0
0
0
0
3
3
2
2
0
0
0
0
0
0
0
0
0
0
0
0
0
0
0
0
0
0
0
0
0
0
0
0
3
3
2
2
0
0
0
0
0
0
0
0
0
0
0
0
0
0
0
0
0
0
0
0
0
0
0
0
3
3
2
2
0
0
0
0
0
0
0
0
0
0
0
0
0
0
0
0
0
0
0
0
0
0
0
0
3
3
2
2
0
0
0
0
0
0
0
0
0
0
0
0
0
0
0
0
0
0
0
0
0
0
0
0
3
3
2
2
0
0
0
0
0
0
0
0
0
0
0
0
0
0
0
0
0
0
0
0
0
0
0
0
3
3
2
2
2
2
2
2
2
2
2
2
2
2
2
2
2
2
2
2
2
2
2
2
2
2
2
2
3
3
2
2
2
2
2
2
2
2
2
2
2
2
2
2
2
2
2
2
2
2
2
2
2
2
2
2
3
3
3
3
3
3
3
3
3
3
3
3
3
3
3
3
3
3
3
3
3
3
3
3
3
3
3
3
3
3
3
3
3
3
3
3
3
3
3
3
3
3
3
3
3
3
3
3
3
3
3
3
3
3
3
3
</DataArray>
<DataArray NumberOfComponents='1' type='Float32' Name='Velocity' format='ascii'>
0.000000
0.000000
0.000000
0.000000
0.000000
0.000000
0.000000
0.000000
0.000000
0.000000
0.000000
0.000000
0.000000
0.000000
0.000000
0.000000
0.000000
0.000000
0.000000
0.000000
0.000000
0.000000
0.000000
0.000000
0.000000
0.000000
0.000000
0.000000
0.000000
0.000000
0.000000
0.000000
0.000000
0.000000
0.000000
0.000000
0.000000
0.000000
0.000000
0.000000
0.000000
0.000000
0.000000
0.000000
0.000000
0.000000
0.000000
0.000000
0.000000
0.000000
0.000000
0.000000
0.000000
0.000000
0.000000
0.000000
0.000000
0.000000
0.000000
0.000000
0.000000
0.000000
0.000000
0.000000
0.000000
0.000000
0.000000
0.000000
0.000000
0.000000
0.000000
0.000000
0.000000
0.000000
0.000000
0.000000
0.000000
0.000000
0.000000
0.000000
0.000000
0.000000
0.000000
0.000000
0.000000
0.000000
0.000000
0.000000
0.000000
0.000000
0.000000
0.000000
0.000000
0.000000
0.000000
0.000000
0.000000
0.000000
0.000000
0.000000
0.000000
0.000000
0.000000
0.000000
0.000000
0.000000
0.000000
0.000000
0.000000
0.000000
0.000000
0.000000
0.000000
0.000000
0.000000
0.000000
0.057069
0.043227
0.139054
0.124496
0.038611
0.079956
0.027328
0.121338
0.082104
0.069627
0.027635
0.063531
0.056251
0.090348
0.030809
0.033373
0.096820
0.087032
0.030519
0.155679
0.367162
0.951503
3.727481
3.315826
1.000000
1.000000
1.000000
0.000000
0.000000
0.000000
0.000000
0.148370
0.162891
0.152590
0.114924
0.138652
0.134348
0.083441
0.075615
0.038556
0.083336
0.100965
0.104724
0.163033
0.116090
0.209287
0.119588
0.305442
0.188225
0.157039
0.148935
0.151224
0.165313
0.441418
2.040819
1.000000
1.000000
1.000000
0.000000
0.000000
0.000000
0.000000
0.215081
0.144461
0.119712
0.067599
0.081652
0.198968
0.110158
0.140960
0.163907
0.138448
0.165286
0.092447
0.211011
0.130293
0.242883
0.139977
0.110190
0.132865
0.208186
0.101132
0.117887
0.244299
0.126154
0.358973
1.000000
1.000000
1.000000
0.000000
0.000000
0.000000
0.000000
0.115224
0.077613
0.201939
0.119001
0.160881
0.051966
0.068171
0.083437
0.035857
0.046869
0.077883
0.040446
0.061554
0.050472
0.011829
0.036294
0.086052
0.078451
0.094919
0.065989
0.113927
0.016487
0.286828
2.607318
1.000000
1.000000
1.000000
0.000000
0.000000
0.000000
0.000000
0.094203
0.200642
0.047975
0.022591
0.043441
0.189201
0.092706
0.133067
0.111510
0.125299
0.081853
0.147789
0.065287
0.128041
0.112246
0.072538
0.121696
0.173766
0.178197
0.180475
0.211045
0.323975
0.238024
1.833883
1.000000
1.000000
1.000000
0.000000
0.000000
0.000000
0.000000
0.068738
0.096597
0.119679
0.024621
0.063570
0.136473
0.029670
0.005761
0.055761
0.091965
0.105970
0.080500
0.023101
0.074969
0.069010
0.227483
0.104636
0.226566
0.244901
0.293875
0.218197
0.230488
0.874799
2.734141
1.000000
1.000000
1.000000
0.000000
0.000000
0.000000
0.000000
0.117841
0.093820
0.096563
0.065800
0.040691
0.122948
0.026354
0.160074
0.073635
0.230116
0.089116
0.157139
0.160500
0.163922
0.133722
0.044007
0.155098
0.143369
0.118187
0.159278
0.139017
0.057975
0.278739
1.301056
1.000000
1.000000
1.000000
0.000000
0.000000
0.000000
0.000000
0.126752
0.159804
0.090496
0.033564
0.077756
0.042422
0.184763
0.090844
0.195757
0.025543
0.102750
0.072367
0.112204
0.120592
0.120620
0.064980
0.073926
0.076662
0.149181
0.157871
0.150147
0.049033
0.256847
2.373992
1.000000
1.000000
1.000000
0.000000
0.000000
0.000000
0.000000
0.073172
0.133261
0.053350
0.101075
0.097655
0.088409
0.075240
0.124500
0.111981
0.089677
0.071650
0.112784
0.131821
0.151877
0.110853
0.100434
0.121173
0.060994
0.115218
0.085648
0.071399
0.261242
0.154804
1.051067
1.000000
1.000000
1.000000
0.000000
0.000000
0.000000
0.000000
0.120439
0.167616
0.046050
0.027846
0.085961
0.026121
0.078189
0.060030
0.093062
0.072021
0.108692
0.068276
0.088834
0.010706
0.037887
0.071988
0.063962
0.122227
0.125724
0.064230
0.178889
0.170915
0.054583
1.518774
1.000000
1.000000
1.000000
0.000000
0.000000
0.000000
0.000000
0.073485
0.113051
0.050861
0.102487
0.079123
0.063880
0.074886
0.102612
0.073599
0.059180
0.022036
0.054604
0.098240
0.094212
0.105966
0.105517
0.063184
0.039856
0.154650
0.050996
0.091832
0.103296
0.222951
0.592307
1.000000
1.000000
1.000000
0.000000
0.000000
0.000000
0.000000
0.100949
0.157524
0.101079
0.081490
0.136202
0.134667
0.074084
0.042986
0.070812
0.071632
0.109966
0.086212
0.067204
0.084636
0.047813
0.053286
0.065945
0.028519
0.031542
0.155640
0.110395
0.058468
0.267793
1.018895
1.000000
1.000000
1.000000
0.000000
0.000000
0.000000
0.000000
0.065055
0.117741
0.060903
0.049997
0.093330
0.065812
0.105114
0.010640
0.058002
0.016459
0.025726
0.034379
0.051374
0.052703
0.126312
0.059631
0.119065
0.043485
0.123879
0.109206
0.043310
0.111962
0.155230
0.336725
1.000000
1.000000
1.000000
0.000000
0.000000
0.000000
0.000000
0.059518
0.138488
0.083908
0.034351
0.045728
0.073728
0.027825
0.065646
0.035454
0.049425
0.017345
0.111231
0.030286
0.041249
0.041817
0.086930
0.056157
0.095114
0.074173
0.118278
0.157236
0.066249
0.079226
0.688765
1.000000
1.000000
1.000000
0.000000
0.000000
0.000000
0.000000
0.072431
0.056365
0.031563
0.099624
0.112320
0.091429
0.071504
0.078646
0.077948
0.089172
0.050637
0.138651
0.045845
0.104163
0.113007
0.108162
0.051706
0.108835
0.039818
0.062615
0.088587
0.140112
0.244064
1.365350
1.000000
1.000000
1.000000
0.000000
0.000000
0.000000
0.000000
0.083592
0.121894
0.081169
0.052537
0.110295
0.058974
0.084122
0.059339
0.056725
0.029227
0.039469
0.037523
0.006609
0.060591
0.128480
0.171038
0.084533
0.175838
0.068257
0.106987
0.091805
0.130679
0.315366
0.976224
1.000000
1.000000
1.000000
0.000000
0.000000
0.000000
0.000000
0.073117
0.079875
0.031482
0.021244
0.043391
0.082430
0.098230
0.095790
0.100356
0.101383
0.119051
0.154299
0.165797
0.063801
0.037796
0.133832
0.198564
0.054263
0.118631
0.110719
0.141343
0.029651
0.077715
1.125929
0.000000
0.000000
0.000000
0.000000
0.049252
0.152894
0.041902
0.056254
0.013094
0.105391
0.100393
0.078702
0.097284
0.095770
0.090371
0.099327
0.073873
0.010962
0.127502
0.116279
0.057640
0.052330
0.028316
0.138741
0.256367
0.070056
0.326060
2.598152
0.000000
0.000000
0.000000
0.000000
0.054924
0.086004
0.044546
0.017031
0.044573
0.095596
0.137414
0.108300
0.118214
0.102719
0.186397
0.132572
0.131567
0.114007
0.091739
0.154085
0.068127
0.100766
0.100822
0.083147
0.093838
0.049633
0.422511
0.974483
0.000000
0.000000
0.000000
0.000000
0.054233
0.163744
0.087657
0.027354
0.022970
0.096381
0.134895
0.075716
0.107385
0.012663
0.106797
0.038330
0.025677
0.080278
0.035668
0.158975
0.105284
0.143640
0.104547
0.111750
0.237433
0.237584
0.055824
9.071985
0.000000
0.000000
0.000000
0.000000
0.059640
0.074246
0.061980
0.054530
0.018717
0.101501
0.145056
0.041671
0.055774
0.096710
0.132774
0.118750
0.138328
0.203142
0.029383
0.071186
0.044877
0.041496
0.150436
0.195616
0.036260
0.084898
0.206606
1.295933
0.000000
0.000000
0.000000
0.000000
0.074692
0.113892
0.093054
0.055416
0.024730
0.039039
0.147524
0.012713
0.036306
0.063705
0.057221
0.025957
0.046343
0.009376
0.011521
0.151538
0.084551
0.275609
0.071322
0.112994
0.037473
0.130623
0.195753
1.241754
0.000000
0.000000
0.000000
0.000000
0.068041
0.066970
0.043772
0.058472
0.030228
0.066727
0.097619
0.037105
0.112510
0.028046
0.098144
0.052146
0.106878
0.050919
0.149875
0.049254
0.047390
0.009818
0.063474
0.046791
0.051460
0.023087
0.279291
1.361026
0.000000
0.000000
0.000000
0.000000
0.052226
0.098814
0.044312
0.040148
0.019859
0.057748
0.099075
0.028640
0.071701
0.014585
0.083685
0.026858
0.060578
0.072748
0.066258
0.078882
0.105952
0.014798
0.179371
0.105950
0.039282
0.124774
0.127715
0.343343
0.000000
0.000000
0.000000
0.000000
0.054982
0.030779
0.030979
0.075323
0.056111
0.037772
0.047608
0.033586
0.038505
0.051992
0.097593
0.056968
0.039674
0.041311
0.069427
0.015505
0.048086
0.013810
0.098444
0.040499
0.081348
0.104014
0.085137
0.136323
0.000000
0.000000
0.000000
0.000000
0.078814
0.072201
0.011016
0.046971
0.085479
0.006797
0.122241
0.029273
0.071465
0.050736
0.045653
0.037516
0.061147
0.059159
0.086052
0.065864
0.068335
0.055104
0.083342
0.059334
0.089274
0.183973
0.085258
0.120432
0.000000
0.000000
0.000000
0.000000
0.048273
0.056590
0.024390
0.068933
0.063807
0.053395
0.083375
0.052620
0.104826
0.062044
0.092252
0.068318
0.018480
0.068628
0.025509
0.064178
0.054969
0.070658
0.022418
0.125354
0.130004
0.072351
0.032585
0.323695
0.000000
0.000000
0.000000
0.000000
0.096175
0.086049
0.027393
0.054539
0.100539
0.042397
0.091585
0.033910
0.070866
0.033017
0.054061
0.018593
0.047660
0.044313
0.018305
0.109092
0.071469
0.146969
0.087642
0.117967
0.040196
0.083085
0.134132
1.127848
0.000000
0.000000
0.000000
0.000000
0.044788
0.066702
0.016612
0.047544
0.093975
0.056107
0.076894
0.024401
0.074463
0.023872
0.028674
0.072757
0.017127
0.052667
0.026691
0.048392
0.018147
0.103853
0.062097
0.164926
0.082810
0.127764
0.135447
1.448741
0.000000
0.000000
0.000000
0.000000
0.084485
0.068105
0.067896
0.030183
0.085238
0.035057
0.080462
0.038389
0.063740
0.064118
0.063243
0.044083
0.046012
0.022995
0.021720
0.044569
0.049620
0.032918
0.093170
0.029886
0.149714
0.085653
0.067808
0.619561
0.000000
0.000000
0.000000
0.000000
0.055086
0.048074
0.032550
0.037454
0.099331
0.051824
0.084262
0.036262
0.101374
0.046100
0.089909
0.039039
0.089234
0.045797
0.105023
0.020902
0.081440
0.070788
0.106335
0.077796
0.089652
0.085914
0.070261
0.710296
0.000000
0.000000
0.000000
0.000000
0.062456
0.046481
0.091110
0.017985
0.088590
0.053944
0.091986
0.059180
0.088784
0.045605
0.085915
0.053639
0.075919
0.008805
0.052524
0.032160
0.055177
0.082766
0.059356
0.075420
0.050439
0.042437
0.039459
0.525383
0.000000
0.000000
0.000000
0.000000
0.083853
0.028671
0.045921
0.035456
0.093614
0.043145
0.077433
0.024134
0.083309
0.055368
0.084165
0.043015
0.073659
0.053879
0.069701
0.068564
0.038402
0.082748
0.032407
0.048237
0.113268
0.102561
0.102251
0.271570
0.000000
0.000000
0.000000
0.000000
0.050585
0.020678
0.100694
0.014425
0.088500
0.054780
0.070665
0.056894
0.078141
0.037715
0.053004
0.057727
0.043985
0.045959
0.034192
0.051552
0.053257
0.083228
0.070213
0.092589
0.051444
0.024167
0.110065
0.152947
0.000000
0.000000
0.000000
0.000000
0.112292
0.026503
0.069930
0.014875
0.085206
0.048446
0.074520
0.029219
0.070211
0.054792
0.066455
0.036121
0.044529
0.044796
0.033265
0.059374
0.055671
0.057135
0.090716
0.090803
0.108972
0.024061
0.045386
0.100349
0.000000
0.000000
0.000000
0.000000
0.054361
0.009692
0.100628
0.020010
0.085097
0.058486
0.072117
0.053184
0.081550
0.045424
0.065445
0.055096
0.052065
0.043513
0.021882
0.025255
0.022703
0.015545
0.044789
0.034791
0.040932
0.008312
0.111147
0.072333
0.000000
0.000000
0.000000
0.000000
0.110166
0.019016
0.082954
0.009333
0.072037
0.058155
0.073479
0.056479
0.081102
0.054325
0.076608
0.050640
0.060067
0.030907
0.044711
0.041918
0.008156
0.065578
0.039051
0.093123
0.108208
0.187755
0.029183
0.219369
0.000000
0.000000
0.000000
0.000000
0.069847
0.007491
0.096935
0.017419
0.086388
0.075528
0.083295
0.054106
0.084194
0.057942
0.087497
0.040335
0.060542
0.045191
0.032159
0.043795
0.008836
0.052000
0.099326
0.117181
0.229816
0.121073
0.059439
0.693476
0.000000
0.000000
0.000000
0.000000
0.100202
0.014705
0.086355
0.009461
0.064433
0.063922
0.071419
0.061837
0.075085
0.049119
0.074511
0.045017
0.071202
0.010204
0.046841
0.039350
0.012226
0.078840
0.031311
0.047592
0.136307
0.140559
0.294669
1.389497
0.000000
0.000000
0.000000
0.000000
0.074519
0.008296
0.096031
0.010563
0.062545
0.064689
0.067657
0.049395
0.077621
0.056234
0.088038
0.050910
0.076223
0.060827
0.061226
0.057058
0.041363
0.027101
0.010929
0.013913
0.096712
0.125419
0.489557
1.925351
0.000000
0.000000
0.000000
0.000000
0.085417
0.007651
0.087003
0.008680
0.036500
0.067806
0.065752
0.064636
0.062824
0.055661
0.076228
0.048860
0.082841
0.023442
0.075208
0.034296
0.072879
0.051028
0.061070
0.061298
0.028511
0.064127
0.178568
2.912345
0.000000
0.000000
0.000000
0.000000
0.082927
0.005327
0.089547
0.015419
0.038176
0.068756
0.068526
0.064223
0.083793
0.068597
0.094196
0.059715
0.088510
0.058518
0.078819
0.079060
0.069307
0.069455
0.040300
0.054954
0.057705
0.055513
0.145222
3.174523
0.000000
0.000000
0.000000
0.000000
0.068313
0.006879
0.082857
0.008832
0.010331
0.065728
0.064322
0.063900
0.068585
0.059340
0.088478
0.051860
0.099309
0.039987
0.109140
0.011479
0.078565
0.033673
0.078671
0.052569
0.051719
0.047432
0.209117
2.985307
0.000000
0.000000
0.000000
0.000000
0.088735
0.011774
0.083468
0.011358
0.011879
0.054900
0.056439
0.058776
0.072389
0.055973
0.084600
0.063712
0.110987
0.049311
0.093414
0.056730
0.087534
0.044047
0.037937
0.018934
0.022971
0.065660
0.100544
3.401426
0.000000
0.000000
0.000000
0.000000
0.061517
0.012724
0.073314
0.017225
0.023072
0.052163
0.045040
0.053815
0.053686
0.053357
0.088727
0.054453
0.097264
0.040097
0.103372
0.018999
0.121450
0.026075
0.100605
0.017281
0.107124
0.040382
0.241230
3.046403
0.000000
0.000000
0.000000
0.000000
0.075914
0.014571
0.068166
0.020290
0.036379
0.048604
0.048780
0.052897
0.070154
0.047786
0.076941
0.027643
0.097214
0.030969
0.139458
0.015599
0.135837
0.038253
0.058149
0.035023
0.022476
0.031599
0.078432
3.299963
0.000000
0.000000
0.000000
0.000000
0.074651
0.018275
0.062899
0.020250
0.046262
0.050973
0.041741
0.050586
0.063381
0.053807
0.088154
0.058656
0.126410
0.036467
0.149511
0.023260
0.159428
0.018759
0.051867
0.039492
0.061406
0.030010
0.215718
2.984039
0.000000
0.000000
0.000000
0.000000
0.061215
0.024772
0.055854
0.024810
0.061927
0.034150
0.042908
0.049338
0.069415
0.038068
0.094136
0.044443
0.131806
0.065466
0.180632
0.073438
0.102126
0.009229
0.052238
0.043531
0.024061
0.057140
0.069011
3.048429
0.000000
0.000000
0.000000
0.000000
0.077414
0.024864
0.052435
0.030028
0.071356
0.035218
0.035309
0.040878
0.076713
0.051367
0.115582
0.035065
0.148517
0.028104
0.137410
0.006432
0.071486
0.062288
0.079161
0.081942
0.054812
0.058610
0.186794
2.827954
0.000000
0.000000
0.000000
0.000000
0.052461
0.035350
0.037956
0.028819
0.067218
0.032289
0.048783
0.035919
0.098356
0.047609
0.120358
0.083404
0.159704
0.088996
0.130815
0.040145
0.117947
0.025861
0.079287
0.050259
0.074275
0.047723
0.137091
2.923191
0.000000
0.000000
0.000000
0.000000
0.062058
0.034870
0.033025
0.035876
0.078845
0.035303
0.043169
0.025879
0.081422
0.019577
0.123784
0.013401
0.127035
0.020204
0.027569
0.109434
0.119171
0.111350
0.049577
0.032419
0.054078
0.094040
0.183979
2.682284
0.000000
0.000000
0.000000
0.000000
0.053646
0.040861
0.028954
0.040364
0.072755
0.035527
0.049358
0.042942
0.103929
0.061429
0.126989
0.066048
0.112087
0.029553
0.107296
0.035187
0.096107
0.067836
0.079602
0.015365
0.148740
0.079341
0.183818
2.724532
0.000000
0.000000
0.000000
0.000000
0.052741
0.053850
0.018958
0.046179
0.075260
0.039393
0.047565
0.016388
0.097982
0.011405
0.122269
0.008287
0.048655
0.067650
0.089975
0.083864
0.069428
0.051062
0.060231
0.016989
0.119040
0.068794
0.193899