<?xml version='1.0' encoding='UTF-8'?>
<VTKFile xmlns='VTK' byte_order='LittleEndian' version='0.1' type='UnstructuredGrid'>
<UnstructuredGrid>
<Piece NumberOfCells='2512' NumberOfPoints='2512'>
<Points>
<DataArray NumberOfComponents='3' type='Float32' Name='Position' format='ascii'>
-0.075000 -0.075000 0.000000
-0.075000 -0.050000 0.000000
-0.075000 -0.025000 0.000000
-0.075000 0.000000 0.000000
-0.075000 0.025000 0.000000
-0.075000 0.050000 0.000000
-0.075000 0.075000 0.000000
-0.075000 0.100000 0.000000
-0.075000 0.125000 0.000000
-0.075000 0.150000 0.000000
-0.075000 0.175000 0.000000
-0.075000 0.200000 0.000000
-0.075000 0.225000 0.000000
-0.075000 0.250000 0.000000
-0.075000 0.275000 0.000000
-0.075000 0.300000 0.000000
-0.075000 0.325000 0.000000
-0.075000 0.350000 0.000000
-0.075000 0.375000 0.000000
-0.075000 0.400000 0.000000
-0.075000 0.425000 0.000000
-0.075000 0.450000 0.000000
-0.075000 0.475000 0.000000
-0.075000 0.500000 0.000000
-0.075000 0.525000 0.000000
-0.075000 0.550000 0.000000
-0.075000 0.575000 0.000000
-0.075000 0.600000 0.000000
-0.050000 -0.075000 0.000000
-0.050000 -0.050000 0.000000
-0.050000 -0.025000 0.000000
-0.050000 0.000000 0.000000
-0.050000 0.025000 0.000000
-0.050000 0.050000 0.000000
-0.050000 0.075000 0.000000
-0.050000 0.100000 0.000000
-0.050000 0.125000 0.000000
-0.050000 0.150000 0.000000
-0.050000 0.175000 0.000000
-0.050000 0.200000 0.000000
-0.050000 0.225000 0.000000
-0.050000 0.250000 0.000000
-0.050000 0.275000 0.000000
-0.050000 0.300000 0.000000
-0.050000 0.325000 0.000000
-0.050000 0.350000 0.000000
-0.050000 0.375000 0.000000
-0.050000 0.400000 0.000000
-0.050000 0.425000 0.000000
-0.050000 0.450000 0.000000
-0.050000 0.475000 0.000000
-0.050000 0.500000 0.000000
-0.050000 0.525000 0.000000
-0.050000 0.550000 0.000000
-0.050000 0.575000 0.000000
-0.050000 0.600000 0.000000
-0.025000 -0.075000 0.000000
-0.025000 -0.050000 0.000000
-0.025000 -0.025000 0.000000
-0.025000 0.000000 0.000000
-0.025000 0.025000 0.000000
-0.025000 0.050000 0.000000
-0.025000 0.075000 0.000000
-0.025000 0.100000 0.000000
-0.025000 0.125000 0.000000
-0.025000 0.150000 0.000000
-0.025000 0.175000 0.000000
-0.025000 0.200000 0.000000
-0.025000 0.225000 0.000000
-0.025000 0.250000 0.000000
-0.025000 0.275000 0.000000
-0.025000 0.300000 0.000000
-0.025000 0.325000 0.000000
-0.025000 0.350000 0.000000
-0.025000 0.375000 0.000000
-0.025000 0.400000 0.000000
-0.025000 0.425000 0.000000
-0.025000 0.450000 0.000000
-0.025000 0.475000 0.000000
-0.025000 0.500000 0.000000
-0.025000 0.525000 0.000000
-0.025000 0.550000 0.000000
-0.025000 0.575000 0.000000
-0.025000 0.600000 0.000000
0.000000 -0.075000 0.000000
0.000000 -0.050000 0.000000
0.000000 -0.025000 0.000000
0.000000 0.000000 0.000000
0.000000 0.025000 0.000000
0.000000 0.050000 0.000000
0.000000 0.075000 0.000000
0.000000 0.100000 0.000000
0.000000 0.125000 0.000000
0.000000 0.150000 0.000000
0.000000 0.175000 0.000000
0.000000 0.200000 0.000000
0.000000 0.225000 0.000000
0.000000 0.250000 0.000000
0.000000 0.275000 0.000000
0.000000 0.300000 0.000000
0.000000 0.325000 0.000000
0.000000 0.350000 0.000000
0.000000 0.375000 0.000000
0.000000 0.400000 0.000000
0.000000 0.425000 0.000000
0.000000 0.450000 0.000000
0.000000 0.475000 0.000000
0.000000 0.500000 0.000000
0.000000 0.525000 0.000000
0.000000 0.550000 0.000000
0.000000 0.575000 0.000000
0.000000 0.600000 0.000000
0.025000 -0.075000 0.000000
0.025000 -0.050000 0.000000
0.025000 -0.025000 0.000000
0.025000 0.000000 0.000000
0.025023 0.025337 0.000000
0.026478 0.049312 0.000000
0.023767 0.072019 0.000000
0.028103 0.096740 0.000000
0.025188 0.137781 0.000000
0.022544 0.167811 0.000000
0.025904 0.198006 0.000000
0.024088 0.221834 0.000000
0.022856 0.257876 0.000000
0.026948 0.281086 0.000000
0.024683 0.303995 0.000000
0.024987 0.329358 0.000000
0.026808 0.355409 0.000000
0.023313 0.378746 0.000000
0.026303 0.401304 0.000000
0.025069 0.425491 0.000000
0.021870 0.461386 0.000000
0.026359 0.489719 0.000000
0.021921 0.514216 0.000000
0.039348 0.535977 0.000000
0.026922 0.577365 0.000000
0.035210 0.600000 0.000000
0.053253 0.600000 0.000000
0.014790 0.600000 0.000000
0.835000 0.625000 0.000000
0.835000 0.650000 0.000000
0.835000 0.675000 0.000000
0.050000 -0.075000 0.000000
0.050000 -0.050000 0.000000
0.050000 -0.025000 0.000000
0.050000 0.000000 0.000000
0.049294 0.024633 0.000000
0.052371 0.055257 0.000000
0.050752 0.079566 0.000000
0.027193 0.117229 0.000000
0.041084 0.157864 0.000000
0.047792 0.186775 0.000000
0.048371 0.214842 0.000000
0.041593 0.239881 0.000000
0.051399 0.261653 0.000000
0.055477 0.287627 0.000000
0.050685 0.309953 0.000000
0.045565 0.342220 0.000000
0.054549 0.370802 0.000000
0.054255 0.396071 0.000000
0.051467 0.419993 0.000000
0.039051 0.445065 0.000000
0.048402 0.466396 0.000000
0.047111 0.495340 0.000000
0.056116 0.519245 0.000000
0.067689 0.546638 0.000000
0.021789 0.550354 0.000000
0.066114 0.576232 0.000000
0.096198 0.578579 0.000000
0.071273 0.600000 0.000000
0.860000 0.625000 0.000000
0.860000 0.650000 0.000000
0.860000 0.675000 0.000000
0.075000 -0.075000 0.000000
0.075000 -0.050000 0.000000
0.075000 -0.025000 0.000000
0.075000 0.000000 0.000000
0.094549 0.035033 0.000000
0.072300 0.025195 0.000000
0.061197 0.099112 0.000000
0.059094 0.122437 0.000000
0.064428 0.143768 0.000000
0.065830 0.167885 0.000000
0.073542 0.191797 0.000000
0.071932 0.214217 0.000000
0.069801 0.243067 0.000000
0.074106 0.270038 0.000000
0.081935 0.296575 0.000000
0.065061 0.325887 0.000000
0.070971 0.352653 0.000000
0.076312 0.379766 0.000000
0.075432 0.405605 0.000000
0.091695 0.430712 0.000000
0.068030 0.438163 0.000000
0.069520 0.477779 0.000000
0.073524 0.504561 0.000000
0.084943 0.527947 0.000000
0.091274 0.554034 0.000000
0.047545 0.561438 0.000000
0.090796 0.600000 0.000000
0.109798 0.600000 0.000000
0.885000 0.625000 0.000000
0.885000 0.650000 0.000000
0.885000 0.675000 0.000000
0.100000 -0.075000 0.000000
0.100000 -0.050000 0.000000
0.100000 -0.025000 0.000000
0.100000 0.000000 0.000000
0.111937 0.020893 0.000000
0.074294 0.052138 0.000000
0.087826 0.096831 0.000000
0.081534 0.125942 0.000000
0.092567 0.162412 0.000000
0.120348 0.168620 0.000000
0.097273 0.182932 0.000000
0.090414 0.230289 0.000000
0.098475 0.253520 0.000000
0.099909 0.278906 0.000000
0.091767 0.315893 0.000000
0.093601 0.341131 0.000000
0.098155 0.362435 0.000000
0.107848 0.385227 0.000000
0.100408 0.405903 0.000000
0.114169 0.431922 0.000000
0.081184 0.457509 0.000000
0.096614 0.476563 0.000000
0.120129 0.488341 0.000000
0.098357 0.504480 0.000000
0.108288 0.538735 0.000000
0.119096 0.562460 0.000000
0.137515 0.578984 0.000000
0.128005 0.600000 0.000000
0.910000 0.625000 0.000000
0.910000 0.650000 0.000000
0.910000 0.675000 0.000000
0.125000 -0.075000 0.000000
0.125000 -0.050000 0.000000
0.125000 -0.025000 0.000000
0.125000 0.000000 0.000000
0.135290 0.033918 0.000000
0.104563 0.059596 0.000000
0.079151 0.074620 0.000000
0.107710 0.114292 0.000000
0.102027 0.139509 0.000000
0.126367 0.144509 0.000000
0.119610 0.196186 0.000000
0.106976 0.213671 0.000000
0.120696 0.235565 0.000000
0.121022 0.264237 0.000000
0.114560 0.301082 0.000000
0.136512 0.312947 0.000000
0.117541 0.326167 0.000000
0.125619 0.360262 0.000000
0.136215 0.379373 0.000000
0.127289 0.403216 0.000000
0.139022 0.428945 0.000000
0.110453 0.456296 0.000000
0.138086 0.476819 0.000000
0.133738 0.534176 0.000000
0.148516 0.551708 0.000000
0.167429 0.600000 0.000000
0.186245 0.576121 0.000000
0.148757 0.600000 0.000000
0.935000 0.625000 0.000000
0.935000 0.650000 0.000000
0.935000 0.675000 0.000000
0.150000 -0.075000 0.000000
0.150000 -0.050000 0.000000
0.150000 -0.025000 0.000000
0.150000 0.000000 0.000000
0.159618 0.021704 0.000000
0.125875 0.057992 0.000000
0.109072 0.086007 0.000000
0.147859 0.102216 0.000000
0.129551 0.116945 0.000000
0.146101 0.159831 0.000000
0.144000 0.182008 0.000000
0.141233 0.212741 0.000000
0.142897 0.235865 0.000000
0.145664 0.260415 0.000000
0.137327 0.284276 0.000000
0.161591 0.313384 0.000000
0.136411 0.341668 0.000000
0.158332 0.361171 0.000000
0.152200 0.403111 0.000000
0.158821 0.438492 0.000000
0.137520 0.454497 0.000000
0.164411 0.486083 0.000000
0.121232 0.512945 0.000000
0.146492 0.505367 0.000000
0.160144 0.527162 0.000000
0.161702 0.573717 0.000000
0.205754 0.600000 0.000000
0.186387 0.600000 0.000000
0.960000 0.625000 0.000000
0.960000 0.650000 0.000000
0.960000 0.675000 0.000000
0.175000 -0.075000 0.000000
0.175000 -0.050000 0.000000
0.175000 -0.025000 0.000000
0.175000 0.000000 0.000000
0.181754 0.028010 0.000000
0.149301 0.048235 0.000000
0.131123 0.083014 0.000000
0.172274 0.109298 0.000000
0.153489 0.131896 0.000000
0.167848 0.146983 0.000000
0.180238 0.176654 0.000000
0.161831 0.196578 0.000000
0.167034 0.219064 0.000000
0.170171 0.256599 0.000000
0.159453 0.288953 0.000000
0.183274 0.325046 0.000000
0.164843 0.339529 0.000000
0.179859 0.366246 0.000000
0.169101 0.389088 0.000000
0.176437 0.411941 0.000000
0.169605 0.461597 0.000000
0.187607 0.483116 0.000000
0.174915 0.509830 0.000000
0.192229 0.529304 0.000000
0.177099 0.547292 0.000000
0.203986 0.553725 0.000000
0.214033 0.577765 0.000000
0.225222 0.600000 0.000000
0.985000 0.625000 0.000000
0.985000 0.650000 0.000000
0.985000 0.675000 0.000000
0.200000 -0.075000 0.000000
0.200000 -0.050000 0.000000
0.200000 -0.025000 0.000000
0.200000 0.000000 0.000000
0.208120 0.024755 0.000000
0.167168 0.063726 0.000000
0.160953 0.082674 0.000000
0.192133 0.091123 0.000000
0.187814 0.124660 0.000000
0.191068 0.152483 0.000000
0.189775 0.198775 0.000000
0.204042 0.236998 0.000000
0.183429 0.234345 0.000000
0.180154 0.275192 0.000000
0.189913 0.297653 0.000000
0.207255 0.309604 0.000000
0.198417 0.345281 0.000000
0.206618 0.366091 0.000000
0.195534 0.399601 0.000000
0.203988 0.427864 0.000000
0.183102 0.439899 0.000000
0.200864 0.457377 0.000000
0.206700 0.508025 0.000000
0.230063 0.498781 0.000000
0.217771 0.530710 0.000000
0.231479 0.554608 0.000000
[...]
<PointData>
<DataArray NumberOfComponents='1' type='Int32' Name='ParticleType' format='ascii'>
3
3
3
3
3
3
3
3
3
3
3
3
3
3
3
3
3
3
3
3
3
3
3
3
3
3
3
3
3
3
3
3
3
3
3
3
3
3
3
3
3
3
3
3
3
3
3
3
3
3
3
3
3
3
3
3
3
3
2
2
2
2
2
2
2
2
2
2
2
2
2
2
2
2
2
2
2
2
2
2
2
2
2
2
3
3
2
2
2
2
2
2
2
2
2
2
2
2
2
2
2
2
2
2
2
2
2
2
2
2
2
2
3
3
2
2
0
0
0
0
0
0
0
0
0
0
0
0
0
0
0
0
0
0
0
0
0
0
0
0
1
1
1
3
3
2
2
0
0
0
0
0
0
0
0
0
0
0
0
0
0
0
0
0
0
0
0
0
0
0
0
1
1
1
3
3
2
2
0
0
0
0
0
0
0
0
0
0
0
0
0
0
0
0
0
0
0
0
0
0
0
0
1
1
1
3
3
2
2
0
0
0
0
0
0
0
0
0
0
0
0
0
0
0
0
0
0
0
0
0
0
0
0
1
1
1
3
3
2
2
0
0
0
0
0
0
0
0
0
0
0
0
0
0
0
0
0
0
0
0
0
0
0
0
1
1
1
3
3
2
2
0
0
0
0
0
0
0
0
0
0
0
0
0
0
0
0
0
0
0
0
0
0
0
0
1
1
1
3
3
2
2
0
0
0
0
0
0
0
0
0
0
0
0
0
0
0
0
0
0
0
0
0
0
0
0
1
1
1
3
3
2
2
0
0
0
0
0
0
0
0
0
0
0
0
0
0
0
0
0
0
0
0
0
0
0
0
1
1
1
3
3
2
2
0
0
0
0
0
0
0
0
0
0
0
0
0
0
0
0
0
0
0
0
0
0
0
0
1
1
1
3
3
2
2
0
0
0
0
0
0
0
0
0
0
0
0
0
0
0
0
0
0
0
0
0
0
0
0
1
1
1
3
3
2
2
0
0
0
0
0
0
0
0
0
0
0
0
0
0
0
0
0
0
0
0
0
0
0
0
1
1
1
3
3
2
2
0
0
0
0
0
0
0
0
0
0
0
0
0
0
0
0
0
0
0
0
0
0
0
0
1
1
1
3
3
2
2
0
0
0
0
0
0
0
0
0
0
0
0
0
0
0
0
0
0
0
0
0
0
0
0
1
1
1
3
3
2
2
0
0
0
0
0
0
0
0
0
0
0
0
0
0
0
0
0
0
0
0
0
0
0
0
1
1
1
3
3
2
2
0
0
0
0
0
0
0
0
0
0
0
0
0
0
0
0
0
0
0
0
0
0
0
0
1
1
1
3
3
2
2
0
0
0
0
0
0
0
0
0
0
0
0
0
0
0
0
0
0
0
0
0
0
0
0
1
1
1
3
3
2
2
0
0
0
0
0
0
0
0
0
0
0
0
0
0
0
0
0
0
0
0
0
0
0
0
3
3
2
2
0
0
0
0
0
0
0
0
0
0
0
0
0
0
0
0
0
0
0
0
0
0
0
0
3
3
2
2
0
0
0
0
0
0
0
0
0
0
0
0
0
0
0
0
0
0
0
0
0
0
0
0
3
3
2
2
0
0
0
0
0
0
0
0
0
0
0
0
0
0
0
0
0
0
0
0
0
0
0
0
3
3
2
2
0
0
0
0
0
0
0
0
0
0
0
0
0
0
0
0
0
0
0
0
0
0
0
0
3
3
2
2
0
0
0
0
0
0
0
0
0
0
0
0
0
0
0
0
0
0
0
0
0
0
0
0
3
3
2
2
0
0
0
0
0
0
0
0
0
0
0
0
0
0
0
0
0
0
0
0
0
0
0
0
3
3
2
2
0
0
0
0
0
0
0
0
0
0
0
0
0
0
0
0
0
0
0
0
0
0
0
0
3
3
2
2
0
0
0
0
0
0
0
0
0
0
0
0
0
0
0
0
0
0
0
0
0
0
0
0
3
3
2
2
0
0
0
0
0
0
0
0
0
0
0
0
0
0
0
0
0
0
0
0
0
0
0
0
3
3
2
2
0
0
0
0
0
0
0
0
0
0
0
0
0
0
0
0
0
0
0
0
0
0
0
0
3
3
2
2
0
0
0
0
0
0
0
0
0
0
0
0
0
0
0
0
0
0
0
0
0
0
0
0
3
3
2
2
0
0
0
0
0
0
0
0
0
0
0
0
0
0
0
0
0
0
0
0
0
0
0
0
3
3
2
2
0
0
0
0
0
0
0
0
0
0
0
0
0
0
0
0
0
0
0
0
0
0
0
0
3
3
2
2
0
0
0
0
0
0
0
0
0
0
0
0
0
0
0
0
0
0
0
0
0
0
0
0
3
3
2
2
0
0
0
0
0
0
0
0
0
0
0
0
0
0
0
0
0
0
0
0
0
0
0
0
3
3
2
2
0
0
0
0
0
0
0
0
0
0
0
0
0
0
0
0
0
0
0
0
0
0
0
0
3
3
2
2
0
0
0
0
0
0
0
0
0
0
0
0
0
0
0
0
0
0
0
0
0
0
0
0
3
3
2
2
0
0
0
0
0
0
0
0
0
0
0
0
0
0
0
0
0
0
0
0
0
0
0
0
3
3
2
2
0
0
0
0
0
0
0
0
0
0
0
0
0
0
0
0
0
0
0
0
0
0
0
0
3
3
2
2
0
0
0
0
0
0
0
0
0
0
0
0
0
0
0
0
0
0
0
0
0
0
0
0
3
3
2
2
0
0
0
0
0
0
0
0
0
0
0
0
0
0
0
0
0
0
0
0
0
0
0
0
3
3
2
2
0
0
0
0
0
0
0
0
0
0
0
0
0
0
0
0
0
0
0
0
0
0
0
0
3
3
2
2
0
0
0
0
0
0
0
0
0
0
0
0
0
0
0
0
0
0
0
0
0
0
0
0
3
3
2
2
0
0
0
0
0
0
0
0
0
0
0
0
0
0
0
0
0
0
0
0
0
0
0
0
3
3
2
2
0
0
0
0
0
0
0
0
0
0
0
0
0
0
0
0
0
0
0
0
0
0
0
0
3
3
2
2
0
0
0
0
0
0
0
0
0
0
0
0
0
0
0
0
0
0
0
0
0
0
0
0
3
3
2
2
0
0
0
0
0
0
0
0
0
0
0
0
0
0
0
0
0
0
0
0
0
0
0
0
3
3
2
2
0
0
0
0
0
0
0
0
0
0
0
0
0
0
0
0
0
0
0
0
0
0
0
0
3
3
2
2
0
0
0
0
0
0
0
0
0
0
0
0
0
0
0
0
0
0
0
0
0
0
0
0
3
3
2
2
0
0
0
0
0
0
0
0
0
0
0
0
0
0
0
0
0
0
0
0
0
0
0
0
3
3
2
2
0
0
0
0
0
0
0
0
0
0
0
0
0
0
0
0
0
0
0
0
0
0
0
0
3
3
2
2
0
0
0
0
0
0
0
0
0
0
0
0
0
0
0
0
0
0
0
0
0
0
0
0
3
3
2
2
0
0
0
0
0
0
0
0
0
0
0
0
0
0
0
0
0
0
0
0
0
0
0
0
3
3
2
2
0
0
0
0
0
0
0
0
0
0
0
0
0
0
0
0
0
0
0
0
0
0
0
0
3
3
2
2
0
0
0
0
0
0
0
0
0
0
0
0
0
0
0
0
0
0
0
0
0
0
0
0
3
3
2
2
0
0
0
0
0
0
0
0
0
0
0
0
0
0
0
0
0
0
0
0
0
0
0
0
3
3
2
2
0
0
0
0
0
0
0
0
0
0
0
0
0
0
0
0
0
0
0
0
0
0
0
0
3
3
2
2
0
0
0
0
0
0
0
0
0
0
0
0
0
0
0
0
0
0
0
0
0
0
0
0
3
3
2
2
0
0
0
0
0
0
0
0
0
0
0
0
0
0
0
0
0
0
0
0
0
0
0
0
3
3
2
2
0
0
0
0
0
0
0
0
0
0
0
0
0
0
0
0
0
0
0
0
0
0
0
0
3
3
2
2
0
0
0
0
0
0
0
0
0
0
0
0
0
0
0
0
0
0
0
0
0
0
0
0
3
3
2
2
0
0
0
0
0
0
0
0
0
0
0
0
0
0
0
0
0
0
0
0
0
0
0
0
3
3
2
2
0
0
0
0
0
0
0
0
0
0
0
0
0
0
0
0
0
0
0
0
0
0
0
0
3
3
2
2
0
0
0
0
0
0
0
0
0
0
0
0
0
0
0
0
0
0
0
0
0
0
0
0
3
3
2
2
0
0
0
0
0
0
0
0
0
0
0
0
0
0
0
0
0
0
0
0
0
0
0
0
3
3
2
2
0
0
0
0
0
0
0
0
0
0
0
0
0
0
0
0
0
0
0
0
0
0
0
0
3
3
2
2
0
0
0
0
0
0
0
0
0
0
0
0
0
0
0
0
0
0
0
0
0
0
0
0
3
3
2
2
0
0
0
0
0
0
0
0
0
0
0
0
0
0
0
0
0
0
0
0
0
0
0
0
3
3
2
2
0
0
0
0
0
0
0
0
0
0
0
0
0
0
0
0
0
0
0
0
0
0
0
0
3
3
2
2
0
0
0
0
0
0
0
0
0
0
0
0
0
0
0
0
0
0
0
0
0
0
0
0
3
3
2
2
0
0
0
0
0
0
0
0
0
0
0
0
0
0
0
0
0
0
0
0
0
0
0
0
3
3
2
2
0
0
0
0
0
0
0
0
0
0
0
0
0
0
0
0
0
0
0
0
0
0
0
0
3
3
2
2
0
0
0
0
0
0
0
0
0
0
0
0
0
0
0
0
0
0
0
0
0
0
0
0
3
3
2
2
0
0
0
0
0
0
0
0
0
0
0
0
0
0
0
0
0
0
0
0
0
0
0
0
3
3
2
2
0
0
0
0
0
0
0
0
0
0
0
0
0
0
0
0
0
0
0
0
0
0
0
0
3
3
2
2
0
0
0
0
0
0
0
0
0
0
0
0
0
0
0
0
0
0
0
0
0
0
0
0
3
3
2
2
0
0
0
0
0
0
0
0
0
0
0
0
0
0
0
0
0
0
0
0
0
0
0
0
3
3
2
2
0
0
0
0
0
0
0
0
0
0
0
0
0
0
0
0
0
0
0
0
0
0
0
0
3
3
2
2
0
0
0
0
0
0
0
0
0
0
0
0
0
0
0
0
0
0
0
0
0
0
0
0
3
3
2
2
0
0
0
0
0
0
0
0
0
0
0
0
0
0
0
0
0
0
0
0
0
0
0
0
3
3
2
2
0
0
0
0
0
0
0
0
0
0
0
0
0
0
0
0
0
0
0
0
0
0
0
0
3
3
2
2
0
0
0
0
0
0
0
0
0
0
0
0
0
0
0
0
0
0
0
0
0
0
0
0
3
3
2
2
0
0
0
0
0
0
0
0
0
0
0
0
0
0
0
0
0
0
0
0
0
0
0
0
3
3
2
2
2
2
2
2
2
2
2
2
2
2
2
2
2
2
2
2
2
2
2
2
2
2
2
2
3
3
2
2
2
2
2
2
2
2
2
2
2
2
2
2
2
2
2
2
2
2
2
2
2
2
2
2
3
3
3
3
3
3
3
3
3
3
3
3
3
3
3
3
3
3
3
3
3
3
3
3
3
3
3
3
3
3
3
3
3
3
3
3
3
3
3
3
3
3
3
3
3
3
3
3
3
3
3
3
3
3
3
3
</DataArray>
<DataArray NumberOfComponents='1' type='Float32' Name='Velocity' format='ascii'>
0.000000
0.000000
0.000000
0.000000
0.000000
0.000000
0.000000
0.000000
0.000000
0.000000
0.000000
0.000000
0.000000
0.000000
0.000000
0.000000
0.000000
0.000000
0.000000
0.000000
0.000000
0.000000
0.000000
0.000000
0.000000
0.000000
0.000000
0.000000
0.000000
0.000000
0.000000
0.000000
0.000000
0.000000
0.000000
0.000000
0.000000
0.000000
0.000000
0.000000
0.000000
0.000000
0.000000
0.000000
0.000000
0.000000
0.000000
0.000000
0.000000
0.000000
0.000000
0.000000
0.000000
0.000000
0.000000
0.000000
0.000000
0.000000
0.000000
0.000000
0.000000
0.000000
0.000000
0.000000
0.000000
0.000000
0.000000
0.000000
0.000000
0.000000
0.000000
0.000000
0.000000
0.000000
0.000000
0.000000
0.000000
0.000000
0.000000
0.000000
0.000000
0.000000
0.000000
0.000000
0.000000
0.000000
0.000000
0.000000
0.000000
0.000000
0.000000
0.000000
0.000000
0.000000
0.000000
0.000000
0.000000
0.000000
0.000000
0.000000
0.000000
0.000000
0.000000
0.000000
0.000000
0.000000
0.000000
0.000000
0.000000
0.000000
0.000000
0.000000
0.000000
0.000000
0.000000
0.000000
0.099338
0.142282
0.055777
0.078460
0.131571
0.047933
0.035883
0.031460
0.130802
0.133178
0.046752
0.076275
0.143162
0.156165
0.127722
0.114353
0.228245
0.218355
0.276587
0.048110
0.418624
65.145737
43.757168
63.193207
1.000000
1.000000
1.000000
0.000000
0.000000
0.000000
0.000000
0.076883
0.220961
0.222486
0.123699
0.081562
0.109498
0.061576
0.115918
0.033016
0.114569
0.276199
0.270870
0.034398
0.132951
0.039540
0.072437
0.046610
0.119184
0.404914
0.289271
0.238552
0.563319
0.355771
43.431713
1.000000
1.000000
1.000000
0.000000
0.000000
0.000000
0.000000
0.138525
0.124757
0.203019
0.183087
0.182469
0.147751
0.049741
0.039449
0.100263
0.096488
0.127065
0.124962
0.056305
0.041232
0.136665
0.129992
0.217431
0.143881
0.196981
0.152182
0.413471
0.575397
32.092136
33.421890
1.000000
1.000000
1.000000
0.000000
0.000000
0.000000
0.000000
0.122302
0.033999
0.070591
0.054367
0.240810
0.272645
0.057235
0.136401
0.265931
0.110255
0.080091
0.122039
0.136258
0.269979
0.071534
0.267734
0.148974
0.233516
0.066765
0.107026
0.304949
0.436879
0.727823
43.385647
1.000000
1.000000
1.000000
0.000000
0.000000
0.000000
0.000000
0.114172
0.105612
0.358397
0.104547
0.279095
0.170415
0.075327
0.060982
0.168842
0.064694
0.133358
0.127930
0.149655
0.062947
0.109833
0.115589
0.048940
0.040521
0.209586
0.600011
0.632377
21.696754
0.199017
43.732956
1.000000
1.000000
1.000000
0.000000
0.000000
0.000000
0.000000
0.177775
0.306379
0.327019
0.106891
0.222626
0.142994
0.134936
0.064346
0.160802
0.130775
0.172489
0.037980
0.125219
0.199123
0.214190
0.128140
0.217463
0.056083
0.177130
0.101677
0.274066
0.052391
47.270424
45.228882
1.000000
1.000000
1.000000
0.000000
0.000000
0.000000
0.000000
0.083384
0.143447
0.239026
0.092105
0.362494
0.228355
0.344751
0.141329
0.166711
0.349645
0.273152
0.211045
0.318795
0.057995
0.065994
0.057345
0.062908
0.124566
0.130747
0.238479
0.106843
0.496139
0.210883
39.327946
1.000000
1.000000
1.000000
0.000000
0.000000
0.000000
0.000000
0.087071
0.079925
0.332830
0.126022
0.122188
0.062466
0.203517
0.157369
0.261583
0.232237
0.131199
0.108652
0.275703
0.206183
0.229170
0.249139
0.118686
0.068670
0.069199
0.167325
0.188844
0.561269
0.211552
38.135807
1.000000
1.000000
1.000000
0.000000
0.000000
0.000000
0.000000
0.126584
0.096594
0.054559
0.244865
0.105791
0.278645
0.113371
0.156394
0.071416
0.181480
0.112216
0.208528
0.030381
0.132142
0.170356
0.328308
0.071188
0.177729
0.048995
0.269840
0.373076
0.357436
0.200151
38.567127
1.000000
1.000000
1.000000
0.000000
0.000000
0.000000
0.000000
0.032057
0.043660
0.128950
0.051243
0.125554
0.191341
0.165826
0.088587
0.097179
0.106958
0.142761
0.126976
0.327210
0.092389
0.168647
0.156741
0.307893
0.226184
0.175763
0.187530
0.404793
0.770641
26.715942
33.313419
1.000000
1.000000
1.000000
0.000000
0.000000
0.000000
0.000000
0.167910
0.165012
0.160922
0.209729
0.084375
0.082802
0.218149
0.021850
0.059683
0.134330
0.022898
0.101726
0.277143
0.101923
0.171006
0.073448
0.138850
0.199059
0.232080
0.450872
0.140566
0.475917
0.771082
29.163885
1.000000
1.000000
1.000000
0.000000
0.000000
0.000000
0.000000
0.035894
0.159115
0.046746
0.112424
0.094433
0.202739
0.289858
0.064162
0.149350
0.057916
0.187636
0.137617
0.073285
0.217534
0.172872
0.148025
0.111581
0.164916
0.239642
0.447390
0.110056
0.222335
34.162518
36.150436
1.000000
1.000000
1.000000
0.000000
0.000000
0.000000
0.000000
0.191559
0.181618
0.163501
0.114326
0.120298
0.102644
0.230306
0.133580
0.067100
0.076581
0.086385
0.123169
0.084917
0.058511
0.135822
0.044246
0.068603
0.206179
0.305341
0.229881
0.115428
0.195255
0.614280
32.720749
1.000000
1.000000
1.000000
0.000000
0.000000
0.000000
0.000000
0.050208
0.075058
0.149797
0.047013
0.020136
0.116064
0.194080
0.060217
0.144727
0.030223
0.093057
0.055103
0.037273
0.085298
0.031861
0.124051
0.113749
0.166345
0.168045
0.114828
0.167058
0.476381
0.781854
30.510765
1.000000
1.000000
1.000000
0.000000
0.000000
0.000000
0.000000
0.074422
0.106409
0.114933
0.004592
0.208199
0.162803
0.075371
0.116641
0.141441
0.166499
0.008075
0.176238
0.105779
0.241654
0.041391
0.213202
0.178000
0.133546
0.209444
0.192457
0.211591
0.109443
26.926413
33.790810
1.000000
1.000000
1.000000
0.000000
0.000000
0.000000
0.000000
0.028948
0.106316
0.167731
0.094608
0.178993
0.045334
0.118688
0.133910
0.059605
0.089127
0.123314
0.093224
0.108774
0.015901
0.153619
0.077295
0.347164
0.103192
0.108586
0.076226
0.157028
0.073826
0.317394
35.639381
1.000000
1.000000
1.000000
0.000000
0.000000
0.000000
0.000000
0.040642
0.089344
0.096909
0.139450
0.183353
0.180671
0.086065
0.067347
0.148446
0.066676
0.197388
0.150146
0.059732
0.158942
0.044525
0.160965
0.155419
0.039569
0.394039
0.090008
0.162774
0.335876
0.284130
37.630520
0.000000
0.000000
0.000000
0.000000
0.106217
0.219493
0.005650
0.061916
0.134199
0.103535
0.106423
0.153970
0.104751
0.131541
0.146347
0.082016
0.145576
0.103152
0.147866
0.203889
0.239436
0.280631
0.080403
0.326435
0.233582
0.503277
0.215169
37.790649
0.000000
0.000000
0.000000
0.000000
0.068938
0.097052
0.099171
0.121329
0.091119
0.032283
0.090412
0.020731
0.304255
0.114955
0.010959
0.196929
0.092439
0.119847
0.097952
0.071809
0.164272
0.091173
0.238358
0.139400
0.197849
0.368291
0.060719
33.522118
0.000000
0.000000
0.000000
0.000000
0.046289
0.161840
0.109388
0.082319
0.041326
0.055472
0.210262
0.143253
0.057578
0.124832
0.018515
0.067868
0.111023
0.164529
0.188407
0.135512
0.173269
0.093885
0.403143
0.090126
0.113082
0.115127
34.203861
46.313000
0.000000
0.000000
0.000000
0.000000
0.076949
0.127221
0.152263
0.028215
0.085485
0.044459
0.055533
0.055590
0.080749
0.125910
0.033967
0.175111
0.130489
0.045930
0.059084
0.125300
0.141226
0.177903
0.371092
0.028184
0.361108
0.695071
33.621204
41.924877
0.000000
0.000000
0.000000
0.000000
0.054658
0.127605
0.205449
0.123142
0.051326
0.142948
0.138555
0.198615
0.074492
0.047551
0.117664
0.186690
0.225232
0.063307
0.082166
0.065533
0.236132
0.031361
0.197303
0.176119
0.471304
0.725097
0.088911
43.598930
0.000000
0.000000
0.000000
0.000000
0.122869
0.064599
0.085115
0.056597
0.161746
0.111845
0.026494
0.141812
0.044773
0.057313
0.106811
0.039049
0.063534
0.103686
0.156284
0.105951
0.103283
0.079062
0.136539
0.353458
0.412239
0.186980
44.515549
30.569311
0.000000
0.000000
0.000000
0.000000
0.074172
0.100853
0.126981
0.124602
0.053680
0.101824
0.102439
0.008540
0.146126
0.069523
0.076488
0.158268
0.080849
0.018985
0.099163
0.175818
0.175769
0.156013
0.248547
0.369128
0.275077
0.263872
0.090667
28.597317
0.000000
0.000000
0.000000
0.000000
0.146281
0.066159
0.046562
0.089783
0.120999
0.045067
0.091416
0.127888
0.078001
0.026649
0.035325
0.148122
0.026131
0.112183
0.131095
0.201056
0.030591
0.049915
0.189777
0.172338
0.090321
0.081974
0.240516
37.839470
0.000000
0.000000
0.000000
0.000000
0.075007
0.035659
0.070237
0.071730
0.092842
0.132903
0.078912
0.008922
0.053129
0.098401
0.129394
0.057948
0.109934
0.016428
0.107685
0.081876
0.139749
0.110434
0.045842
0.117916
0.413115
0.104484
0.042714
49.968380
0.000000
0.000000
0.000000
0.000000
0.124477
0.085369
0.063289
0.135250
0.097778
0.076862
0.079662
0.012493
0.082433
0.090771
0.099405
0.007646
0.021854
0.151710
0.111988
0.126587
0.170053
0.040607
0.145725
0.034194
0.166238
0.249357
0.098502
51.100185
0.000000
0.000000
0.000000
0.000000
0.057723
0.043868
0.035148
0.071129
0.067986
0.054586
0.107097
0.081679
0.074330
0.048573
0.091479
0.017849
0.107026
0.101551
0.116134
0.075085
0.151058
0.037664
0.057934
0.225222
0.301477
0.235097
0.253938
34.980583
0.000000
0.000000
0.000000
0.000000
0.020333
0.055157
0.113134
0.139435
0.099012
0.108444
0.095034
0.099116
0.148473
0.075576
0.032924
0.066780
0.083729
0.038177
0.111508
0.007270
0.099080
0.127974
0.159108
0.213275
0.091448
0.392173
0.088086
40.048012
0.000000
0.000000
0.000000
0.000000
0.009628
0.079610
0.103007
0.078501
0.065289
0.135057
0.153163
0.108265
0.085792
0.075443
0.135206
0.021992
0.045854
0.117398
0.118705
0.011972
0.156125
0.160224
0.239796
0.139955
0.138091
0.431396
0.431819
31.238932
0.000000
0.000000
0.000000
0.000000
0.031463
0.035623
0.066829
0.033417
0.083144
0.168745
0.029337
0.112903
0.084208
0.075990
0.019440
0.056273
0.107664
0.044627
0.043318
0.022172
0.136706
0.047667
0.227661
0.167719
0.339588
0.549036
0.185454
28.951260
0.000000
0.000000
0.000000
0.000000
0.054721
0.093718
0.016821
0.049635
0.058951
0.037972
0.035514
0.041226
0.095417
0.036002
0.059604
0.041302
0.142172
0.040018
0.152004
0.015707
0.084459
0.199888
0.102053
0.248827
0.214203
0.185147
0.113588
28.474712
0.000000
0.000000
0.000000
0.000000
0.056415
0.084507
0.051162
0.104450
0.106289
0.181870
0.023050
0.069117
0.046795
0.064082
0.084687
0.049888
0.083597
0.053115
0.080934
0.115205
0.036047
0.042208
0.147632
0.185799
0.076811
0.076755
0.225817
13.713985
0.000000
0.000000
0.000000
0.000000
0.017978
0.044181
0.096718
0.059095
0.101475
0.087864
0.054214
0.067133
0.074978
0.042838
0.087832
0.016273
0.049694
0.031229
0.101032
0.040701
0.108825
0.042162
0.078724
0.152391
0.150529
0.282549
0.280593
9.481878
0.000000
0.000000
0.000000
0.000000
0.080173
0.024176
0.061584
0.060302
0.094261
0.100842
0.066203
0.028815
0.072378
0.039253
0.071790
0.122867
0.132483
0.061394
0.138478
0.014979
0.102737
0.153733
0.133071
0.125752
0.116127
0.155687
0.306770
8.071950
0.000000
0.000000
0.000000
0.000000
0.024554
0.048536
0.012868
0.081086
0.007271
0.047311
0.077913
0.031164
0.043618
0.065456
0.097424
0.061495
0.094505
0.029634
0.090061
0.079696
0.059421
0.082605
0.129262
0.296435
0.221033
0.260525
0.165307
10.381786
0.000000
0.000000
0.000000
0.000000
0.027812
0.034446
0.031334
0.087746
0.045677
0.082859
0.021203
0.058460
0.063229
0.044740
0.084997
0.093617
0.046788
0.033406
0.052407
0.084830
0.078070
0.030654
0.118170
0.076464
0.164223
0.294026
0.288474
5.973795
0.000000
0.000000
0.000000
0.000000
0.025206
0.040318
0.033721
0.046699
0.098123
0.095708
0.067412
0.029926
0.008085
0.038880
0.044962
0.061651
0.093607
0.069483
0.151367
0.036997
0.119151
0.194961
0.114194
0.169072
0.110801
0.057025
0.156620
9.203977
0.000000
0.000000
0.000000
0.000000
0.027125
0.036741
0.053623
0.068221
0.069935
0.080569
0.044862
0.064160
0.075249
0.032624
0.024096
0.059811
0.045409
0.041640
0.089255
0.055587
0.118068
0.088756
0.057468
0.131716
0.142715
0.035890
0.217570
6.210752
0.000000
0.000000
0.000000
0.000000
0.022368
0.087374
0.052667
0.059640
0.101896
0.107815
0.121511
0.061961
0.013386
0.076206
0.051546
0.109668
0.065499
0.053123
0.036037
0.053828
0.086235
0.124729
0.063462
0.244478
0.178091
0.261115
0.219956
8.979682
0.000000
0.000000
0.000000
0.000000
0.073862
0.054533
0.088596
0.027958
0.071936
0.149854
0.095827
0.092709
0.031835
0.027061
0.062511
0.072432
0.045618
0.040175
0.096093
0.121280
0.124376
0.129086
0.240496
0.147579
0.083560
0.128402
0.051387
9.496952
0.000000
0.000000
0.000000
0.000000
0.072214
0.074157
0.050773
0.123446
0.157008
0.022561
0.096666
0.063438
0.061955
0.035632
0.177027
0.066324
0.051659
0.156645
0.093256
0.057357
0.127524
0.175231
0.110180
0.144971
0.125409
0.117991
0.078276
11.197602
0.000000
0.000000
0.000000
0.000000
0.002982
0.043052
0.072249
0.036743
0.061559
0.014516
0.025230
0.086404
0.051253
0.107443
0.130923
0.117420
0.072071
0.058779
0.146426
0.040904
0.079729
0.197770
0.074916
0.120934
0.054983
0.058681
0.257527
21.242346
0.000000
0.000000
0.000000
0.000000
0.057054
0.092709
0.085641
0.174402
0.148967
0.072413
0.103559
0.084178
0.118656
0.108370
0.091642
0.065284
0.065802
0.067616
0.042611
0.073922
0.218881
0.292516
0.156092
0.173918
0.036318
0.120984
0.416986
23.974600
0.000000
0.000000
0.000000
0.000000
0.087923
0.062779
0.016976
0.144330
0.102679
0.080423
0.062173
0.041447
0.107583
0.164413
0.038387
0.034635
0.152748
0.103804
0.086749
0.072782
0.150115
0.256145
0.226490
0.189690
0.199854
0.383559
14.675208
29.791704
0.000000
0.000000
0.000000
0.000000
0.035999
0.062338
0.052648
0.152486
0.068689
0.118027
0.058603
0.048347
0.086157
0.124499
0.050605
0.116576
0.098856
0.091930
0.054684
0.173872
0.094247
0.168898
0.056227
0.179219
0.206405
0.348427
0.205803
37.994225
0.000000
0.000000
0.000000
0.000000
0.062517
0.049922
0.053751
0.058568
0.096700
0.006534
0.039095
0.065253
0.124146
0.024830
0.038767
0.077194
0.212261
0.109979
0.153394
0.051409
0.249876
0.141308
0.191699
0.115016
0.185017
0.482592
0.312539
45.517387
0.000000
0.000000
0.000000
0.000000
0.017567
0.008259
0.046404
0.033617
0.020955
0.101598
0.034865
0.199792
0.121850
0.024747
0.070277
0.099249
0.194460
0.208685
0.162010
0.152894
0.197397
0.167510
0.186112
0.053114
0.345230
0.109891
0.353830
43.361652
0.000000
0.000000
0.000000
0.000000
0.026110
0.042423
0.011789
0.066243
0.034063
0.246218
0.153010
0.134515
0.034973
0.030353
0.082783
0.164141
0.303242
0.131830
0.308026
0.172990
0.037259
0.090139
0.123114
0.127462
0.356648
0.087823
41.676212
47.403690
0.000000
0.000000
0.000000
0.000000
0.040785
0.041712
0.081517
0.061457
0.044492
0.150291
0.124540
0.269880
0.075222
0.061822
0.131721
0.068887
0.112666
0.158075
0.088573
0.204419
0.141117
0.175079
0.269855
0.246670
0.187546
0.167081
0.113378
47.075634
0.000000
0.000000
0.000000
0.000000
0.042598
0.014611
0.077241
0.148718
0.091327
0.170830
0.098171
0.169813
0.118246
0.047141
0.151749
0.106220
0.137164
0.012252
0.366932
0.051289
0.152059
0.178245
0.165175
0.112768
0.211598
0.116522
29.273203
44.039936
0.000000
0.000000
0.000000
0.000000
0.026082
0.057540
0.114024
0.183858
0.014430
0.051651
0.338433
0.044971
0.087799
0.095032
0.111525
0.124959
0.081964
0.247956
0.166080
0.131366
0.311576
0.105343
0.145007
0.436310
0.619639
0.078887
0.243054
44.079639
0.000000
0.000000
0.000000
0.000000
0.056043
0.097135
0.050123
0.074331
0.043828
0.148758
0.019634
0.024391
0.104990
0.076108
0.116717
0.121984
0.045148
0.211645
0.026284
0.120049