<?xml version='1.0' encoding='UTF-8'?>
<VTKFile xmlns='VTK' byte_order='LittleEndian' version='0.1' type='UnstructuredGrid'>
<UnstructuredGrid>
<Piece NumberOfCells='2512' NumberOfPoints='2512'>
<Points>
<DataArray NumberOfComponents='3' type='Float32' Name='Position' format='ascii'>
-0.075000 -0.075000 0.000000
-0.075000 -0.050000 0.000000
-0.075000 -0.025000 0.000000
-0.075000 0.000000 0.000000
-0.075000 0.025000 0.000000
-0.075000 0.050000 0.000000
-0.075000 0.075000 0.000000
-0.075000 0.100000 0.000000
-0.075000 0.125000 0.000000
-0.075000 0.150000 0.000000
-0.075000 0.175000 0.000000
-0.075000 0.200000 0.000000
-0.075000 0.225000 0.000000
-0.075000 0.250000 0.000000
-0.075000 0.275000 0.000000
-0.075000 0.300000 0.000000
-0.075000 0.325000 0.000000
-0.075000 0.350000 0.000000
-0.075000 0.375000 0.000000
-0.075000 0.400000 0.000000
-0.075000 0.425000 0.000000
-0.075000 0.450000 0.000000
-0.075000 0.475000 0.000000
-0.075000 0.500000 0.000000
-0.075000 0.525000 0.000000
-0.075000 0.550000 0.000000
-0.075000 0.575000 0.000000
-0.075000 0.600000 0.000000
-0.050000 -0.075000 0.000000
-0.050000 -0.050000 0.000000
-0.050000 -0.025000 0.000000
-0.050000 0.000000 0.000000
-0.050000 0.025000 0.000000
-0.050000 0.050000 0.000000
-0.050000 0.075000 0.000000
-0.050000 0.100000 0.000000
-0.050000 0.125000 0.000000
-0.050000 0.150000 0.000000
-0.050000 0.175000 0.000000
-0.050000 0.200000 0.000000
-0.050000 0.225000 0.000000
-0.050000 0.250000 0.000000
-0.050000 0.275000 0.000000
-0.050000 0.300000 0.000000
-0.050000 0.325000 0.000000
-0.050000 0.350000 0.000000
-0.050000 0.375000 0.000000
-0.050000 0.400000 0.000000
-0.050000 0.425000 0.000000
-0.050000 0.450000 0.000000
-0.050000 0.475000 0.000000
-0.050000 0.500000 0.000000
-0.050000 0.525000 0.000000
-0.050000 0.550000 0.000000
-0.050000 0.575000 0.000000
-0.050000 0.600000 0.000000
-0.025000 -0.075000 0.000000
-0.025000 -0.050000 0.000000
-0.025000 -0.025000 0.000000
-0.025000 0.000000 0.000000
-0.025000 0.025000 0.000000
-0.025000 0.050000 0.000000
-0.025000 0.075000 0.000000
-0.025000 0.100000 0.000000
-0.025000 0.125000 0.000000
-0.025000 0.150000 0.000000
-0.025000 0.175000 0.000000
-0.025000 0.200000 0.000000
-0.025000 0.225000 0.000000
-0.025000 0.250000 0.000000
-0.025000 0.275000 0.000000
-0.025000 0.300000 0.000000
-0.025000 0.325000 0.000000
-0.025000 0.350000 0.000000
-0.025000 0.375000 0.000000
-0.025000 0.400000 0.000000
-0.025000 0.425000 0.000000
-0.025000 0.450000 0.000000
-0.025000 0.475000 0.000000
-0.025000 0.500000 0.000000
-0.025000 0.525000 0.000000
-0.025000 0.550000 0.000000
-0.025000 0.575000 0.000000
-0.025000 0.600000 0.000000
0.000000 -0.075000 0.000000
0.000000 -0.050000 0.000000
0.000000 -0.025000 0.000000
0.000000 0.000000 0.000000
0.000000 0.025000 0.000000
0.000000 0.050000 0.000000
0.000000 0.075000 0.000000
0.000000 0.100000 0.000000
0.000000 0.125000 0.000000
0.000000 0.150000 0.000000
0.000000 0.175000 0.000000
0.000000 0.200000 0.000000
0.000000 0.225000 0.000000
0.000000 0.250000 0.000000
0.000000 0.275000 0.000000
0.000000 0.300000 0.000000
0.000000 0.325000 0.000000
0.000000 0.350000 0.000000
0.000000 0.375000 0.000000
0.000000 0.400000 0.000000
0.000000 0.425000 0.000000
0.000000 0.450000 0.000000
0.000000 0.475000 0.000000
0.000000 0.500000 0.000000
0.000000 0.525000 0.000000
0.000000 0.550000 0.000000
0.000000 0.575000 0.000000
0.000000 0.600000 0.000000
0.025000 -0.075000 0.000000
0.025000 -0.050000 0.000000
0.025000 -0.025000 0.000000
0.025000 0.000000 0.000000
-2.878334 0.600000 0.000000
4.893025 -7.855711 0.000000
-1.543827 -2.504898 0.000000
1.179417 -2.463849 0.000000
0.108122 0.032870 0.000000
-2860705.856068 0.600000 0.000000
0.727465 -4.722992 0.000000
1.943157 -3.287967 0.000000
-3.084922 -0.211999 0.000000
1.168721 -0.317347 0.000000
37.220894 -128.148355 0.000000
2.529903 -16.216166 0.000000
3120.849437 0.600000 0.000000
-1225.107438 0.600000 0.000000
1.429958 0.559702 0.000000
-19.107773 -36.202178 0.000000
-5.495764 -4.881447 0.000000
46.862893 -64.811949 0.000000
3.748615 -3.590633 0.000000
-69.433612 0.600000 0.000000
20.448201 -42.999511 0.000000
-49.316119 0.600000 0.000000
-116.330033 0.600000 0.000000
3820280.701904 0.600000 0.000000
1.045000 0.625000 0.000000
1.045000 0.650000 0.000000
1.045000 0.675000 0.000000
0.050000 -0.075000 0.000000
0.050000 -0.050000 0.000000
0.050000 -0.025000 0.000000
0.050000 0.000000 0.000000
-5.977185 0.418913 0.000000
-4.558718 -0.921853 0.000000
57.595642 0.600000 0.000000
0.803581 0.557908 0.000000
192.134193 0.600000 0.000000
-1.135035 -0.687918 0.000000
-1.377035 -2.453095 0.000000
-2.233777 0.451505 0.000000
-1007.343223 -1875.781873 0.000000
978.523292 0.600000 0.000000
0.466241 -5.290496 0.000000
3.777861 -2.944980 0.000000
-12.567563 -4.431597 0.000000
4.898682 0.525123 0.000000
657.073444 0.600000 0.000000
-45.986770 0.600000 0.000000
-6.169435 -2.538986 0.000000
-11.302532 0.600000 0.000000
79.739933 0.600000 0.000000
-12.203290 -15.773514 0.000000
57.804732 0.600000 0.000000
1216.430357 -253.134492 0.000000
13.168361 -53.182281 0.000000
137.608081 0.600000 0.000000
1.070000 0.625000 0.000000
1.070000 0.650000 0.000000
1.070000 0.675000 0.000000
0.075000 -0.075000 0.000000
0.075000 -0.050000 0.000000
0.075000 -0.025000 0.000000
0.075000 0.000000 0.000000
-3.957955 -3.893409 0.000000
329.604197 0.600000 0.000000
0.944539 0.111052 0.000000
-142.159296 0.600000 0.000000
-3.230329 -2.078003 0.000000
4.494501 0.600000 0.000000
1.766646 -6.357547 0.000000
230.570461 0.600000 0.000000
45.490662 0.600000 0.000000
1.961486 -17.882958 0.000000
7.557346 -6.978777 0.000000
-71.692268 0.600000 0.000000
-31.589631 0.600000 0.000000
57.353714 -37.453243 0.000000
35.764204 0.600000 0.000000
1.911582 -0.011203 0.000000
205.672762 -81.635720 0.000000
0.298185 0.392175 0.000000
14.879777 -11.237363 0.000000
3.765714 -4.704498 0.000000
302.088720 0.600000 0.000000
-5.614614 -14.908377 0.000000
-426.951121 0.600000 0.000000
-89.008257 0.600000 0.000000
1.095000 0.625000 0.000000
1.095000 0.650000 0.000000
1.095000 0.675000 0.000000
0.100000 -0.075000 0.000000
0.100000 -0.050000 0.000000
0.100000 -0.025000 0.000000
0.100000 0.000000 0.000000
0.227205 0.545765 0.000000
2955957.730863 0.600000 0.000000
-49.221036 -46.637866 0.000000
2853.708641 0.600000 0.000000
-443.268246 0.600000 0.000000
-8.359107 0.600000 0.000000
-7051.881437 0.600000 0.000000
7.407885 0.230062 0.000000
1.330416 -1.383084 0.000000
5.022873 -1.146661 0.000000
-1.644860 -2.794782 0.000000
-124.568450 0.600000 0.000000
-2.097299 0.600000 0.000000
15.637193 -3.183742 0.000000
-6.983484 0.600000 0.000000
-8.165892 -6.902918 0.000000
0.345415 0.123212 0.000000
-11.436107 0.600000 0.000000
3.604204 -0.933562 0.000000
1.599693 0.600000 0.000000
0.440551 0.034393 0.000000
6.515566 -8.899554 0.000000
146.095492 0.600000 0.000000
-1908.476956 0.600000 0.000000
1.120000 0.625000 0.000000
1.120000 0.650000 0.000000
1.120000 0.675000 0.000000
0.125000 -0.075000 0.000000
0.125000 -0.050000 0.000000
0.125000 -0.025000 0.000000
0.125000 0.000000 0.000000
-34.698587 0.600000 0.000000
124.593738 0.600000 0.000000
-88.905080 0.600000 0.000000
-25.969069 0.600000 0.000000
0.720113 -2.350484 0.000000
9.512793 -6.385512 0.000000
-52.868874 0.600000 0.000000
-0.749775 -5.560698 0.000000
2771.317876 0.600000 0.000000
-22.004492 -72.580245 0.000000
-21.968062 0.600000 0.000000
-11.609093 0.600000 0.000000
0.212100 0.560032 0.000000
-13.417324 0.179683 0.000000
-25.681894 0.600000 0.000000
-29.810398 0.600000 0.000000
407.282875 0.600000 0.000000
81.040642 0.600000 0.000000
-1.767671 -5.938007 0.000000
-15.008925 -8.832897 0.000000
-9.459059 0.529075 0.000000
126.008235 0.600000 0.000000
47926.615258 0.600000 0.000000
-10411.876653 0.600000 0.000000
1.145000 0.625000 0.000000
1.145000 0.650000 0.000000
1.145000 0.675000 0.000000
0.150000 -0.075000 0.000000
0.150000 -0.050000 0.000000
0.150000 -0.025000 0.000000
0.150000 0.000000 0.000000
-4.692223 0.264721 0.000000
-83.880013 0.600000 0.000000
-0.047483 -2.906102 0.000000
-10.166218 -6.090239 0.000000
-108.548683 0.600000 0.000000
0.808113 0.381866 0.000000
9.704882 0.600000 0.000000
0.532768 -1.229681 0.000000
4.008275 0.600000 0.000000
-225.992296 0.600000 0.000000
-34.832205 -15.333621 0.000000
1.908388 -3.730171 0.000000
-4.366569 -3.953284 0.000000
-1886.083973 0.600000 0.000000
-528.777866 0.600000 0.000000
-11.046468 -4.027986 0.000000
-1.049818 0.600000 0.000000
0.848696 -300.355833 0.000000
550.299933 0.600000 0.000000
354.212789 0.600000 0.000000
-506.264772 0.600000 0.000000
10.642673 -24.051654 0.000000
252.283397 0.600000 0.000000
98.350536 0.600000 0.000000
1.170000 0.625000 0.000000
1.170000 0.650000 0.000000
1.170000 0.675000 0.000000
0.175000 -0.075000 0.000000
0.175000 -0.050000 0.000000
0.175000 -0.025000 0.000000
0.175000 0.000000 0.000000
-16.012282 0.600000 0.000000
-141.984524 0.600000 0.000000
0.786581 -2.355376 0.000000
3850.196933 0.600000 0.000000
46.966072 0.600000 0.000000
-11.888545 -8.973109 0.000000
1.508747 -11.182350 0.000000
11.717436 0.600000 0.000000
-103.345417 0.600000 0.000000
-66.209827 -33.761520 0.000000
668.295119 0.600000 0.000000
-50.879725 0.600000 0.000000
220.840248 0.600000 0.000000
351.534538 0.600000 0.000000
112.793393 -53.713214 0.000000
-17.535225 0.600000 0.000000
-337.142991 -752.518658 0.000000
238.239066 0.600000 0.000000
1430374.764267 0.600000 0.000000
52.237566 0.600000 0.000000
597.951692 0.600000 0.000000
-48.089511 -21.632088 0.000000
-7.076120 -44.203450 0.000000
128.977889 0.600000 0.000000
1.195000 0.625000 0.000000
1.195000 0.650000 0.000000
1.195000 0.675000 0.000000
0.200000 -0.075000 0.000000
0.200000 -0.050000 0.000000
0.200000 -0.025000 0.000000
0.200000 0.000000 0.000000
-37.037323 0.600000 0.000000
-77.855134 0.600000 0.000000
34.900164 -1.373531 0.000000
2.077252 -41.969020 0.000000
-99.507236 0.600000 0.000000
-4.328518 -2.498168 0.000000
921.499950 0.600000 0.000000
12652.752803 0.600000 0.000000
[...]
<PointData>
<DataArray NumberOfComponents='1' type='Int32' Name='ParticleType' format='ascii'>
3
3
3
3
3
3
3
3
3
3
3
3
3
3
3
3
3
3
3
3
3
3
3
3
3
3
3
3
3
3
3
3
3
3
3
3
3
3
3
3
3
3
3
3
3
3
3
3
3
3
3
3
3
3
3
3
3
3
2
2
2
2
2
2
2
2
2
2
2
2
2
2
2
2
2
2
2
2
2
2
2
2
2
2
3
3
2
2
2
2
2
2
2
2
2
2
2
2
2
2
2
2
2
2
2
2
2
2
2
2
2
2
3
3
2
2
0
0
0
0
0
0
0
0
0
0
0
0
0
0
0
0
0
0
0
0
0
0
0
0
1
1
1
3
3
2
2
0
0
0
0
0
0
0
0
0
0
0
0
0
0
0
0
0
0
0
0
0
0
0
0
1
1
1
3
3
2
2
0
0
0
0
0
0
0
0
0
0
0
0
0
0
0
0
0
0
0
0
0
0
0
0
1
1
1
3
3
2
2
0
0
0
0
0
0
0
0
0
0
0
0
0
0
0
0
0
0
0
0
0
0
0
0
1
1
1
3
3
2
2
0
0
0
0
0
0
0
0
0
0
0
0
0
0
0
0
0
0
0
0
0
0
0
0
1
1
1
3
3
2
2
0
0
0
0
0
0
0
0
0
0
0
0
0
0
0
0
0
0
0
0
0
0
0
0
1
1
1
3
3
2
2
0
0
0
0
0
0
0
0
0
0
0
0
0
0
0
0
0
0
0
0
0
0
0
0
1
1
1
3
3
2
2
0
0
0
0
0
0
0
0
0
0
0
0
0
0
0
0
0
0
0
0
0
0
0
0
1
1
1
3
3
2
2
0
0
0
0
0
0
0
0
0
0
0
0
0
0
0
0
0
0
0
0
0
0
0
0
1
1
1
3
3
2
2
0
0
0
0
0
0
0
0
0
0
0
0
0
0
0
0
0
0
0
0
0
0
0
0
1
1
1
3
3
2
2
0
0
0
0
0
0
0
0
0
0
0
0
0
0
0
0
0
0
0
0
0
0
0
0
1
1
1
3
3
2
2
0
0
0
0
0
0
0
0
0
0
0
0
0
0
0
0
0
0
0
0
0
0
0
0
1
1
1
3
3
2
2
0
0
0
0
0
0
0
0
0
0
0
0
0
0
0
0
0
0
0
0
0
0
0
0
1
1
1
3
3
2
2
0
0
0
0
0
0
0
0
0
0
0
0
0
0
0
0
0
0
0
0
0
0
0
0
1
1
1
3
3
2
2
0
0
0
0
0
0
0
0
0
0
0
0
0
0
0
0
0
0
0
0
0
0
0
0
1
1
1
3
3
2
2
0
0
0
0
0
0
0
0
0
0
0
0
0
0
0
0
0
0
0
0
0
0
0
0
1
1
1
3
3
2
2
0
0
0
0
0
0
0
0
0
0
0
0
0
0
0
0
0
0
0
0
0
0
0
0
3
3
2
2
0
0
0
0
0
0
0
0
0
0
0
0
0
0
0
0
0
0
0
0
0
0
0
0
3
3
2
2
0
0
0
0
0
0
0
0
0
0
0
0
0
0
0
0
0
0
0
0
0
0
0
0
3
3
2
2
0
0
0
0
0
0
0
0
0
0
0
0
0
0
0
0
0
0
0
0
0
0
0
0
3
3
2
2
0
0
0
0
0
0
0
0
0
0
0
0
0
0
0
0
0
0
0
0
0
0
0
0
3
3
2
2
0
0
0
0
0
0
0
0
0
0
0
0
0
0
0
0
0
0
0
0
0
0
0
0
3
3
2
2
0
0
0
0
0
0
0
0
0
0
0
0
0
0
0
0
0
0
0
0
0
0
0
0
3
3
2
2
0
0
0
0
0
0
0
0
0
0
0
0
0
0
0
0
0
0
0
0
0
0
0
0
3
3
2
2
0
0
0
0
0
0
0
0
0
0
0
0
0
0
0
0
0
0
0
0
0
0
0
0
3
3
2
2
0
0
0
0
0
0
0
0
0
0
0
0
0
0
0
0
0
0
0
0
0
0
0
0
3
3
2
2
0
0
0
0
0
0
0
0
0
0
0
0
0
0
0
0
0
0
0
0
0
0
0
0
3
3
2
2
0
0
0
0
0
0
0
0
0
0
0
0
0
0
0
0
0
0
0
0
0
0
0
0
3
3
2
2
0
0
0
0
0
0
0
0
0
0
0
0
0
0
0
0
0
0
0
0
0
0
0
0
3
3
2
2
0
0
0
0
0
0
0
0
0
0
0
0
0
0
0
0
0
0
0
0
0
0
0
0
3
3
2
2
0
0
0
0
0
0
0
0
0
0
0
0
0
0
0
0
0
0
0
0
0
0
0
0
3
3
2
2
0
0
0
0
0
0
0
0
0
0
0
0
0
0
0
0
0
0
0
0
0
0
0
0
3
3
2
2
0
0
0
0
0
0
0
0
0
0
0
0
0
0
0
0
0
0
0
0
0
0
0
0
3
3
2
2
0
0
0
0
0
0
0
0
0
0
0
0
0
0
0
0
0
0
0
0
0
0
0
0
3
3
2
2
0
0
0
0
0
0
0
0
0
0
0
0
0
0
0
0
0
0
0
0
0
0
0
0
3
3
2
2
0
0
0
0
0
0
0
0
0
0
0
0
0
0
0
0
0
0
0
0
0
0
0
0
3
3
2
2
0
0
0
0
0
0
0
0
0
0
0
0
0
0
0
0
0
0
0
0
0
0
0
0
3
3
2
2
0
0
0
0
0
0
0
0
0
0
0
0
0
0
0
0
0
0
0
0
0
0
0
0
3
3
2
2
0
0
0
0
0
0
0
0
0
0
0
0
0
0
0
0
0
0
0
0
0
0
0
0
3
3
2
2
0
0
0
0
0
0
0
0
0
0
0
0
0
0
0
0
0
0
0
0
0
0
0
0
3
3
2
2
0
0
0
0
0
0
0
0
0
0
0
0
0
0
0
0
0
0
0
0
0
0
0
0
3
3
2
2
0
0
0
0
0
0
0
0
0
0
0
0
0
0
0
0
0
0
0
0
0
0
0
0
3
3
2
2
0
0
0
0
0
0
0
0
0
0
0
0
0
0
0
0
0
0
0
0
0
0
0
0
3
3
2
2
0
0
0
0
0
0
0
0
0
0
0
0
0
0
0
0
0
0
0
0
0
0
0
0
3
3
2
2
0
0
0
0
0
0
0
0
0
0
0
0
0
0
0
0
0
0
0
0
0
0
0
0
3
3
2
2
0
0
0
0
0
0
0
0
0
0
0
0
0
0
0
0
0
0
0
0
0
0
0
0
3
3
2
2
0
0
0
0
0
0
0
0
0
0
0
0
0
0
0
0
0
0
0
0
0
0
0
0
3
3
2
2
0
0
0
0
0
0
0
0
0
0
0
0
0
0
0
0
0
0
0
0
0
0
0
0
3
3
2
2
0
0
0
0
0
0
0
0
0
0
0
0
0
0
0
0
0
0
0
0
0
0
0
0
3
3
2
2
0
0
0
0
0
0
0
0
0
0
0
0
0
0
0
0
0
0
0
0
0
0
0
0
3
3
2
2
0
0
0
0
0
0
0
0
0
0
0
0
0
0
0
0
0
0
0
0
0
0
0
0
3
3
2
2
0
0
0
0
0
0
0
0
0
0
0
0
0
0
0
0
0
0
0
0
0
0
0
0
3
3
2
2
0
0
0
0
0
0
0
0
0
0
0
0
0
0
0
0
0
0
0
0
0
0
0
0
3
3
2
2
0
0
0
0
0
0
0
0
0
0
0
0
0
0
0
0
0
0
0
0
0
0
0
0
3
3
2
2
0
0
0
0
0
0
0
0
0
0
0
0
0
0
0
0
0
0
0
0
0
0
0
0
3
3
2
2
0
0
0
0
0
0
0
0
0
0
0
0
0
0
0
0
0
0
0
0
0
0
0
0
3
3
2
2
0
0
0
0
0
0
0
0
0
0
0
0
0
0
0
0
0
0
0
0
0
0
0
0
3
3
2
2
0
0
0
0
0
0
0
0
0
0
0
0
0
0
0
0
0
0
0
0
0
0
0
0
3
3
2
2
0
0
0
0
0
0
0
0
0
0
0
0
0
0
0
0
0
0
0
0
0
0
0
0
3
3
2
2
0
0
0
0
0
0
0
0
0
0
0
0
0
0
0
0
0
0
0
0
0
0
0
0
3
3
2
2
0
0
0
0
0
0
0
0
0
0
0
0
0
0
0
0
0
0
0
0
0
0
0
0
3
3
2
2
0
0
0
0
0
0
0
0
0
0
0
0
0
0
0
0
0
0
0
0
0
0
0
0
3
3
2
2
0
0
0
0
0
0
0
0
0
0
0
0
0
0
0
0
0
0
0
0
0
0
0
0
3
3
2
2
0
0
0
0
0
0
0
0
0
0
0
0
0
0
0
0
0
0
0
0
0
0
0
0
3
3
2
2
0
0
0
0
0
0
0
0
0
0
0
0
0
0
0
0
0
0
0
0
0
0
0
0
3
3
2
2
0
0
0
0
0
0
0
0
0
0
0
0
0
0
0
0
0
0
0
0
0
0
0
0
3
3
2
2
0
0
0
0
0
0
0
0
0
0
0
0
0
0
0
0
0
0
0
0
0
0
0
0
3
3
2
2
0
0
0
0
0
0
0
0
0
0
0
0
0
0
0
0
0
0
0
0
0
0
0
0
3
3
2
2
0
0
0
0
0
0
0
0
0
0
0
0
0
0
0
0
0
0
0
0
0
0
0
0
3
3
2
2
0
0
0
0
0
0
0
0
0
0
0
0
0
0
0
0
0
0
0
0
0
0
0
0
3
3
2
2
0
0
0
0
0
0
0
0
0
0
0
0
0
0
0
0
0
0
0
0
0
0
0
0
3
3
2
2
0
0
0
0
0
0
0
0
0
0
0
0
0
0
0
0
0
0
0
0
0
0
0
0
3
3
2
2
0
0
0
0
0
0
0
0
0
0
0
0
0
0
0
0
0
0
0
0
0
0
0
0
3
3
2
2
0
0
0
0
0
0
0
0
0
0
0
0
0
0
0
0
0
0
0
0
0
0
0
0
3
3
2
2
0
0
0
0
0
0
0
0
0
0
0
0
0
0
0
0
0
0
0
0
0
0
0
0
3
3
2
2
0
0
0
0
0
0
0
0
0
0
0
0
0
0
0
0
0
0
0
0
0
0
0
0
3
3
2
2
0
0
0
0
0
0
0
0
0
0
0
0
0
0
0
0
0
0
0
0
0
0
0
0
3
3
2
2
0
0
0
0
0
0
0
0
0
0
0
0
0
0
0
0
0
0
0
0
0
0
0
0
3
3
2
2
0
0
0
0
0
0
0
0
0
0
0
0
0
0
0
0
0
0
0
0
0
0
0
0
3
3
2
2
0
0
0
0
0
0
0
0
0
0
0
0
0
0
0
0
0
0
0
0
0
0
0
0
3
3
2
2
2
2
2
2
2
2
2
2
2
2
2
2
2
2
2
2
2
2
2
2
2
2
2
2
3
3
2
2
2
2
2
2
2
2
2
2
2
2
2
2
2
2
2
2
2
2
2
2
2
2
2
2
3
3
3
3
3
3
3
3
3
3
3
3
3
3
3
3
3
3
3
3
3
3
3
3
3
3
3
3
3
3
3
3
3
3
3
3
3
3
3
3
3
3
3
3
3
3
3
3
3
3
3
3
3
3
3
3
</DataArray>
<DataArray NumberOfComponents='1' type='Float32' Name='Velocity' format='ascii'>
0.000000
0.000000
0.000000
0.000000
0.000000
0.000000
0.000000
0.000000
0.000000
0.000000
0.000000
0.000000
0.000000
0.000000
0.000000
0.000000
0.000000
0.000000
0.000000
0.000000
0.000000
0.000000
0.000000
0.000000
0.000000
0.000000
0.000000
0.000000
0.000000
0.000000
0.000000
0.000000
0.000000
0.000000
0.000000
0.000000
0.000000
0.000000
0.000000
0.000000
0.000000
0.000000
0.000000
0.000000
0.000000
0.000000
0.000000
0.000000
0.000000
0.000000
0.000000
0.000000
0.000000
0.000000
0.000000
0.000000
0.000000
0.000000
0.000000
0.000000
0.000000
0.000000
0.000000
0.000000
0.000000
0.000000
0.000000
0.000000
0.000000
0.000000
0.000000
0.000000
0.000000
0.000000
0.000000
0.000000
0.000000
0.000000
0.000000
0.000000
0.000000
0.000000
0.000000
0.000000
0.000000
0.000000
0.000000
0.000000
0.000000
0.000000
0.000000
0.000000
0.000000
0.000000
0.000000
0.000000
0.000000
0.000000
0.000000
0.000000
0.000000
0.000000
0.000000
0.000000
0.000000
0.000000
0.000000
0.000000
0.000000
0.000000
0.000000
0.000000
0.000000
0.000000
0.000000
0.000000
99.121429
208.417450
68.769646
62.724590
7.467792
95356864.000000
111.068161
92.932724
68.409737
521.855896
2971.659424
364.273773
76158.250000
28430.234375
29.282276
898.486755
166.837997
1785.860107
165.094589
1675.816528
1002.629211
1062.934448
2536.458252
83049576.000000
1.000000
1.000000
1.000000
0.000000
0.000000
0.000000
0.000000
136.752625
129.368927
1515.731689
20.658642
6611.134277
41.060516
67.745544
50.193993
47320.515625
49286.628906
124.180290
151.236755
300.550629
117.517723
23500.089844
1137.545898
147.100601
394.297394
2117.702881
486.156189
1448.490234
28239.855469
1149.335083
2972.129150
1.000000
1.000000
1.000000
0.000000
0.000000
0.000000
0.000000
128.830414
48682.972656
22.694984
4535.214355
87.709358
130.689545
237.922623
5149.229492
1065.447754
642.234375
238.815582
2216.033691
1004.842407
1560.281860
959.134094
26.408958
5671.392090
3.567651
455.800018
147.578644
6866.588867
366.080780
9610.188477
2141.263672
1.000000
1.000000
1.000000
0.000000
0.000000
0.000000
0.000000
8.857915
164219952.000000
1578.575317
135656.203125
10448.539062
259.627472
227129.031250
175.594070
46.691303
122.582497
83.023018
3403.679443
88.716141
366.940369
222.549393
273.709015
1.064063
452.828217
127.210732
29.623371
14.477912
262.229004
3320.666504
41519.292969
1.000000
1.000000
1.000000
0.000000
0.000000
0.000000
0.000000
972.569275
3411.883301
2796.277588
686.913330
67.616112
248.738907
1546.262451
138.056854
81647.492188
1769.000366
885.231995
324.315277
13.879492
480.211578
609.686951
712.730469
10194.207031
2119.669678
169.541550
414.331390
196.202316
3741.531982
998466.625000
324624.781250
1.000000
1.000000
1.000000
0.000000
0.000000
0.000000
0.000000
109.857521
2240.717773
67.519051
295.581116
7866.774902
11.375455
1201.102539
38.351799
100.908241
6514.524902
868.418518
96.193115
181.433929
42874.503906
12904.244141
268.743317
722.943665
6998.304199
13420.532227
9315.310547
12991.108398
555.733276
5252.430176
2126.427979
1.000000
1.000000
1.000000
0.000000
0.000000
0.000000
0.000000
1018.608154
6835.245605
58.841442
107051.000000
1225.971191
335.716187
258.530151
492.077606
2508.029053
1694.632202
31802.394531
3953.638428
5387.021973
8406.716797
3476.818848
698.597717
17935.052734
6927.468750
37641568.000000
1225.046143
12991.815430
1128.499268
925.947693
3024.847168
1.000000
1.000000
1.000000
0.000000
0.000000
0.000000
0.000000
890.322083
2604.533936
1055.270020
935.340454
2479.807861
115.533112
27921.142578
287566.156250
1580.931152
1611.459229
96.364357
124.025215
317.488983
156.646652
1299.802002
15052.400391
1064.456299
1784.276123
1093.486694
4261.552734
17893.681641
2263.000000
2017.770508
2421.543701
1.000000
1.000000
1.000000
0.000000
0.000000
0.000000
0.000000
56.662144
10989698.000000
2048.717285
79.289543
801.951782
190.635605
20260.888672
484.252594
2112.915283
362.115448
6485.924316
388.258026
8532.734375
924.311035
152.663147
0.905717
174156.109375
198.327133
262.164368
68543.257812
1487.250854
26142.726562
92.654968
191028.375000
1.000000
1.000000
1.000000
0.000000
0.000000
0.000000
0.000000
43348.957031
291.582825
127.198387
9029.446289
16063.677734
668.294250
645.189148
12968.504883
190196.296875
584.633728
161.384384
938.479736
1674.217896
198.093460
91.513962
54.027996
266763.218750
153.771439
349.405396
289706.187500
493.669800
1085.388550
95400.992188
95085.890625
1.000000
1.000000
1.000000
0.000000
0.000000
0.000000
0.000000
787.253113
129.575531
1759.110718
37.991653
1826.248779
13.083803
88.729782
157.140518
243.206055
163.024933
857.164368
2961.258057
2174.589844
666.599487
304234.031250
60897.406250
109189544.000000
855.285095
43347.976562
5693.016113
123.606857
9136.549805
3759.840576
3982.932861
1.000000
1.000000
1.000000
0.000000
0.000000
0.000000
0.000000
289.052216
1010911488.000000
272.264923
313831.718750
43311.808594
41954936.000000
8036.624512
9932.439453
326.622223
448.060028
1275.989868
11015329.000000
861.555603
7859819520.000000
26.391363
57765.035156
117242.046875
2048.733154
373.170868
34.693211
7545.506836
6939.797363
161842336.000000
7708.010742
1.000000
1.000000
1.000000
0.000000
0.000000
0.000000
0.000000
820.317627
296.389252
98.932472
88.524803
102.272766
10578.000000
146.057281
162.927765
138.171616
2392.258301
6692.507812
1620.020752
343.800171
58.886799
3222.796875
376.683990
242.261490
33.483074
424.754303
1686.841553
672.272278
68.340843
39987.773438
3991.801514
1.000000
1.000000
1.000000
0.000000
0.000000
0.000000
0.000000
80.651833
2824.975830
181.079712
31.622356
235.276642
340.626251
2289.540771
7071.902344
914.835632
1091.990356
20031.417969
70.620712
399.805328
251.149124
243.974075
7657.667969
49153.632812
261.656372
90296.835938
274.419159
6454.471191
1098.902710
4566.422363
998081.687500
1.000000
1.000000
1.000000
0.000000
0.000000
0.000000
0.000000
84.259438
81898.601562
120.770370
20.592863
139.456970
594.201599
24.042664
1772.803101
41956152.000000
79.420357
837.607056
199.422440
339448.062500
24146.248047
482.231750
707.405823
1120.287354
221.605118
1296.651489
48.416416
1561.133667
82941672.000000
1054.059204
15229.276367
1.000000
1.000000
1.000000
0.000000
0.000000
0.000000
0.000000
1402.041260
44920.703125
317.807983
281.700226
405.828491
909.043213
140.166534
1764.738037
215.340271
2619.704834
17711.453125
446.115234
2870.202881
660.266357
11.421113
48621.335938
93.908493
12590.311523
3792.406006
1771.294189
125.416374
1776.098267
1127.362305
15809.732422
1.000000
1.000000
1.000000
0.000000
0.000000
0.000000
0.000000
238.543503
1096.461304
195.797684
16.740637
25509.533203
93.917450
1655.072266
2045.905029
4755.657715
122.727928
612.670837
4968.294922
3887.519287
180.873398
276.342529
128.286194
361.806793
314.272369
159659.765625
187.882111
5939.167480
68.059006
98.415749
4415.262207
0.000000
0.000000
0.000000
0.000000
56.532452
39281.597656
2574.062500
149.484268
2674.795166
4871.330566
2316.064941
210.886505
2525.950439
21141.035156
6729.357422
7730.265137
193.334991
98441824.000000
1950.390137
357.040253
6310.400879
52.235691
416.707397
552.728271
96046.179688
27242.652344
143.688751
1062.701782
0.000000
0.000000
0.000000
0.000000
1911.824951
743.863403
130.620560
373.698425
295.374847
5025.053223
117.842255
59.888531
37.280228
7906.497070
1303.028442
3710.629639
98599.789062
229.819443
128.428055
156.505341
285.490814
527.822815
4829300.500000
19885750.000000
1329.141479
2053.819580
608.034058
15961.998047
0.000000
0.000000
0.000000
0.000000
49.719849
1362.151978
583.544617
3207.467773
3087.378662
156.807144
13265.659180
465.864624
123.163223
288258.031250
44.882702
1294.313721
522.643311
43177.691406
897.495789
959.997742
1930.596558
14036.116211
195.973236
49.322266
2958.512939
692.272156
1213.779785
4774220.000000
0.000000
0.000000
0.000000
0.000000
1676.404175
1347.415161
157.202621
3585.909668
43065.179688
674.738464
404.200989
351.186249
681.531067
301.066437
1742.106323
268.517853
460.196747
163.013840
117.807388
98.186340
5530499.500000
209.479172
1001.519775
346.663086
4797.793457
1803.128784
1829.296997
2164.746094
0.000000
0.000000
0.000000
0.000000
122.895653
728.664062
51.904945
1666460.000000
23588.013672
278.192505
59.893902
69.644875
1763.437744
6722.662109
203547328.000000
134.023972
1585.144897
811.231628
272.767609
111.641556
734.619873
294.337708
185.623795
324.350891
1252.081055
307293.531250
341.677155
1176.983765
0.000000
0.000000
0.000000
0.000000
422.708466
1327.489746
262.737671
1452.562988
118.811607
2300.718750
355.169464
39930.316406
93.223206
30677.171875
1209.653076
223.776520
3254.338867
59.184723
3205.860840
102359.648438
1628.382324
151.133026
3975.460205
248.427444
38518.199219
117.155067
517.207153
2748.722900
0.000000
0.000000
0.000000
0.000000
65.153755
3.301496
205.517242
367294.187500
349.817719
207.210526
57535692.000000
21699.785156
792.302124
885.678528
1991.261475
1935943.625000
136.854599
96.931015
1829.551147
840.693481
1157.578857
1433.848877
4917.848145
1291.300171
203547792.000000
27107.343750
4328.612793
9517.489258
0.000000
0.000000
0.000000
0.000000
128.628372
596.658264
283.393402
10.592670
139931.031250
81.197151
13827.891602
1192.391968
475.047150
335.622772
1028.491943
1854.802612
16375.471680
28250.357422
1557.182251
185.327637
252.975449
305.606171
1240.839355
8.170879
15372175.000000
108.081642
415.702606
1056.238525
0.000000
0.000000
0.000000
0.000000
616.594421
1.117811
3190.322021
904.696838
1967.782349
291.009399
709960.875000
348.633942
445.298523
9597.256836
671.287048
126.936714
40.793083
46.840595
439.517120
6.360017
1013.858032
849.188171
3540.919922
300.425415
3785.586426
12455.862305
5613.185547
4545.323242
0.000000
0.000000
0.000000
0.000000
1065.887695
150.771255
10160.074219
21743.787109
15.437635
79958.929688
81155.101562
140148.015625
2028.726685
90.849403
106.148346
324.309967
1270.260864
7.087920
878.716553
686.781738
65.168755
58.247871
950.658936
1054.591187
2068.529785
990.807678
154.875854
1799.549927
0.000000
0.000000
0.000000
0.000000
16073.986328
69402.585938
858.150452
68.514900
205149.765625
798.573120
160.384354
1550.186401
1243.149414
86.313667
24622.843750
22169.105469
253.793228
10534.191406
365.836029
284.879150
1437.205322
1408.620972
9.700194
27196.621094
234.268784
2823.387451
86.282722
8849.975586
0.000000
0.000000
0.000000
0.000000
16159.502930
112181.335938
700.061951
1519.186279
122.720253
94768.734375
303.310760
3350.655518
3157.387451
498.544312
449.921600
19.456385
1065.951660
5455.565918
12373.721680
70.596275
81594.234375
8.419462
576.911011
960.801086
163329.281250
107688.375000
1084.046753
2094.043213
0.000000
0.000000
0.000000
0.000000
468.624176
72.170998
66.144943
81.803848
107776.695312
3882.234131
1705.384399
234.408127
745.187317
663460.062500
2119.524170
1523.796387
922.147217
23744.494141
48.211906
148.861206
99.642242
105.193817
150.643448
228.180695
222.581589
2275.332764
370.132050
1859.466553
0.000000
0.000000
0.000000
0.000000
12854.997070
58.022175
786193.125000
751.494995
257.938385
303.873657
203.401505
795.058044
6.787938
22493.818359
29818181648384.000000
493.510040
722.334106
1072.683594
170.143738
811.580811
300.012573
137.907364
294.516968
63.152481
712.878906
32273.306641
7105.450195
6863.887207
0.000000
0.000000
0.000000
0.000000
1983.719849
11138.591797
1777.510986
152.130127
1582.258423
4642.817383
330.462982
12981.763672
19754.941406
342.423309
2985.991455
49007.941406
800.896057
248.162643
6126.160156
609.729004
1220.027466
540.176086
81.336571
3668.874512
339.995514
375.470062
1805.730957
20957.654297
0.000000
0.000000
0.000000
0.000000
77.981033
65.497978
3365.123291
203.803802
19576.429688
1618.381714
148.122009
477.376007
522.146118
121.320122
41.621246
68.589691
95.607407
1251777920.000000
3623.175049
152.041107
237.009979
202.682251
125.829651
39096.703125
273.955994
5787.491211
22676.785156
5687.792480
0.000000
0.000000
0.000000
0.000000
109266000.000000
31.874361
1113.511841
90.455132
164.388138
1186.228027
48.255493
95356440.000000
1635.374634
16809.212891
1744.638550
142.238815
24.107464
82.610695
24338.193359
244.822403
4068.106201
828.104736
1144.216431
154.616821
299.482056
2315.758545
11944.709961
5083.817871
0.000000
0.000000
0.000000
0.000000
128181.062500
36.087795
215609.859375
667.266968
90.225143
16.979258
151.254913
386.350891
544.897095
13221.009766
46276.222656
185422.390625
1085.369141
29612.703125
1198.231812
2258.641357
6082527.000000
239.499390
577.638550
46.359619
14900.022461
371.290649
2758.583740
23664962.000000
0.000000
0.000000
0.000000
0.000000
190375.000000
101.661797
552.093933
224.194382
22318.734375
3955.022461
9132.340820
117335.429688
1663.615723
520.952454
69.794067
684.521912
36312.191406
158.887787
40.369133
169.313507
202056.750000
4896.216797
1318.291504
15.704330
1743.849121
447.410553
707.566284
3294.570801
0.000000
0.000000
0.000000
0.000000
66.927048
8.990520
19159504.000000
918.799988
128.049332
406.952850
313.339508
2776.655273
362.697601
15206.097656
342.006989
420.067291
2974.786377
281.513214
327.095245
113043.070312
1572.558350
3447.465576
2616.041992
3027.038574
901.113586
755.313049
39003.445312
11095.420898
0.000000
0.000000
0.000000
0.000000
56.642475
458.472076
483.258026
8088.203125
635.519592
755.726868
2773.368652
167.332932
15410.267578
31.897745
1703.845703
278.531219
112.897652
77766.078125
1183.594604
2774.794678
650.390747
304.260864
3271.705811
1633.125610
529.107666
174255.312500
449.192780
79955.406250
0.000000
0.000000
0.000000
0.000000
33.367741
118.428253
112.837395
810.210022
99.279060
206.006866
74.602402
49.150517
15372272.000000
124.091522
80961.054688
448975.000000
1671.811646
152.250580
282.959229
98099.492188
2749.893799
944355.062500
362.367767
126.094131
21624.900391
66.187645
131.437378
4929.026367
0.000000
0.000000
0.000000
0.000000
83570.070312
170.138489
1018.260437
2175.790039
1036.579834
173768.390625
72.682083
538.600342
466.879456
70.170723
205.441803
478.477020
5.610279
3971.642578
3340.694824
38.135933
255.123764
307.477814
214.448364
791.152527
694.653442
111.259979
203.487061
764.009827
0.000000
0.000000
0.000000
0.000000
106.693161
103.771507
169.875763
319320.968750
2212.118164
12.885580
217.002731
3245.342773
583.601990
6084.213379
12.250695
21588.818359
36.409237
426.067780
8697.603516
167.034637
22.954493
128166.570312
17500.925781
4530.170898
7180.458984
196817.109375
141.456238
7760.892578
0.000000
0.000000
0.000000
0.000000
332.956177
149.485352
285.243225
89.192307
10511.036133
2669.336670
3063.249756
175.660339
68835.500000
164.868698
215246224.000000
4244.401855
869.977722
225.538559
97.621986
488973.312500
35.510361
112331.835938
2101.929199
113.041801
2608.471191
2067.380615
85.671623
1156.752686
0.000000
0.000000
0.000000
0.000000
126.668518
1159.936523