<?xml version='1.0' encoding='UTF-8'?>
<VTKFile xmlns='VTK' byte_order='LittleEndian' version='0.1' type='UnstructuredGrid'>
<UnstructuredGrid>
<Piece NumberOfCells='2512' NumberOfPoints='2512'>
<Points>
<DataArray NumberOfComponents='3' type='Float32' Name='Position' format='ascii'>
-0.075000 -0.075000 0.000000
-0.075000 -0.050000 0.000000
-0.075000 -0.025000 0.000000
-0.075000 0.000000 0.000000
-0.075000 0.025000 0.000000
-0.075000 0.050000 0.000000
-0.075000 0.075000 0.000000
-0.075000 0.100000 0.000000
-0.075000 0.125000 0.000000
-0.075000 0.150000 0.000000
-0.075000 0.175000 0.000000
-0.075000 0.200000 0.000000
-0.075000 0.225000 0.000000
-0.075000 0.250000 0.000000
-0.075000 0.275000 0.000000
-0.075000 0.300000 0.000000
-0.075000 0.325000 0.000000
-0.075000 0.350000 0.000000
-0.075000 0.375000 0.000000
-0.075000 0.400000 0.000000
-0.075000 0.425000 0.000000
-0.075000 0.450000 0.000000
-0.075000 0.475000 0.000000
-0.075000 0.500000 0.000000
-0.075000 0.525000 0.000000
-0.075000 0.550000 0.000000
-0.075000 0.575000 0.000000
-0.075000 0.600000 0.000000
-0.050000 -0.075000 0.000000
-0.050000 -0.050000 0.000000
-0.050000 -0.025000 0.000000
-0.050000 0.000000 0.000000
-0.050000 0.025000 0.000000
-0.050000 0.050000 0.000000
-0.050000 0.075000 0.000000
-0.050000 0.100000 0.000000
-0.050000 0.125000 0.000000
-0.050000 0.150000 0.000000
-0.050000 0.175000 0.000000
-0.050000 0.200000 0.000000
-0.050000 0.225000 0.000000
-0.050000 0.250000 0.000000
-0.050000 0.275000 0.000000
-0.050000 0.300000 0.000000
-0.050000 0.325000 0.000000
-0.050000 0.350000 0.000000
-0.050000 0.375000 0.000000
-0.050000 0.400000 0.000000
-0.050000 0.425000 0.000000
-0.050000 0.450000 0.000000
-0.050000 0.475000 0.000000
-0.050000 0.500000 0.000000
-0.050000 0.525000 0.000000
-0.050000 0.550000 0.000000
-0.050000 0.575000 0.000000
-0.050000 0.600000 0.000000
-0.025000 -0.075000 0.000000
-0.025000 -0.050000 0.000000
-0.025000 -0.025000 0.000000
-0.025000 0.000000 0.000000
-0.025000 0.025000 0.000000
-0.025000 0.050000 0.000000
-0.025000 0.075000 0.000000
-0.025000 0.100000 0.000000
-0.025000 0.125000 0.000000
-0.025000 0.150000 0.000000
-0.025000 0.175000 0.000000
-0.025000 0.200000 0.000000
-0.025000 0.225000 0.000000
-0.025000 0.250000 0.000000
-0.025000 0.275000 0.000000
-0.025000 0.300000 0.000000
-0.025000 0.325000 0.000000
-0.025000 0.350000 0.000000
-0.025000 0.375000 0.000000
-0.025000 0.400000 0.000000
-0.025000 0.425000 0.000000
-0.025000 0.450000 0.000000
-0.025000 0.475000 0.000000
-0.025000 0.500000 0.000000
-0.025000 0.525000 0.000000
-0.025000 0.550000 0.000000
-0.025000 0.575000 0.000000
-0.025000 0.600000 0.000000
0.000000 -0.075000 0.000000
0.000000 -0.050000 0.000000
0.000000 -0.025000 0.000000
0.000000 0.000000 0.000000
0.000000 0.025000 0.000000
0.000000 0.050000 0.000000
0.000000 0.075000 0.000000
0.000000 0.100000 0.000000
0.000000 0.125000 0.000000
0.000000 0.150000 0.000000
0.000000 0.175000 0.000000
0.000000 0.200000 0.000000
0.000000 0.225000 0.000000
0.000000 0.250000 0.000000
0.000000 0.275000 0.000000
0.000000 0.300000 0.000000
0.000000 0.325000 0.000000
0.000000 0.350000 0.000000
0.000000 0.375000 0.000000
0.000000 0.400000 0.000000
0.000000 0.425000 0.000000
0.000000 0.450000 0.000000
0.000000 0.475000 0.000000
0.000000 0.500000 0.000000
0.000000 0.525000 0.000000
0.000000 0.550000 0.000000
0.000000 0.575000 0.000000
0.000000 0.600000 0.000000
0.025000 -0.075000 0.000000
0.025000 -0.050000 0.000000
0.025000 -0.025000 0.000000
0.025000 0.000000 0.000000
0.024509 0.025746 0.000000
0.025430 0.049884 0.000000
0.025872 0.073424 0.000000
0.024660 0.097647 0.000000
0.021333 0.137770 0.000000
0.024496 0.167923 0.000000
0.025243 0.194356 0.000000
0.023273 0.221150 0.000000
0.024757 0.249448 0.000000
0.026479 0.273229 0.000000
0.023928 0.296909 0.000000
0.027319 0.321632 0.000000
0.024187 0.344541 0.000000
0.025253 0.368883 0.000000
0.025724 0.392499 0.000000
0.023270 0.420680 0.000000
0.025058 0.455542 0.000000
0.024826 0.481713 0.000000
0.024614 0.505753 0.000000
0.026552 0.528686 0.000000
0.025715 0.575313 0.000000
0.035231 0.600000 0.000000
0.052369 0.600000 0.000000
0.014485 0.600000 0.000000
0.765000 0.625000 0.000000
0.765000 0.650000 0.000000
0.765000 0.675000 0.000000
0.050000 -0.075000 0.000000
0.050000 -0.050000 0.000000
0.050000 -0.025000 0.000000
0.050000 0.000000 0.000000
0.047826 0.028024 0.000000
0.057424 0.051322 0.000000
0.049620 0.074281 0.000000
0.037407 0.113449 0.000000
0.040776 0.148521 0.000000
0.049781 0.178319 0.000000
0.046957 0.201930 0.000000
0.046476 0.229369 0.000000
0.049932 0.256206 0.000000
0.052922 0.278829 0.000000
0.050338 0.304076 0.000000
0.052169 0.333455 0.000000
0.051293 0.359149 0.000000
0.053186 0.382676 0.000000
0.045759 0.408335 0.000000
0.040400 0.434292 0.000000
0.044934 0.464581 0.000000
0.050613 0.493909 0.000000
0.054628 0.517738 0.000000
0.057393 0.541004 0.000000
0.026331 0.550761 0.000000
0.068584 0.580234 0.000000
0.100799 0.579496 0.000000
0.072063 0.600000 0.000000
0.790000 0.625000 0.000000
0.790000 0.650000 0.000000
0.790000 0.675000 0.000000
0.075000 -0.075000 0.000000
0.075000 -0.050000 0.000000
0.075000 -0.025000 0.000000
0.075000 0.000000 0.000000
0.094835 0.028101 0.000000
0.069853 0.023424 0.000000
0.067265 0.086564 0.000000
0.059442 0.109907 0.000000
0.060817 0.132203 0.000000
0.065814 0.161737 0.000000
0.077977 0.185195 0.000000
0.071415 0.210619 0.000000
0.068471 0.237325 0.000000
0.081532 0.261388 0.000000
0.078021 0.284507 0.000000
0.067880 0.315320 0.000000
0.072578 0.349810 0.000000
0.079752 0.374852 0.000000
0.070258 0.402101 0.000000
0.074553 0.423724 0.000000
0.065487 0.446491 0.000000
0.071305 0.468626 0.000000
0.075367 0.497510 0.000000
0.078429 0.522115 0.000000
0.077622 0.557064 0.000000
0.048730 0.564527 0.000000
0.092638 0.600000 0.000000
0.111872 0.600000 0.000000
0.815000 0.625000 0.000000
0.815000 0.650000 0.000000
0.815000 0.675000 0.000000
0.100000 -0.075000 0.000000
0.100000 -0.050000 0.000000
0.100000 -0.025000 0.000000
0.100000 0.000000 0.000000
0.115821 0.023145 0.000000
0.079644 0.057105 0.000000
0.090724 0.099632 0.000000
0.085925 0.125665 0.000000
0.085346 0.150557 0.000000
0.109108 0.163121 0.000000
0.097764 0.186703 0.000000
0.090701 0.223125 0.000000
0.099199 0.245364 0.000000
0.103910 0.276650 0.000000
0.093043 0.303210 0.000000
0.091422 0.331856 0.000000
0.100797 0.353501 0.000000
0.104883 0.378660 0.000000
0.096344 0.402712 0.000000
0.107553 0.425502 0.000000
0.091335 0.444449 0.000000
0.091530 0.477433 0.000000
0.114145 0.488510 0.000000
0.099551 0.509224 0.000000
0.094861 0.543539 0.000000
0.113553 0.556470 0.000000
0.132246 0.572754 0.000000
0.130216 0.600000 0.000000
0.840000 0.625000 0.000000
0.840000 0.650000 0.000000
0.840000 0.675000 0.000000
0.125000 -0.075000 0.000000
0.125000 -0.050000 0.000000
0.125000 -0.025000 0.000000
0.125000 0.000000 0.000000
0.142396 0.027448 0.000000
0.102729 0.051709 0.000000
0.095043 0.075503 0.000000
0.111861 0.108169 0.000000
0.109090 0.134104 0.000000
0.129155 0.147052 0.000000
0.123575 0.181864 0.000000
0.112391 0.208737 0.000000
0.125930 0.231086 0.000000
0.121101 0.255537 0.000000
0.115935 0.295819 0.000000
0.136440 0.315781 0.000000
0.113586 0.326330 0.000000
0.123243 0.360227 0.000000
0.140423 0.382738 0.000000
0.119761 0.398357 0.000000
0.134992 0.419584 0.000000
0.112874 0.449397 0.000000
0.125556 0.470588 0.000000
0.127166 0.538602 0.000000
0.148708 0.550353 0.000000
0.157373 0.582474 0.000000
0.187834 0.575458 0.000000
0.149186 0.600000 0.000000
0.865000 0.625000 0.000000
0.865000 0.650000 0.000000
0.865000 0.675000 0.000000
0.150000 -0.075000 0.000000
0.150000 -0.050000 0.000000
0.150000 -0.025000 0.000000
0.150000 0.000000 0.000000
0.161733 0.024635 0.000000
0.124797 0.060446 0.000000
0.121626 0.087369 0.000000
0.149011 0.098515 0.000000
0.136014 0.119706 0.000000
0.149731 0.154383 0.000000
0.145946 0.180001 0.000000
0.136315 0.210675 0.000000
0.150155 0.228000 0.000000
0.141774 0.263295 0.000000
0.139426 0.286983 0.000000
0.159206 0.309334 0.000000
0.138074 0.338543 0.000000
0.152792 0.363529 0.000000
0.152649 0.404983 0.000000
0.155725 0.434141 0.000000
0.139245 0.448975 0.000000
0.151870 0.479230 0.000000
0.121198 0.515218 0.000000
0.143667 0.501782 0.000000
0.150433 0.523708 0.000000
0.173710 0.557405 0.000000
0.189840 0.600000 0.000000
0.171670 0.600000 0.000000
0.890000 0.625000 0.000000
0.890000 0.650000 0.000000
0.890000 0.675000 0.000000
0.175000 -0.075000 0.000000
0.175000 -0.050000 0.000000
0.175000 -0.025000 0.000000
0.175000 0.000000 0.000000
0.188657 0.025324 0.000000
0.145290 0.052922 0.000000
0.146661 0.076340 0.000000
0.174079 0.105804 0.000000
0.158133 0.125866 0.000000
0.174281 0.148946 0.000000
0.177271 0.173191 0.000000
0.162976 0.194060 0.000000
0.172843 0.224853 0.000000
0.163566 0.261921 0.000000
0.165577 0.285791 0.000000
0.181746 0.318060 0.000000
0.161530 0.342453 0.000000
0.184714 0.366931 0.000000
0.169910 0.384557 0.000000
0.177023 0.415688 0.000000
0.164768 0.460376 0.000000
0.191452 0.464640 0.000000
0.173792 0.490518 0.000000
0.181011 0.508527 0.000000
0.171316 0.534192 0.000000
0.199012 0.544870 0.000000
0.212684 0.576663 0.000000
0.209467 0.600000 0.000000
0.915000 0.625000 0.000000
0.915000 0.650000 0.000000
0.915000 0.675000 0.000000
0.200000 -0.075000 0.000000
0.200000 -0.050000 0.000000
0.200000 -0.025000 0.000000
0.200000 0.000000 0.000000
0.213606 0.026740 0.000000
0.170643 0.059861 0.000000
0.180739 0.080341 0.000000
0.198858 0.098864 0.000000
0.186352 0.126994 0.000000
0.200622 0.150500 0.000000
0.186483 0.196113 0.000000
0.197967 0.223426 0.000000
0.179914 0.244512 0.000000
0.197306 0.273033 0.000000
0.190006 0.293039 0.000000
0.210952 0.307027 0.000000
0.187280 0.339337 0.000000
0.208266 0.363491 0.000000
0.193011 0.393175 0.000000
0.201563 0.422020 0.000000
0.184101 0.438686 0.000000
0.209494 0.450507 0.000000
0.200630 0.486570 0.000000
0.218543 0.499209 0.000000
0.201995 0.524420 0.000000
0.222001 0.548288 0.000000
[...]
<PointData>
<DataArray NumberOfComponents='1' type='Int32' Name='ParticleType' format='ascii'>
3
3
3
3
3
3
3
3
3
3
3
3
3
3
3
3
3
3
3
3
3
3
3
3
3
3
3
3
3
3
3
3
3
3
3
3
3
3
3
3
3
3
3
3
3
3
3
3
3
3
3
3
3
3
3
3
3
3
2
2
2
2
2
2
2
2
2
2
2
2
2
2
2
2
2
2
2
2
2
2
2
2
2
2
3
3
2
2
2
2
2
2
2
2
2
2
2
2
2
2
2
2
2
2
2
2
2
2
2
2
2
2
3
3
2
2
0
0
0
0
0
0
0
0
0
0
0
0
0
0
0
0
0
0
0
0
0
0
0
0
1
1
1
3
3
2
2
0
0
0
0
0
0
0
0
0
0
0
0
0
0
0
0
0
0
0
0
0
0
0
0
1
1
1
3
3
2
2
0
0
0
0
0
0
0
0
0
0
0
0
0
0
0
0
0
0
0
0
0
0
0
0
1
1
1
3
3
2
2
0
0
0
0
0
0
0
0
0
0
0
0
0
0
0
0
0
0
0
0
0
0
0
0
1
1
1
3
3
2
2
0
0
0
0
0
0
0
0
0
0
0
0
0
0
0
0
0
0
0
0
0
0
0
0
1
1
1
3
3
2
2
0
0
0
0
0
0
0
0
0
0
0
0
0
0
0
0
0
0
0
0
0
0
0
0
1
1
1
3
3
2
2
0
0
0
0
0
0
0
0
0
0
0
0
0
0
0
0
0
0
0
0
0
0
0
0
1
1
1
3
3
2
2
0
0
0
0
0
0
0
0
0
0
0
0
0
0
0
0
0
0
0
0
0
0
0
0
1
1
1
3
3
2
2
0
0
0
0
0
0
0
0
0
0
0
0
0
0
0
0
0
0
0
0
0
0
0
0
1
1
1
3
3
2
2
0
0
0
0
0
0
0
0
0
0
0
0
0
0
0
0
0
0
0
0
0
0
0
0
1
1
1
3
3
2
2
0
0
0
0
0
0
0
0
0
0
0
0
0
0
0
0
0
0
0
0
0
0
0
0
1
1
1
3
3
2
2
0
0
0
0
0
0
0
0
0
0
0
0
0
0
0
0
0
0
0
0
0
0
0
0
1
1
1
3
3
2
2
0
0
0
0
0
0
0
0
0
0
0
0
0
0
0
0
0
0
0
0
0
0
0
0
1
1
1
3
3
2
2
0
0
0
0
0
0
0
0
0
0
0
0
0
0
0
0
0
0
0
0
0
0
0
0
1
1
1
3
3
2
2
0
0
0
0
0
0
0
0
0
0
0
0
0
0
0
0
0
0
0
0
0
0
0
0
1
1
1
3
3
2
2
0
0
0
0
0
0
0
0
0
0
0
0
0
0
0
0
0
0
0
0
0
0
0
0
1
1
1
3
3
2
2
0
0
0
0
0
0
0
0
0
0
0
0
0
0
0
0
0
0
0
0
0
0
0
0
3
3
2
2
0
0
0
0
0
0
0
0
0
0
0
0
0
0
0
0
0
0
0
0
0
0
0
0
3
3
2
2
0
0
0
0
0
0
0
0
0
0
0
0
0
0
0
0
0
0
0
0
0
0
0
0
3
3
2
2
0
0
0
0
0
0
0
0
0
0
0
0
0
0
0
0
0
0
0
0
0
0
0
0
3
3
2
2
0
0
0
0
0
0
0
0
0
0
0
0
0
0
0
0
0
0
0
0
0
0
0
0
3
3
2
2
0
0
0
0
0
0
0
0
0
0
0
0
0
0
0
0
0
0
0
0
0
0
0
0
3
3
2
2
0
0
0
0
0
0
0
0
0
0
0
0
0
0
0
0
0
0
0
0
0
0
0
0
3
3
2
2
0
0
0
0
0
0
0
0
0
0
0
0
0
0
0
0
0
0
0
0
0
0
0
0
3
3
2
2
0
0
0
0
0
0
0
0
0
0
0
0
0
0
0
0
0
0
0
0
0
0
0
0
3
3
2
2
0
0
0
0
0
0
0
0
0
0
0
0
0
0
0
0
0
0
0
0
0
0
0
0
3
3
2
2
0
0
0
0
0
0
0
0
0
0
0
0
0
0
0
0
0
0
0
0
0
0
0
0
3
3
2
2
0
0
0
0
0
0
0
0
0
0
0
0
0
0
0
0
0
0
0
0
0
0
0
0
3
3
2
2
0
0
0
0
0
0
0
0
0
0
0
0
0
0
0
0
0
0
0
0
0
0
0
0
3
3
2
2
0
0
0
0
0
0
0
0
0
0
0
0
0
0
0
0
0
0
0
0
0
0
0
0
3
3
2
2
0
0
0
0
0
0
0
0
0
0
0
0
0
0
0
0
0
0
0
0
0
0
0
0
3
3
2
2
0
0
0
0
0
0
0
0
0
0
0
0
0
0
0
0
0
0
0
0
0
0
0
0
3
3
2
2
0
0
0
0
0
0
0
0
0
0
0
0
0
0
0
0
0
0
0
0
0
0
0
0
3
3
2
2
0
0
0
0
0
0
0
0
0
0
0
0
0
0
0
0
0
0
0
0
0
0
0
0
3
3
2
2
0
0
0
0
0
0
0
0
0
0
0
0
0
0
0
0
0
0
0
0
0
0
0
0
3
3
2
2
0
0
0
0
0
0
0
0
0
0
0
0
0
0
0
0
0
0
0
0
0
0
0
0
3
3
2
2
0
0
0
0
0
0
0
0
0
0
0
0
0
0
0
0
0
0
0
0
0
0
0
0
3
3
2
2
0
0
0
0
0
0
0
0
0
0
0
0
0
0
0
0
0
0
0
0
0
0
0
0
3
3
2
2
0
0
0
0
0
0
0
0
0
0
0
0
0
0
0
0
0
0
0
0
0
0
0
0
3
3
2
2
0
0
0
0
0
0
0
0
0
0
0
0
0
0
0
0
0
0
0
0
0
0
0
0
3
3
2
2
0
0
0
0
0
0
0
0
0
0
0
0
0
0
0
0
0
0
0
0
0
0
0
0
3
3
2
2
0
0
0
0
0
0
0
0
0
0
0
0
0
0
0
0
0
0
0
0
0
0
0
0
3
3
2
2
0
0
0
0
0
0
0
0
0
0
0
0
0
0
0
0
0
0
0
0
0
0
0
0
3
3
2
2
0
0
0
0
0
0
0
0
0
0
0
0
0
0
0
0
0
0
0
0
0
0
0
0
3
3
2
2
0
0
0
0
0
0
0
0
0
0
0
0
0
0
0
0
0
0
0
0
0
0
0
0
3
3
2
2
0
0
0
0
0
0
0
0
0
0
0
0
0
0
0
0
0
0
0
0
0
0
0
0
3
3
2
2
0
0
0
0
0
0
0
0
0
0
0
0
0
0
0
0
0
0
0
0
0
0
0
0
3
3
2
2
0
0
0
0
0
0
0
0
0
0
0
0
0
0
0
0
0
0
0
0
0
0
0
0
3
3
2
2
0
0
0
0
0
0
0
0
0
0
0
0
0
0
0
0
0
0
0
0
0
0
0
0
3
3
2
2
0
0
0
0
0
0
0
0
0
0
0
0
0
0
0
0
0
0
0
0
0
0
0
0
3
3
2
2
0
0
0
0
0
0
0
0
0
0
0
0
0
0
0
0
0
0
0
0
0
0
0
0
3
3
2
2
0
0
0
0
0
0
0
0
0
0
0
0
0
0
0
0
0
0
0
0
0
0
0
0
3
3
2
2
0
0
0
0
0
0
0
0
0
0
0
0
0
0
0
0
0
0
0
0
0
0
0
0
3
3
2
2
0
0
0
0
0
0
0
0
0
0
0
0
0
0
0
0
0
0
0
0
0
0
0
0
3
3
2
2
0
0
0
0
0
0
0
0
0
0
0
0
0
0
0
0
0
0
0
0
0
0
0
0
3
3
2
2
0
0
0
0
0
0
0
0
0
0
0
0
0
0
0
0
0
0
0
0
0
0
0
0
3
3
2
2
0
0
0
0
0
0
0
0
0
0
0
0
0
0
0
0
0
0
0
0
0
0
0
0
3
3
2
2
0
0
0
0
0
0
0
0
0
0
0
0
0
0
0
0
0
0
0
0
0
0
0
0
3
3
2
2
0
0
0
0
0
0
0
0
0
0
0
0
0
0
0
0
0
0
0
0
0
0
0
0
3
3
2
2
0
0
0
0
0
0
0
0
0
0
0
0
0
0
0
0
0
0
0
0
0
0
0
0
3
3
2
2
0
0
0
0
0
0
0
0
0
0
0
0
0
0
0
0
0
0
0
0
0
0
0
0
3
3
2
2
0
0
0
0
0
0
0
0
0
0
0
0
0
0
0
0
0
0
0
0
0
0
0
0
3
3
2
2
0
0
0
0
0
0
0
0
0
0
0
0
0
0
0
0
0
0
0
0
0
0
0
0
3
3
2
2
0
0
0
0
0
0
0
0
0
0
0
0
0
0
0
0
0
0
0
0
0
0
0
0
3
3
2
2
0
0
0
0
0
0
0
0
0
0
0
0
0
0
0
0
0
0
0
0
0
0
0
0
3
3
2
2
0
0
0
0
0
0
0
0
0
0
0
0
0
0
0
0
0
0
0
0
0
0
0
0
3
3
2
2
0
0
0
0
0
0
0
0
0
0
0
0
0
0
0
0
0
0
0
0
0
0
0
0
3
3
2
2
0
0
0
0
0
0
0
0
0
0
0
0
0
0
0
0
0
0
0
0
0
0
0
0
3
3
2
2
0
0
0
0
0
0
0
0
0
0
0
0
0
0
0
0
0
0
0
0
0
0
0
0
3
3
2
2
0
0
0
0
0
0
0
0
0
0
0
0
0
0
0
0
0
0
0
0
0
0
0
0
3
3
2
2
0
0
0
0
0
0
0
0
0
0
0
0
0
0
0
0
0
0
0
0
0
0
0
0
3
3
2
2
0
0
0
0
0
0
0
0
0
0
0
0
0
0
0
0
0
0
0
0
0
0
0
0
3
3
2
2
0
0
0
0
0
0
0
0
0
0
0
0
0
0
0
0
0
0
0
0
0
0
0
0
3
3
2
2
0
0
0
0
0
0
0
0
0
0
0
0
0
0
0
0
0
0
0
0
0
0
0
0
3
3
2
2
0
0
0
0
0
0
0
0
0
0
0
0
0
0
0
0
0
0
0
0
0
0
0
0
3
3
2
2
0
0
0
0
0
0
0
0
0
0
0
0
0
0
0
0
0
0
0
0
0
0
0
0
3
3
2
2
0
0
0
0
0
0
0
0
0
0
0
0
0
0
0
0
0
0
0
0
0
0
0
0
3
3
2
2
0
0
0
0
0
0
0
0
0
0
0
0
0
0
0
0
0
0
0
0
0
0
0
0
3
3
2
2
0
0
0
0
0
0
0
0
0
0
0
0
0
0
0
0
0
0
0
0
0
0
0
0
3
3
2
2
0
0
0
0
0
0
0
0
0
0
0
0
0
0
0
0
0
0
0
0
0
0
0
0
3
3
2
2
2
2
2
2
2
2
2
2
2
2
2
2
2
2
2
2
2
2
2
2
2
2
2
2
3
3
2
2
2
2
2
2
2
2
2
2
2
2
2
2
2
2
2
2
2
2
2
2
2
2
2
2
3
3
3
3
3
3
3
3
3
3
3
3
3
3
3
3
3
3
3
3
3
3
3
3
3
3
3
3
3
3
3
3
3
3
3
3
3
3
3
3
3
3
3
3
3
3
3
3
3
3
3
3
3
3
3
3
</DataArray>
<DataArray NumberOfComponents='1' type='Float32' Name='Velocity' format='ascii'>
0.000000
0.000000
0.000000
0.000000
0.000000
0.000000
0.000000
0.000000
0.000000
0.000000
0.000000
0.000000
0.000000
0.000000
0.000000
0.000000
0.000000
0.000000
0.000000
0.000000
0.000000
0.000000
0.000000
0.000000
0.000000
0.000000
0.000000
0.000000
0.000000
0.000000
0.000000
0.000000
0.000000
0.000000
0.000000
0.000000
0.000000
0.000000
0.000000
0.000000
0.000000
0.000000
0.000000
0.000000
0.000000
0.000000
0.000000
0.000000
0.000000
0.000000
0.000000
0.000000
0.000000
0.000000
0.000000
0.000000
0.000000
0.000000
0.000000
0.000000
0.000000
0.000000
0.000000
0.000000
0.000000
0.000000
0.000000
0.000000
0.000000
0.000000
0.000000
0.000000
0.000000
0.000000
0.000000
0.000000
0.000000
0.000000
0.000000
0.000000
0.000000
0.000000
0.000000
0.000000
0.000000
0.000000
0.000000
0.000000
0.000000
0.000000
0.000000
0.000000
0.000000
0.000000
0.000000
0.000000
0.000000
0.000000
0.000000
0.000000
0.000000
0.000000
0.000000
0.000000
0.000000
0.000000
0.000000
0.000000
0.000000
0.000000
0.000000
0.000000
0.000000
0.000000
0.000000
0.000000
0.078679
0.030220
0.186871
0.031000
0.114254
0.215202
0.038274
0.086188
0.191198
0.131799
0.328796
0.187751
0.261519
0.118563
0.158642
0.077902
0.228897
0.151230
0.338047
0.107626
0.313935
30.198164
21.002466
30.431910
1.000000
1.000000
1.000000
0.000000
0.000000
0.000000
0.000000
0.098821
0.196930
0.255094
0.202703
0.038589
0.072753
0.181620
0.140891
0.195450
0.097444
0.065080
0.125923
0.187253
0.317566
0.229080
0.067800
0.240777
0.248849
0.422029
0.249121
0.208354
0.193473
0.159475
18.236494
1.000000
1.000000
1.000000
0.000000
0.000000
0.000000
0.000000
0.189016
0.095657
0.309465
0.115591
0.080824
0.092172
0.147612
0.158223
0.076006
0.092727
0.158945
0.185808
0.210239
0.095417
0.175237
0.192323
0.126736
0.229445
0.225899
0.097422
0.394296
0.171822
5.053543
11.896270
1.000000
1.000000
1.000000
0.000000
0.000000
0.000000
0.000000
0.076228
0.150167
0.044648
0.064926
0.155793
0.164260
0.122947
0.177451
0.125228
0.115517
0.168601
0.196740
0.112156
0.124969
0.239002
0.039159
0.211519
0.083176
0.157798
0.244860
0.190517
0.394386
0.447365
13.777323
1.000000
1.000000
1.000000
0.000000
0.000000
0.000000
0.000000
0.147565
0.157218
0.240385
0.248364
0.251619
0.072388
0.214366
0.167132
0.093315
0.069962
0.186751
0.117477
0.131493
0.080677
0.053927
0.047950
0.127991
0.055362
0.273013
0.492782
0.719330
0.741181
0.429262
11.280169
1.000000
1.000000
1.000000
0.000000
0.000000
0.000000
0.000000
0.149366
0.109365
0.274973
0.079609
0.138489
0.083892
0.064100
0.065408
0.055194
0.052564
0.014770
0.105798
0.087786
0.134471
0.181245
0.280625
0.282376
0.208395
0.251810
0.212435
0.191162
0.716631
23.952330
17.180946
1.000000
1.000000
1.000000
0.000000
0.000000
0.000000
0.000000
0.133190
0.171369
0.317695
0.135427
0.202677
0.085620
0.222885
0.091699
0.042328
0.038182
0.197464
0.219542
0.112688
0.141650
0.167327
0.316422
0.082849
0.225564
0.234141
0.224161
0.289118
0.316045
0.902746
13.424166
1.000000
1.000000
1.000000
0.000000
0.000000
0.000000
0.000000
0.156530
0.043386
0.120983
0.167530
0.140460
0.095562
0.084567
0.346355
0.119394
0.292396
0.176917
0.090214
0.062590
0.140073
0.136228
0.231017
0.214302
0.299246
0.281575
0.178546
0.032665
0.293927
0.712469
13.512683
1.000000
1.000000
1.000000
0.000000
0.000000
0.000000
0.000000
0.129790
0.208915
0.060680
0.119099
0.029769
0.134952
0.051833
0.169604
0.184269
0.131919
0.035350
0.043496
0.267774
0.256871
0.268619
0.139377
0.308859
0.116086
0.141135
0.135995
0.168951
0.311609
0.476253
15.657550
1.000000
1.000000
1.000000
0.000000
0.000000
0.000000
0.000000
0.053952
0.079263
0.100743
0.085063
0.100509
0.139646
0.154762
0.121064
0.021113
0.003031
0.190186
0.044996
0.146988
0.027999
0.118960
0.176878
0.108834
0.281516
0.027566
0.075421
0.152206
0.237532
7.024707
16.474922
1.000000
1.000000
1.000000
0.000000
0.000000
0.000000
0.000000
0.136841
0.113465
0.151958
0.080042
0.145966
0.111654
0.171032
0.118562
0.019875
0.080502
0.066710
0.054992
0.056362
0.164549
0.064118
0.410956
0.195595
0.101707
0.145720
0.094129
0.075991
0.505113
0.339484
12.167921
1.000000
1.000000
1.000000
0.000000
0.000000
0.000000
0.000000
0.125603
0.142377
0.077292
0.145275
0.139370
0.122172
0.099858
0.043754
0.069703
0.092546
0.129053
0.089404
0.095641
0.042385
0.060430
0.023256
0.234218
0.124889
0.210095
0.140088
0.348963
0.222381
14.342251
12.774174
1.000000
1.000000
1.000000
0.000000
0.000000
0.000000
0.000000
0.149468
0.096924
0.074927
0.100241
0.060437
0.152537
0.172142
0.079172
0.069026
0.041650
0.018961
0.078084
0.079292
0.090158
0.090698
0.081965
0.295408
0.069262
0.129609
0.255323
0.415360
0.166648
0.162319
12.067845
1.000000
1.000000
1.000000
0.000000
0.000000
0.000000
0.000000
0.056255
0.160226
0.233817
0.160046
0.043809
0.159664
0.073944
0.148381
0.126281
0.010746
0.053685
0.089494
0.087983
0.089480
0.066105
0.080465
0.123585
0.176505
0.204441
0.232273
0.153219
0.211058
0.303180
15.801810
1.000000
1.000000
1.000000
0.000000
0.000000
0.000000
0.000000
0.187556
0.075649
0.120722
0.119271
0.066259
0.068761
0.115650
0.134831
0.035396
0.018965
0.031944
0.207523
0.066821
0.152045
0.047343
0.123824
0.102831
0.093200
0.145244
0.239945
0.119706
0.241514
13.306365
14.664012
1.000000
1.000000
1.000000
0.000000
0.000000
0.000000
0.000000
0.135879
0.124464
0.201206
0.166038
0.090829
0.118649
0.086546
0.012985
0.119716
0.086439
0.086171
0.183775
0.289472
0.158496
0.123006
0.031923
0.049887
0.218263
0.253992
0.062962
0.083720
0.244832
0.529403
14.503693
1.000000
1.000000
1.000000
0.000000
0.000000
0.000000
0.000000
0.197553
0.159873
0.127095
0.111355
0.099243
0.007646
0.112505
0.079484
0.128813
0.042451
0.120071
0.194957
0.206500
0.089005
0.187861
0.156076
0.170341
0.214094
0.083286
0.286391
0.156937
0.127533
0.258043
14.260258
0.000000
0.000000
0.000000
0.000000
0.103505
0.109468
0.085404
0.087400
0.034584
0.122066
0.164873
0.133105
0.076730
0.088446
0.057877
0.127124
0.069165
0.062763
0.184015
0.087474
0.224376
0.133958
0.241280
0.083374
0.271528
0.174173
0.187843
16.052601
0.000000
0.000000
0.000000
0.000000
0.117446
0.052289
0.090377
0.108793
0.075639
0.089506
0.155868
0.073901
0.066873
0.075270
0.110746
0.150821
0.130276
0.105668
0.137604
0.126057
0.124707
0.267223
0.038904
0.040306
0.297686
0.350744
0.405691
12.905809
0.000000
0.000000
0.000000
0.000000
0.032635
0.126483
0.081074
0.109471
0.063256
0.078334
0.080336
0.078150
0.134517
0.086329
0.028627
0.193264
0.135736
0.154603
0.318276
0.050548
0.153856
0.194964
0.109268
0.093450
0.162206
0.362722
15.165318
24.845444
0.000000
0.000000
0.000000
0.000000
0.054425
0.038758
0.113247
0.159956
0.104271
0.043144
0.165311
0.050690
0.107055
0.168907
0.204502
0.110020
0.206762
0.206621
0.222418
0.215971
0.183313
0.073747
0.137029
0.270926
0.184276
0.516764
12.543942
20.665152
0.000000
0.000000
0.000000
0.000000
0.092942
0.047577
0.069220
0.076760
0.072237
0.070471
0.017282
0.031915
0.171219
0.127863
0.080513
0.093702
0.090873
0.169521
0.113437
0.213754
0.147261
0.111756
0.225736
0.207964
0.099725
0.280666
0.114299
30.222494
0.000000
0.000000
0.000000
0.000000
0.037785
0.039200
0.099935
0.084493
0.158158
0.192418
0.035400
0.076863
0.153217
0.094693
0.032511
0.053033
0.092788
0.061131
0.025235
0.089481
0.084810
0.069147
0.115907
0.090383
0.380403
0.207241
25.806709
14.015650
0.000000
0.000000
0.000000
0.000000
0.100498
0.018506
0.040342
0.032425
0.064232
0.076023
0.123084
0.025240
0.107153
0.051412
0.069299
0.114097
0.031881
0.085856
0.196571
0.176688
0.039516
0.027646
0.148877
0.239202
0.159518
0.151304
0.634565
15.536005
0.000000
0.000000
0.000000
0.000000
0.074791
0.077389
0.074951
0.108355
0.102529
0.091527
0.013660
0.045584
0.131757
0.062696
0.018590
0.124517
0.015382
0.091292
0.068915
0.095265
0.104284
0.102376
0.140759
0.088754
0.084254
0.204048
0.474527
22.916660
0.000000
0.000000
0.000000
0.000000
0.099564
0.059992
0.016346
0.097274
0.121189
0.058391
0.054508
0.047694
0.076356
0.046508
0.114334
0.035461
0.046283
0.058588
0.107419
0.046783
0.141758
0.145551
0.122338
0.301910
0.201826
0.436695
0.426206
30.158836
0.000000
0.000000
0.000000
0.000000
0.021758
0.082354
0.111073
0.089855
0.086993
0.072264
0.069793
0.040729
0.097653
0.064326
0.070618
0.086800
0.113133
0.075403
0.091277
0.082705
0.088313
0.052757
0.113482
0.219638
0.080171
0.213641
0.344070
34.415939
0.000000
0.000000
0.000000
0.000000
0.034284
0.073635
0.033162
0.057965
0.121471
0.057244
0.053855
0.021358
0.095118
0.032560
0.059109
0.031901
0.092969
0.088810
0.076737
0.032241
0.095461
0.074480
0.066179
0.125110
0.176917
0.209783
0.427743
21.339039
0.000000
0.000000
0.000000
0.000000
0.042128
0.131728
0.117462
0.068354
0.068727
0.016173
0.045378
0.058112
0.063070
0.090121
0.055827
0.063672
0.038904
0.120074
0.108148
0.068173
0.161449
0.072221
0.212689
0.186338
0.088838
0.220109
0.360039
15.841128
0.000000
0.000000
0.000000
0.000000
0.045311
0.081769
0.097455
0.131425
0.129583
0.162520
0.066992
0.046647
0.031925
0.038728
0.123576
0.038113
0.103616
0.045286
0.093808
0.042431
0.026376
0.103533
0.072441
0.097031
0.265243
0.150090
0.333868
10.706527
0.000000
0.000000
0.000000
0.000000
0.016881
0.066719
0.052186
0.043802
0.110818
0.034798
0.146916
0.075723
0.026741
0.029236
0.047553
0.022721
0.024623
0.069646
0.054725
0.112651
0.122942
0.079325
0.155407
0.236577
0.141657
0.107051
0.344487
8.881676
0.000000
0.000000
0.000000
0.000000
0.024578
0.075049
0.063810
0.051559
0.139759
0.080079
0.116503
0.039234
0.082193
0.080134
0.105617
0.047558
0.103128
0.027209
0.071158
0.050810
0.128677
0.161182
0.071666
0.170380
0.323064
0.141506
0.202144
9.482174
0.000000
0.000000
0.000000
0.000000
0.070356
0.055130
0.043345
0.050445
0.082788
0.051260
0.099045
0.084307
0.069195
0.041838
0.117019
0.055181
0.050900
0.063555
0.033620
0.066174
0.130676
0.007728
0.056656
0.204957
0.137660
0.077420
0.031690
7.984492
0.000000
0.000000
0.000000
0.000000
0.017433
0.069529
0.074657
0.055096
0.062171
0.058590
0.128243
0.071771
0.082533
0.037689
0.065854
0.023228
0.072872
0.054584
0.066354
0.075105
0.113838
0.213971
0.061709
0.156785
0.269937
0.060652
0.137113
6.604557
0.000000
0.000000
0.000000
0.000000
0.095118
0.039348
0.100425
0.039818
0.046649
0.049680
0.051538
0.059170
0.065562
0.076433
0.120372
0.068092
0.058715
0.063730
0.009712
0.122565
0.032090
0.105525
0.019320
0.214027
0.116803
0.111511
0.163050
5.907936
0.000000
0.000000
0.000000
0.000000
0.051103
0.055558
0.073480
0.085117
0.042611
0.067555
0.103192
0.066778
0.065619
0.043354
0.064065
0.034544
0.070904
0.062701
0.091318
0.059773
0.025185
0.163444
0.067758
0.118773
0.151446
0.249789
0.237651
6.520377
0.000000
0.000000
0.000000
0.000000
0.061408
0.059186
0.105768
0.056686
0.072876
0.040343
0.064621
0.029019
0.104091
0.075255
0.110596
0.068835
0.121334
0.067046
0.058803
0.065731
0.085227
0.115919
0.060182
0.112420
0.228694
0.273361
0.175788
6.272357
0.000000
0.000000
0.000000
0.000000
0.041727
0.030451
0.029588
0.105738
0.010882
0.067964
0.060377
0.049198
0.067227
0.043348
0.101077
0.018413
0.088889
0.051427
0.117862
0.070483
0.083339
0.040307
0.049846
0.073060
0.065189
0.360115
0.089084
5.729730
0.000000
0.000000
0.000000
0.000000
0.090315
0.003635
0.115128
0.095838
0.048485
0.049327
0.108985
0.034495
0.080498
0.039471
0.086495
0.008878
0.120541
0.035002
0.041001
0.108242
0.042821
0.241475
0.138041
0.107970
0.189035
0.143510
0.174197
5.240573
0.000000
0.000000
0.000000
0.000000
0.058197
0.058728
0.087036
0.073604
0.015189
0.063039
0.025415
0.020618
0.059873
0.007798
0.080513
0.025562
0.087092
0.016933
0.110019
0.033151
0.097043
0.196356
0.119662
0.024419
0.196085
0.065266
0.530222
6.209017
0.000000
0.000000
0.000000
0.000000
0.088531
0.042884
0.075874
0.143384
0.031969
0.028279
0.106305
0.040393
0.063738
0.032466
0.082657
0.058617
0.110616
0.059187
0.073241
0.035161
0.048176
0.137372
0.065364
0.028223
0.160655
0.141668
0.175268
5.914502
0.000000
0.000000
0.000000
0.000000
0.061488
0.025183
0.119855
0.099125
0.052284
0.053449
0.022841
0.006494
0.077139
0.069942
0.088683
0.030223
0.129115
0.050222
0.105614
0.084033
0.088088
0.071679
0.008945
0.215984
0.200719
0.210466
0.191856
8.288755
0.000000
0.000000
0.000000
0.000000
0.125523
0.059543
0.077738
0.128214
0.054981
0.078652
0.159933
0.082507
0.115296
0.019452
0.087047
0.042614
0.163420
0.113649
0.147221
0.056836
0.064491
0.101137
0.161184
0.153325
0.277519
0.023166
0.312727
18.709579
0.000000
0.000000
0.000000
0.000000
0.040954
0.034914
0.161306
0.145777
0.061706
0.046526
0.050792
0.053771
0.073399
0.051391
0.069282
0.098574
0.191220
0.060095
0.121240
0.112930
0.067079
0.185571
0.250990
0.083932
0.118460
0.101045
0.187097
22.857897
0.000000
0.000000
0.000000
0.000000
0.068605
0.048307
0.092931
0.103459
0.050563
0.067392
0.114997
0.072843
0.074237
0.054513
0.075835
0.033558
0.168903
0.077563
0.205479
0.078893
0.227265
0.133516
0.156913
0.130762
0.019137
0.186464
14.445545
26.360794
0.000000
0.000000
0.000000
0.000000
0.083908
0.021809
0.062216
0.130923
0.150320
0.050418
0.105811
0.125797
0.039982
0.052232
0.028009
0.079239
0.121006
0.124756
0.099208
0.119028
0.069963
0.069132
0.250494
0.124703
0.150447
0.138361
0.053982
28.847307
0.000000
0.000000
0.000000
0.000000
0.086317
0.025972
0.133106
0.101027
0.065111
0.097648
0.023534
0.117780
0.059575
0.069065
0.075740
0.123824
0.246119
0.123193
0.077108
0.170606
0.031617
0.073603
0.131223
0.179934
0.069000
0.192342
0.163292
29.192183
0.000000
0.000000
0.000000
0.000000
0.066179
0.063020
0.040579
0.091872
0.192137
0.116036
0.070119
0.018142
0.045888
0.083383
0.050454
0.032275
0.325590
0.203877
0.087791
0.130547
0.127818
0.286269
0.173464
0.135062
0.228361
0.105279
0.333246
22.462070
0.000000
0.000000
0.000000
0.000000
0.113633
0.044290
0.078887
0.114583
0.092938
0.180838
0.114356
0.081817
0.064521
0.103403
0.125546
0.118844
0.045909
0.091266
0.092709
0.207686
0.153681
0.258050
0.212506
0.084470
0.236745
0.499925
11.340484
20.686954
0.000000
0.000000
0.000000
0.000000
0.069279
0.024512
0.044871
0.097768
0.119113
0.160625
0.055511
0.123876
0.047291
0.020267
0.178848
0.133318
0.155625
0.240157
0.051581
0.130412
0.262037
0.168911
0.158811
0.228108
0.236399
0.303844
0.557951
24.974464
0.000000
0.000000
0.000000
0.000000
0.114590
0.064074
0.082289
0.096668
0.138215
0.103839
0.084263
0.133368
0.072069
0.073917
0.137702
0.072325
0.288232
0.160399
0.090074
0.185236
0.068092
0.051195
0.151668
0.146786
0.217768
0.309720
15.047232
27.206724
0.000000
0.000000
0.000000
0.000000
0.102121
0.017127
0.057157
0.063260
0.098076
0.186074
0.199879
0.079221
0.092706
0.128669
0.099221
0.227885
0.171025
0.041760
0.209620
0.329906
0.124412
0.272630
0.117593
0.165526
0.198338
0.131107
0.406148
25.824482
0.000000
0.000000
0.000000
0.000000
0.128551
0.035282
0.056400
0.023701
0.104801
0.116241
0.232744
0.053566
0.141219
0.064958
0.140209
0.139183
0.220936
0.132778
0.069027
0.109807
0.132846