<?xml version='1.0' encoding='UTF-8'?>
<VTKFile xmlns='VTK' byte_order='LittleEndian' version='0.1' type='UnstructuredGrid'>
<UnstructuredGrid>
<Piece NumberOfCells='2512' NumberOfPoints='2512'>
<Points>
<DataArray NumberOfComponents='3' type='Float32' Name='Position' format='ascii'>
-0.075000 -0.075000 0.000000
-0.075000 -0.050000 0.000000
-0.075000 -0.025000 0.000000
-0.075000 0.000000 0.000000
-0.075000 0.025000 0.000000
-0.075000 0.050000 0.000000
-0.075000 0.075000 0.000000
-0.075000 0.100000 0.000000
-0.075000 0.125000 0.000000
-0.075000 0.150000 0.000000
-0.075000 0.175000 0.000000
-0.075000 0.200000 0.000000
-0.075000 0.225000 0.000000
-0.075000 0.250000 0.000000
-0.075000 0.275000 0.000000
-0.075000 0.300000 0.000000
-0.075000 0.325000 0.000000
-0.075000 0.350000 0.000000
-0.075000 0.375000 0.000000
-0.075000 0.400000 0.000000
-0.075000 0.425000 0.000000
-0.075000 0.450000 0.000000
-0.075000 0.475000 0.000000
-0.075000 0.500000 0.000000
-0.075000 0.525000 0.000000
-0.075000 0.550000 0.000000
-0.075000 0.575000 0.000000
-0.075000 0.600000 0.000000
-0.050000 -0.075000 0.000000
-0.050000 -0.050000 0.000000
-0.050000 -0.025000 0.000000
-0.050000 0.000000 0.000000
-0.050000 0.025000 0.000000
-0.050000 0.050000 0.000000
-0.050000 0.075000 0.000000
-0.050000 0.100000 0.000000
-0.050000 0.125000 0.000000
-0.050000 0.150000 0.000000
-0.050000 0.175000 0.000000
-0.050000 0.200000 0.000000
-0.050000 0.225000 0.000000
-0.050000 0.250000 0.000000
-0.050000 0.275000 0.000000
-0.050000 0.300000 0.000000
-0.050000 0.325000 0.000000
-0.050000 0.350000 0.000000
-0.050000 0.375000 0.000000
-0.050000 0.400000 0.000000
-0.050000 0.425000 0.000000
-0.050000 0.450000 0.000000
-0.050000 0.475000 0.000000
-0.050000 0.500000 0.000000
-0.050000 0.525000 0.000000
-0.050000 0.550000 0.000000
-0.050000 0.575000 0.000000
-0.050000 0.600000 0.000000
-0.025000 -0.075000 0.000000
-0.025000 -0.050000 0.000000
-0.025000 -0.025000 0.000000
-0.025000 0.000000 0.000000
-0.025000 0.025000 0.000000
-0.025000 0.050000 0.000000
-0.025000 0.075000 0.000000
-0.025000 0.100000 0.000000
-0.025000 0.125000 0.000000
-0.025000 0.150000 0.000000
-0.025000 0.175000 0.000000
-0.025000 0.200000 0.000000
-0.025000 0.225000 0.000000
-0.025000 0.250000 0.000000
-0.025000 0.275000 0.000000
-0.025000 0.300000 0.000000
-0.025000 0.325000 0.000000
-0.025000 0.350000 0.000000
-0.025000 0.375000 0.000000
-0.025000 0.400000 0.000000
-0.025000 0.425000 0.000000
-0.025000 0.450000 0.000000
-0.025000 0.475000 0.000000
-0.025000 0.500000 0.000000
-0.025000 0.525000 0.000000
-0.025000 0.550000 0.000000
-0.025000 0.575000 0.000000
-0.025000 0.600000 0.000000
0.000000 -0.075000 0.000000
0.000000 -0.050000 0.000000
0.000000 -0.025000 0.000000
0.000000 0.000000 0.000000
0.000000 0.025000 0.000000
0.000000 0.050000 0.000000
0.000000 0.075000 0.000000
0.000000 0.100000 0.000000
0.000000 0.125000 0.000000
0.000000 0.150000 0.000000
0.000000 0.175000 0.000000
0.000000 0.200000 0.000000
0.000000 0.225000 0.000000
0.000000 0.250000 0.000000
0.000000 0.275000 0.000000
0.000000 0.300000 0.000000
0.000000 0.325000 0.000000
0.000000 0.350000 0.000000
0.000000 0.375000 0.000000
0.000000 0.400000 0.000000
0.000000 0.425000 0.000000
0.000000 0.450000 0.000000
0.000000 0.475000 0.000000
0.000000 0.500000 0.000000
0.000000 0.525000 0.000000
0.000000 0.550000 0.000000
0.000000 0.575000 0.000000
0.000000 0.600000 0.000000
0.025000 -0.075000 0.000000
0.025000 -0.050000 0.000000
0.025000 -0.025000 0.000000
0.025000 0.000000 0.000000
0.025584 0.025761 0.000000
0.024624 0.047389 0.000000
0.025026 0.072449 0.000000
0.028135 0.095843 0.000000
0.023477 0.136854 0.000000
0.023783 0.169140 0.000000
0.025972 0.196303 0.000000
0.023113 0.221004 0.000000
0.024067 0.255581 0.000000
0.025196 0.278423 0.000000
0.025324 0.304519 0.000000
0.024441 0.328734 0.000000
0.025524 0.352254 0.000000
0.026508 0.374448 0.000000
0.026251 0.398350 0.000000
0.022907 0.421866 0.000000
0.022903 0.457388 0.000000
0.024031 0.485089 0.000000
0.022584 0.511637 0.000000
0.036529 0.533827 0.000000
0.031767 0.574564 0.000000
0.033278 0.600000 0.000000
0.051210 0.600000 0.000000
0.014643 0.600000 0.000000
0.815000 0.625000 0.000000
0.815000 0.650000 0.000000
0.815000 0.675000 0.000000
0.050000 -0.075000 0.000000
0.050000 -0.050000 0.000000
0.050000 -0.025000 0.000000
0.050000 0.000000 0.000000
0.050346 0.024603 0.000000
0.054684 0.055752 0.000000
0.048796 0.077849 0.000000
0.028995 0.116906 0.000000
0.040804 0.155024 0.000000
0.048171 0.184804 0.000000
0.048848 0.211470 0.000000
0.042336 0.237221 0.000000
0.050889 0.260402 0.000000
0.054326 0.284737 0.000000
0.049107 0.304903 0.000000
0.050715 0.337680 0.000000
0.053680 0.368440 0.000000
0.052882 0.392696 0.000000
0.050466 0.417582 0.000000
0.040595 0.442379 0.000000
0.048815 0.467448 0.000000
0.048066 0.494986 0.000000
0.050618 0.517357 0.000000
0.069755 0.542895 0.000000
0.021743 0.551861 0.000000
0.066054 0.574743 0.000000
0.096288 0.577911 0.000000
0.069088 0.600000 0.000000
0.840000 0.625000 0.000000
0.840000 0.650000 0.000000
0.840000 0.675000 0.000000
0.075000 -0.075000 0.000000
0.075000 -0.050000 0.000000
0.075000 -0.025000 0.000000
0.075000 0.000000 0.000000
0.095491 0.032993 0.000000
0.072281 0.025807 0.000000
0.063032 0.095857 0.000000
0.059847 0.118682 0.000000
0.062007 0.140155 0.000000
0.066326 0.165090 0.000000
0.073445 0.191247 0.000000
0.071728 0.213587 0.000000
0.068826 0.243992 0.000000
0.076947 0.267581 0.000000
0.083842 0.294030 0.000000
0.065896 0.322253 0.000000
0.070395 0.352179 0.000000
0.076902 0.378525 0.000000
0.074267 0.406332 0.000000
0.087678 0.427932 0.000000
0.064658 0.439776 0.000000
0.067301 0.477756 0.000000
0.077407 0.500646 0.000000
0.083015 0.526058 0.000000
0.093125 0.552468 0.000000
0.052021 0.556934 0.000000
0.087294 0.600000 0.000000
0.106282 0.600000 0.000000
0.865000 0.625000 0.000000
0.865000 0.650000 0.000000
0.865000 0.675000 0.000000
0.100000 -0.075000 0.000000
0.100000 -0.050000 0.000000
0.100000 -0.025000 0.000000
0.100000 0.000000 0.000000
0.115100 0.020739 0.000000
0.074994 0.051897 0.000000
0.088268 0.097784 0.000000
0.083703 0.125499 0.000000
0.089460 0.158388 0.000000
0.116214 0.171586 0.000000
0.096501 0.182853 0.000000
0.091143 0.227103 0.000000
0.097788 0.249403 0.000000
0.101624 0.276807 0.000000
0.091041 0.314231 0.000000
0.092292 0.336832 0.000000
0.100563 0.361508 0.000000
0.104583 0.382781 0.000000
0.100300 0.404261 0.000000
0.112529 0.427870 0.000000
0.084169 0.453645 0.000000
0.097513 0.472082 0.000000
0.116305 0.489304 0.000000
0.097994 0.504922 0.000000
0.112512 0.535385 0.000000
0.116610 0.560956 0.000000
0.134654 0.578278 0.000000
0.125656 0.600000 0.000000
0.890000 0.625000 0.000000
0.890000 0.650000 0.000000
0.890000 0.675000 0.000000
0.125000 -0.075000 0.000000
0.125000 -0.050000 0.000000
0.125000 -0.025000 0.000000
0.125000 0.000000 0.000000
0.136781 0.032944 0.000000
0.103708 0.057613 0.000000
0.085573 0.074545 0.000000
0.108231 0.112952 0.000000
0.103616 0.141853 0.000000
0.128373 0.141980 0.000000
0.121207 0.193909 0.000000
0.108559 0.212858 0.000000
0.123322 0.234973 0.000000
0.120245 0.262941 0.000000
0.116013 0.297919 0.000000
0.138929 0.314044 0.000000
0.117472 0.328241 0.000000
0.123886 0.358582 0.000000
0.138297 0.381627 0.000000
0.127480 0.401292 0.000000
0.137898 0.426886 0.000000
0.112594 0.454873 0.000000
0.139433 0.476159 0.000000
0.137125 0.543362 0.000000
0.155296 0.558800 0.000000
0.165142 0.600000 0.000000
0.189940 0.575954 0.000000
0.144270 0.600000 0.000000
0.915000 0.625000 0.000000
0.915000 0.650000 0.000000
0.915000 0.675000 0.000000
0.150000 -0.075000 0.000000
0.150000 -0.050000 0.000000
0.150000 -0.025000 0.000000
0.150000 0.000000 0.000000
0.162015 0.023353 0.000000
0.123925 0.061959 0.000000
0.113415 0.090269 0.000000
0.148760 0.100549 0.000000
0.132585 0.118990 0.000000
0.146445 0.159414 0.000000
0.146138 0.179981 0.000000
0.139677 0.212922 0.000000
0.146640 0.234885 0.000000
0.145698 0.258393 0.000000
0.136504 0.286317 0.000000
0.161474 0.311661 0.000000
0.135430 0.339746 0.000000
0.157262 0.364976 0.000000
0.152401 0.406002 0.000000
0.158099 0.439744 0.000000
0.134378 0.453606 0.000000
0.161514 0.485679 0.000000
0.123307 0.512889 0.000000
0.145360 0.506319 0.000000
0.155327 0.526175 0.000000
0.163373 0.580656 0.000000
0.204296 0.600000 0.000000
0.185160 0.600000 0.000000
0.940000 0.625000 0.000000
0.940000 0.650000 0.000000
0.940000 0.675000 0.000000
0.175000 -0.075000 0.000000
0.175000 -0.050000 0.000000
0.175000 -0.025000 0.000000
0.175000 0.000000 0.000000
0.184487 0.026243 0.000000
0.148945 0.047587 0.000000
0.135739 0.080903 0.000000
0.172911 0.108296 0.000000
0.153450 0.134868 0.000000
0.171057 0.147564 0.000000
0.183503 0.175819 0.000000
0.161937 0.195815 0.000000
0.168565 0.217934 0.000000
0.168905 0.259290 0.000000
0.157934 0.289033 0.000000
0.182404 0.322119 0.000000
0.163860 0.344891 0.000000
0.182416 0.365904 0.000000
0.170837 0.387300 0.000000
0.176841 0.410795 0.000000
0.168431 0.461205 0.000000
0.187441 0.478115 0.000000
0.176999 0.504435 0.000000
0.188517 0.523923 0.000000
0.174175 0.544143 0.000000
0.197132 0.551709 0.000000
0.217579 0.579100 0.000000
0.224739 0.600000 0.000000
0.965000 0.625000 0.000000
0.965000 0.650000 0.000000
0.965000 0.675000 0.000000
0.200000 -0.075000 0.000000
0.200000 -0.050000 0.000000
0.200000 -0.025000 0.000000
0.200000 0.000000 0.000000
0.209822 0.024188 0.000000
0.166002 0.061991 0.000000
0.167710 0.083907 0.000000
0.194030 0.091133 0.000000
0.188911 0.123501 0.000000
0.193036 0.151242 0.000000
0.186851 0.199454 0.000000
0.203588 0.233530 0.000000
0.182847 0.239530 0.000000
0.185053 0.273895 0.000000
0.191778 0.296390 0.000000
0.207258 0.309678 0.000000
0.193397 0.341925 0.000000
0.206952 0.362808 0.000000
0.196951 0.400507 0.000000
0.202457 0.427871 0.000000
0.182357 0.439161 0.000000
0.202644 0.457490 0.000000
0.205018 0.503001 0.000000
0.228264 0.499988 0.000000
0.213542 0.530070 0.000000
0.222512 0.554343 0.000000
[...]
<PointData>
<DataArray NumberOfComponents='1' type='Int32' Name='ParticleType' format='ascii'>
3
3
3
3
3
3
3
3
3
3
3
3
3
3
3
3
3
3
3
3
3
3
3
3
3
3
3
3
3
3
3
3
3
3
3
3
3
3
3
3
3
3
3
3
3
3
3
3
3
3
3
3
3
3
3
3
3
3
2
2
2
2
2
2
2
2
2
2
2
2
2
2
2
2
2
2
2
2
2
2
2
2
2
2
3
3
2
2
2
2
2
2
2
2
2
2
2
2
2
2
2
2
2
2
2
2
2
2
2
2
2
2
3
3
2
2
0
0
0
0
0
0
0
0
0
0
0
0
0
0
0
0
0
0
0
0
0
0
0
0
1
1
1
3
3
2
2
0
0
0
0
0
0
0
0
0
0
0
0
0
0
0
0
0
0
0
0
0
0
0
0
1
1
1
3
3
2
2
0
0
0
0
0
0
0
0
0
0
0
0
0
0
0
0
0
0
0
0
0
0
0
0
1
1
1
3
3
2
2
0
0
0
0
0
0
0
0
0
0
0
0
0
0
0
0
0
0
0
0
0
0
0
0
1
1
1
3
3
2
2
0
0
0
0
0
0
0
0
0
0
0
0
0
0
0
0
0
0
0
0
0
0
0
0
1
1
1
3
3
2
2
0
0
0
0
0
0
0
0
0
0
0
0
0
0
0
0
0
0
0
0
0
0
0
0
1
1
1
3
3
2
2
0
0
0
0
0
0
0
0
0
0
0
0
0
0
0
0
0
0
0
0
0
0
0
0
1
1
1
3
3
2
2
0
0
0
0
0
0
0
0
0
0
0
0
0
0
0
0
0
0
0
0
0
0
0
0
1
1
1
3
3
2
2
0
0
0
0
0
0
0
0
0
0
0
0
0
0
0
0
0
0
0
0
0
0
0
0
1
1
1
3
3
2
2
0
0
0
0
0
0
0
0
0
0
0
0
0
0
0
0
0
0
0
0
0
0
0
0
1
1
1
3
3
2
2
0
0
0
0
0
0
0
0
0
0
0
0
0
0
0
0
0
0
0
0
0
0
0
0
1
1
1
3
3
2
2
0
0
0
0
0
0
0
0
0
0
0
0
0
0
0
0
0
0
0
0
0
0
0
0
1
1
1
3
3
2
2
0
0
0
0
0
0
0
0
0
0
0
0
0
0
0
0
0
0
0
0
0
0
0
0
1
1
1
3
3
2
2
0
0
0
0
0
0
0
0
0
0
0
0
0
0
0
0
0
0
0
0
0
0
0
0
1
1
1
3
3
2
2
0
0
0
0
0
0
0
0
0
0
0
0
0
0
0
0
0
0
0
0
0
0
0
0
1
1
1
3
3
2
2
0
0
0
0
0
0
0
0
0
0
0
0
0
0
0
0
0
0
0
0
0
0
0
0
1
1
1
3
3
2
2
0
0
0
0
0
0
0
0
0
0
0
0
0
0
0
0
0
0
0
0
0
0
0
0
3
3
2
2
0
0
0
0
0
0
0
0
0
0
0
0
0
0
0
0
0
0
0
0
0
0
0
0
3
3
2
2
0
0
0
0
0
0
0
0
0
0
0
0
0
0
0
0
0
0
0
0
0
0
0
0
3
3
2
2
0
0
0
0
0
0
0
0
0
0
0
0
0
0
0
0
0
0
0
0
0
0
0
0
3
3
2
2
0
0
0
0
0
0
0
0
0
0
0
0
0
0
0
0
0
0
0
0
0
0
0
0
3
3
2
2
0
0
0
0
0
0
0
0
0
0
0
0
0
0
0
0
0
0
0
0
0
0
0
0
3
3
2
2
0
0
0
0
0
0
0
0
0
0
0
0
0
0
0
0
0
0
0
0
0
0
0
0
3
3
2
2
0
0
0
0
0
0
0
0
0
0
0
0
0
0
0
0
0
0
0
0
0
0
0
0
3
3
2
2
0
0
0
0
0
0
0
0
0
0
0
0
0
0
0
0
0
0
0
0
0
0
0
0
3
3
2
2
0
0
0
0
0
0
0
0
0
0
0
0
0
0
0
0
0
0
0
0
0
0
0
0
3
3
2
2
0
0
0
0
0
0
0
0
0
0
0
0
0
0
0
0
0
0
0
0
0
0
0
0
3
3
2
2
0
0
0
0
0
0
0
0
0
0
0
0
0
0
0
0
0
0
0
0
0
0
0
0
3
3
2
2
0
0
0
0
0
0
0
0
0
0
0
0
0
0
0
0
0
0
0
0
0
0
0
0
3
3
2
2
0
0
0
0
0
0
0
0
0
0
0
0
0
0
0
0
0
0
0
0
0
0
0
0
3
3
2
2
0
0
0
0
0
0
0
0
0
0
0
0
0
0
0
0
0
0
0
0
0
0
0
0
3
3
2
2
0
0
0
0
0
0
0
0
0
0
0
0
0
0
0
0
0
0
0
0
0
0
0
0
3
3
2
2
0
0
0
0
0
0
0
0
0
0
0
0
0
0
0
0
0
0
0
0
0
0
0
0
3
3
2
2
0
0
0
0
0
0
0
0
0
0
0
0
0
0
0
0
0
0
0
0
0
0
0
0
3
3
2
2
0
0
0
0
0
0
0
0
0
0
0
0
0
0
0
0
0
0
0
0
0
0
0
0
3
3
2
2
0
0
0
0
0
0
0
0
0
0
0
0
0
0
0
0
0
0
0
0
0
0
0
0
3
3
2
2
0
0
0
0
0
0
0
0
0
0
0
0
0
0
0
0
0
0
0
0
0
0
0
0
3
3
2
2
0
0
0
0
0
0
0
0
0
0
0
0
0
0
0
0
0
0
0
0
0
0
0
0
3
3
2
2
0
0
0
0
0
0
0
0
0
0
0
0
0
0
0
0
0
0
0
0
0
0
0
0
3
3
2
2
0
0
0
0
0
0
0
0
0
0
0
0
0
0
0
0
0
0
0
0
0
0
0
0
3
3
2
2
0
0
0
0
0
0
0
0
0
0
0
0
0
0
0
0
0
0
0
0
0
0
0
0
3
3
2
2
0
0
0
0
0
0
0
0
0
0
0
0
0
0
0
0
0
0
0
0
0
0
0
0
3
3
2
2
0
0
0
0
0
0
0
0
0
0
0
0
0
0
0
0
0
0
0
0
0
0
0
0
3
3
2
2
0
0
0
0
0
0
0
0
0
0
0
0
0
0
0
0
0
0
0
0
0
0
0
0
3
3
2
2
0
0
0
0
0
0
0
0
0
0
0
0
0
0
0
0
0
0
0
0
0
0
0
0
3
3
2
2
0
0
0
0
0
0
0
0
0
0
0
0
0
0
0
0
0
0
0
0
0
0
0
0
3
3
2
2
0
0
0
0
0
0
0
0
0
0
0
0
0
0
0
0
0
0
0
0
0
0
0
0
3
3
2
2
0
0
0
0
0
0
0
0
0
0
0
0
0
0
0
0
0
0
0
0
0
0
0
0
3
3
2
2
0
0
0
0
0
0
0
0
0
0
0
0
0
0
0
0
0
0
0
0
0
0
0
0
3
3
2
2
0
0
0
0
0
0
0
0
0
0
0
0
0
0
0
0
0
0
0
0
0
0
0
0
3
3
2
2
0
0
0
0
0
0
0
0
0
0
0
0
0
0
0
0
0
0
0
0
0
0
0
0
3
3
2
2
0
0
0
0
0
0
0
0
0
0
0
0
0
0
0
0
0
0
0
0
0
0
0
0
3
3
2
2
0
0
0
0
0
0
0
0
0
0
0
0
0
0
0
0
0
0
0
0
0
0
0
0
3
3
2
2
0
0
0
0
0
0
0
0
0
0
0
0
0
0
0
0
0
0
0
0
0
0
0
0
3
3
2
2
0
0
0
0
0
0
0
0
0
0
0
0
0
0
0
0
0
0
0
0
0
0
0
0
3
3
2
2
0
0
0
0
0
0
0
0
0
0
0
0
0
0
0
0
0
0
0
0
0
0
0
0
3
3
2
2
0
0
0
0
0
0
0
0
0
0
0
0
0
0
0
0
0
0
0
0
0
0
0
0
3
3
2
2
0
0
0
0
0
0
0
0
0
0
0
0
0
0
0
0
0
0
0
0
0
0
0
0
3
3
2
2
0
0
0
0
0
0
0
0
0
0
0
0
0
0
0
0
0
0
0
0
0
0
0
0
3
3
2
2
0
0
0
0
0
0
0
0
0
0
0
0
0
0
0
0
0
0
0
0
0
0
0
0
3
3
2
2
0
0
0
0
0
0
0
0
0
0
0
0
0
0
0
0
0
0
0
0
0
0
0
0
3
3
2
2
0
0
0
0
0
0
0
0
0
0
0
0
0
0
0
0
0
0
0
0
0
0
0
0
3
3
2
2
0
0
0
0
0
0
0
0
0
0
0
0
0
0
0
0
0
0
0
0
0
0
0
0
3
3
2
2
0
0
0
0
0
0
0
0
0
0
0
0
0
0
0
0
0
0
0
0
0
0
0
0
3
3
2
2
0
0
0
0
0
0
0
0
0
0
0
0
0
0
0
0
0
0
0
0
0
0
0
0
3
3
2
2
0
0
0
0
0
0
0
0
0
0
0
0
0
0
0
0
0
0
0
0
0
0
0
0
3
3
2
2
0
0
0
0
0
0
0
0
0
0
0
0
0
0
0
0
0
0
0
0
0
0
0
0
3
3
2
2
0
0
0
0
0
0
0
0
0
0
0
0
0
0
0
0
0
0
0
0
0
0
0
0
3
3
2
2
0
0
0
0
0
0
0
0
0
0
0
0
0
0
0
0
0
0
0
0
0
0
0
0
3
3
2
2
0
0
0
0
0
0
0
0
0
0
0
0
0
0
0
0
0
0
0
0
0
0
0
0
3
3
2
2
0
0
0
0
0
0
0
0
0
0
0
0
0
0
0
0
0
0
0
0
0
0
0
0
3
3
2
2
0
0
0
0
0
0
0
0
0
0
0
0
0
0
0
0
0
0
0
0
0
0
0
0
3
3
2
2
0
0
0
0
0
0
0
0
0
0
0
0
0
0
0
0
0
0
0
0
0
0
0
0
3
3
2
2
0
0
0
0
0
0
0
0
0
0
0
0
0
0
0
0
0
0
0
0
0
0
0
0
3
3
2
2
0
0
0
0
0
0
0
0
0
0
0
0
0
0
0
0
0
0
0
0
0
0
0
0
3
3
2
2
0
0
0
0
0
0
0
0
0
0
0
0
0
0
0
0
0
0
0
0
0
0
0
0
3
3
2
2
0
0
0
0
0
0
0
0
0
0
0
0
0
0
0
0
0
0
0
0
0
0
0
0
3
3
2
2
0
0
0
0
0
0
0
0
0
0
0
0
0
0
0
0
0
0
0
0
0
0
0
0
3
3
2
2
0
0
0
0
0
0
0
0
0
0
0
0
0
0
0
0
0
0
0
0
0
0
0
0
3
3
2
2
0
0
0
0
0
0
0
0
0
0
0
0
0
0
0
0
0
0
0
0
0
0
0
0
3
3
2
2
2
2
2
2
2
2
2
2
2
2
2
2
2
2
2
2
2
2
2
2
2
2
2
2
3
3
2
2
2
2
2
2
2
2
2
2
2
2
2
2
2
2
2
2
2
2
2
2
2
2
2
2
3
3
3
3
3
3
3
3
3
3
3
3
3
3
3
3
3
3
3
3
3
3
3
3
3
3
3
3
3
3
3
3
3
3
3
3
3
3
3
3
3
3
3
3
3
3
3
3
3
3
3
3
3
3
3
3
</DataArray>
<DataArray NumberOfComponents='1' type='Float32' Name='Velocity' format='ascii'>
0.000000
0.000000
0.000000
0.000000
0.000000
0.000000
0.000000
0.000000
0.000000
0.000000
0.000000
0.000000
0.000000
0.000000
0.000000
0.000000
0.000000
0.000000
0.000000
0.000000
0.000000
0.000000
0.000000
0.000000
0.000000
0.000000
0.000000
0.000000
0.000000
0.000000
0.000000
0.000000
0.000000
0.000000
0.000000
0.000000
0.000000
0.000000
0.000000
0.000000
0.000000
0.000000
0.000000
0.000000
0.000000
0.000000
0.000000
0.000000
0.000000
0.000000
0.000000
0.000000
0.000000
0.000000
0.000000
0.000000
0.000000
0.000000
0.000000
0.000000
0.000000
0.000000
0.000000
0.000000
0.000000
0.000000
0.000000
0.000000
0.000000
0.000000
0.000000
0.000000
0.000000
0.000000
0.000000
0.000000
0.000000
0.000000
0.000000
0.000000
0.000000
0.000000
0.000000
0.000000
0.000000
0.000000
0.000000
0.000000
0.000000
0.000000
0.000000
0.000000
0.000000
0.000000
0.000000
0.000000
0.000000
0.000000
0.000000
0.000000
0.000000
0.000000
0.000000
0.000000
0.000000
0.000000
0.000000
0.000000
0.000000
0.000000
0.000000
0.000000
0.000000
0.000000
0.000000
0.000000
0.020480
0.068500
0.011886
0.132693
0.139168
0.063013
0.113066
0.061013
0.119502
0.166018
0.076794
0.050254
0.161709
0.275941
0.129724
0.177124
0.110894
0.182640
0.092827
0.371910
0.378518
57.546333
37.972767
54.609135
1.000000
1.000000
1.000000
0.000000
0.000000
0.000000
0.000000
0.093491
0.032982
0.096024
0.121633
0.244175
0.170150
0.204585
0.221927
0.112819
0.153942
0.197277
0.325726
0.192397
0.150039
0.232444
0.165828
0.127184
0.046397
0.077699
0.473932
0.305659
0.374367
0.145384
38.391792
1.000000
1.000000
1.000000
0.000000
0.000000
0.000000
0.000000
0.097217
0.101663
0.191656
0.205257
0.289059
0.123032
0.166036
0.092753
0.079167
0.246586
0.232088
0.221137
0.029894
0.117311
0.065413
0.370997
0.177696
0.084034
0.159050
0.265768
0.432858
0.164347
23.731947
25.907944
1.000000
1.000000
1.000000
0.000000
0.000000
0.000000
0.000000
0.168404
0.067165
0.013231
0.112661
0.219956
0.214858
0.061059
0.131331
0.187591
0.108880
0.198590
0.207878
0.138285
0.178986
0.097283
0.228620
0.236636
0.140356
0.320110
0.023964
0.308206
0.531756
0.858081
30.949411
1.000000
1.000000
1.000000
0.000000
0.000000
0.000000
0.000000
0.126623
0.070967
0.269012
0.070943
0.092148
0.077536
0.272975
0.099810
0.104008
0.189173
0.142535
0.045064
0.055491
0.142193
0.119892
0.055685
0.258843
0.122541
0.088680
0.182358
0.365709
10.371077
0.529712
31.095167
1.000000
1.000000
1.000000
0.000000
0.000000
0.000000
0.000000
0.052242
0.142687
0.249374
0.092028
0.156350
0.104962
0.123294
0.103716
0.256181
0.033086
0.054898
0.181477
0.067399
0.139924
0.102434
0.031014
0.207359
0.202635
0.254726
0.275808
0.125084
0.448862
36.340710
33.875965
1.000000
1.000000
1.000000
0.000000
0.000000
0.000000
0.000000
0.149691
0.097877
0.272637
0.067908
0.058191
0.126197
0.110895
0.072252
0.112468
0.124282
0.126459
0.127168
0.164940
0.198680
0.195823
0.051434
0.104093
0.354059
0.486584
0.385193
0.292702
0.374186
0.489506
25.699881
1.000000
1.000000
1.000000
0.000000
0.000000
0.000000
0.000000
0.087835
0.156644
0.365844
0.072928
0.021198
0.159171
0.202484
0.158864
0.204979
0.335437
0.186500
0.107038
0.298011
0.142668
0.060550
0.172803
0.025056
0.073039
0.475580
0.110309
0.231160
0.075927
0.179700
24.631275
1.000000
1.000000
1.000000
0.000000
0.000000
0.000000
0.000000
0.048893
0.089039
0.117806
0.202594
0.131523
0.157251
0.120297
0.046916
0.258050
0.091817
0.143072
0.071269
0.043828
0.045731
0.199265
0.166971
0.339379
0.323920
0.401564
0.208401
0.085051
0.163526
0.613763
25.050545
1.000000
1.000000
1.000000
0.000000
0.000000
0.000000
0.000000
0.113337
0.151023
0.090343
0.224292
0.121590
0.249937
0.072485
0.093375
0.027568
0.147624
0.125944
0.163312
0.149405
0.159055
0.370911
0.297589
0.180166
0.201147
0.173613
0.183260
0.036441
0.220089
15.472427
27.101950
1.000000
1.000000
1.000000
0.000000
0.000000
0.000000
0.000000
0.052471
0.222047
0.062961
0.125135
0.144610
0.149080
0.106657
0.112804
0.128454
0.178205
0.014998
0.046516
0.072918
0.153524
0.141176
0.348962
0.043534
0.071988
0.198638
0.093302
0.259351
0.169388
0.670071
23.404310
1.000000
1.000000
1.000000
0.000000
0.000000
0.000000
0.000000
0.152774
0.061419
0.016165
0.044407
0.112828
0.168011
0.223390
0.108178
0.070953
0.107393
0.068849
0.111236
0.140555
0.141646
0.169249
0.201495
0.103937
0.342630
0.159188
0.282139
0.476494
0.280958
27.068789
27.854074
1.000000
1.000000
1.000000
0.000000
0.000000
0.000000
0.000000
0.104369
0.032328
0.166169
0.152141
0.084816
0.139519
0.270543
0.076078
0.034076
0.120742
0.086687
0.089763
0.082041
0.081241
0.022305
0.136620
0.068598
0.126393
0.193357
0.224037
0.181940
0.365781
0.514571
26.781311
1.000000
1.000000
1.000000
0.000000
0.000000
0.000000
0.000000
0.069797
0.114737
0.125017
0.140393
0.083949
0.053222
0.082330
0.106369
0.192548
0.100896
0.076611
0.200040
0.116219
0.081304
0.090092
0.066253
0.134204
0.147267
0.173000
0.133370
0.429115
0.285368
0.793977
26.439102
1.000000
1.000000
1.000000
0.000000
0.000000
0.000000
0.000000
0.069441
0.149958
0.174769
0.114367
0.201483
0.153266
0.085976
0.124950
0.198335
0.045987
0.116270
0.140965
0.100432
0.128516
0.055001
0.132253
0.162782
0.093235
0.204119
0.126807
0.029801
0.377138
22.934832
28.598814
1.000000
1.000000
1.000000
0.000000
0.000000
0.000000
0.000000
0.072539
0.071956
0.057955
0.025990
0.085052
0.124971
0.255531
0.132663
0.039331
0.124976
0.035604
0.161549
0.108561
0.066845
0.230951
0.103080
0.173693
0.163994
0.087080
0.353019
0.248216
0.060910
0.535641
32.123219
1.000000
1.000000
1.000000
0.000000
0.000000
0.000000
0.000000
0.087874
0.088623
0.085363
0.230411
0.176501
0.073973
0.065175
0.063588
0.106461
0.028188
0.075334
0.191100
0.155547
0.218545
0.036944
0.128614
0.217856
0.128814
0.320319
0.254460
0.322379
0.359988
0.483847
32.079662
0.000000
0.000000
0.000000
0.000000
0.042626
0.044623
0.041469
0.141973
0.076866
0.067129
0.063861
0.194278
0.044663
0.082374
0.091679
0.162768
0.140156
0.173321
0.258871
0.196478
0.230358
0.265211
0.258966
0.059199
0.235398
0.825487
0.537725
32.562508
0.000000
0.000000
0.000000
0.000000
0.067839
0.124940
0.024941
0.124374
0.021176
0.016443
0.134784
0.019987
0.153454
0.058761
0.033663
0.135738
0.110561
0.073968
0.072838
0.146572
0.258787
0.107492
0.272411
0.189900
0.317652
0.670557
0.268329
30.475096
0.000000
0.000000
0.000000
0.000000
0.074685
0.031394
0.100408
0.039862
0.077671
0.075204
0.178055
0.058394
0.121513
0.089591
0.118866
0.048951
0.143087
0.038381
0.148995
0.087384
0.136278
0.120088
0.308433
0.235816
0.338902
0.506629
31.304403
42.882751
0.000000
0.000000
0.000000
0.000000
0.064893
0.058955
0.133302
0.042552
0.056271
0.031312
0.157932
0.142188
0.092053
0.050143
0.071963
0.158485
0.066770
0.103844
0.060091
0.102477
0.212851
0.122699
0.467855
0.394514
0.399477
0.068767
29.609598
37.084095
0.000000
0.000000
0.000000
0.000000
0.082602
0.011047
0.105258
0.139886
0.019830
0.098131
0.259415
0.016639
0.096895
0.085308
0.046810
0.053754
0.195917
0.037791
0.068671
0.062010
0.162693
0.143438
0.159451
0.195941
0.457899
0.223009
0.376265
40.670525
0.000000
0.000000
0.000000
0.000000
0.097578
0.056788
0.121273
0.036077
0.113747
0.149261
0.071475
0.108739
0.022649
0.030768
0.130276
0.096160
0.017244
0.142425
0.107959
0.158881
0.180437
0.106670
0.059033
0.345503
0.135016
0.196889
41.067623
27.289921
0.000000
0.000000
0.000000
0.000000
0.066998
0.086473
0.041088
0.140309
0.114807
0.060880
0.016496
0.017640
0.066263
0.096112
0.044608
0.142732
0.073034
0.111755
0.089084
0.167975
0.172875
0.110474
0.282025
0.218823
0.185157
0.198559
0.335704
25.541956
0.000000
0.000000
0.000000
0.000000
0.150456
0.031550
0.067993
0.058820
0.089437
0.115512
0.112619
0.030646
0.050647
0.109017
0.058117
0.048139
0.066433
0.146188
0.102133
0.054642
0.114270
0.136503
0.105248
0.290314
0.271139
0.060663
0.342055
33.875706
0.000000
0.000000
0.000000
0.000000
0.032630
0.089979
0.122374
0.032319
0.159220
0.099193
0.023978
0.102000
0.111926
0.117691
0.077870
0.063942
0.073786
0.046611
0.176092
0.087341
0.141156
0.069873
0.087894
0.157491
0.282189
0.191432
0.236724
44.781361
0.000000
0.000000
0.000000
0.000000
0.096017
0.035736
0.038795
0.127018
0.072612
0.076647
0.131876
0.072472
0.195329
0.066941
0.153291
0.068471
0.123843
0.078676
0.102713
0.212723
0.211435
0.113754
0.039027
0.138082
0.105865
0.354748
0.158076
46.034004
0.000000
0.000000
0.000000
0.000000
0.021767
0.072545
0.092755
0.109942
0.127835
0.057904
0.110276
0.046134
0.078483
0.081169
0.041141
0.041593
0.079447
0.107695
0.116407
0.158074
0.100047
0.007265
0.137089
0.030190
0.097020
0.148137
0.165162
30.519854
0.000000
0.000000
0.000000
0.000000
0.019492
0.024630
0.018551
0.042262
0.151277
0.135840
0.086306
0.100194
0.085093
0.052528
0.074286
0.095214
0.092916
0.030629
0.113667
0.054355
0.052382
0.089956
0.124651
0.207189
0.068546
0.315231
0.164663
34.622070
0.000000
0.000000
0.000000
0.000000
0.033704
0.014564
0.117398
0.089018
0.031565
0.135256
0.150655
0.113165
0.103169
0.015963
0.040832
0.019922
0.088249
0.028254
0.127017
0.081604
0.010136
0.074178
0.192063
0.229375
0.140912
0.455308
0.432676
25.974598
0.000000
0.000000
0.000000
0.000000
0.018612
0.063912
0.046517
0.127245
0.024783
0.097517
0.045358
0.059117
0.081409
0.053433
0.075144
0.091761
0.062978
0.073175
0.094220
0.061151
0.095164
0.083374
0.198171
0.102991
0.101934
0.303216
0.371707
19.736534
0.000000
0.000000
0.000000
0.000000
0.037798
0.134514
0.047139
0.043522
0.022538
0.135517
0.022700
0.053217
0.033025
0.029561
0.031234
0.033788
0.056021
0.029243
0.111218
0.040215
0.035706
0.135345
0.213080
0.184645
0.112318
0.240400
0.652187
14.911748
0.000000
0.000000
0.000000
0.000000
0.020287
0.105198
0.027703
0.090538
0.088367
0.152811
0.094813
0.018991
0.085328
0.045748
0.094686
0.017366
0.110420
0.102500
0.178819
0.041594
0.110893
0.038093
0.161744
0.086714
0.059208
0.057889
0.237416
7.582119
0.000000
0.000000
0.000000
0.000000
0.047000
0.048551
0.030971
0.073467
0.039068
0.083656
0.070130
0.021248
0.078867
0.033900
0.019592
0.059362
0.056656
0.088034
0.090804
0.032955
0.066236
0.085842
0.196568
0.134232
0.197945
0.374444
0.245858
5.291151
0.000000
0.000000
0.000000
0.000000
0.014572
0.034688
0.015917
0.052888
0.056466
0.098493
0.113905
0.042310
0.095288
0.046941
0.135358
0.043471
0.091294
0.071145
0.061623
0.036119
0.120529
0.033758
0.094521
0.109072
0.318357
0.157438
0.482078
5.682512
0.000000
0.000000
0.000000
0.000000
0.013059
0.009833
0.035470
0.036919
0.036174
0.012117
0.067367
0.016457
0.011909
0.039239
0.039302
0.042166
0.031432
0.046069
0.136540
0.037979
0.069404
0.147143
0.040173
0.129781
0.266427
0.240590
0.262309
8.636306
0.000000
0.000000
0.000000
0.000000
0.022875
0.007634
0.014117
0.092462
0.041393
0.118421
0.031789
0.078467
0.079663
0.036010
0.064582
0.033557
0.061463
0.026404
0.016830
0.065470
0.086965
0.050591
0.108924
0.058981
0.218955
0.181684
0.139856
5.785141
0.000000
0.000000
0.000000
0.000000
0.044322
0.074170
0.076026
0.053175
0.068186
0.069741
0.032158
0.016892
0.038076
0.035183
0.029593
0.031292
0.084006
0.008762
0.086610
0.029476
0.105721
0.122615
0.091551
0.135268
0.195078
0.367769
0.127551
7.764638
0.000000
0.000000
0.000000
0.000000
0.037498
0.042684
0.024040
0.041127
0.078137
0.113950
0.041447
0.052392
0.005844
0.065281
0.048579
0.067763
0.033369
0.024673
0.061461
0.054883
0.132657
0.071700
0.046419
0.143688
0.070554
0.121850
0.235322
5.721459
0.000000
0.000000
0.000000
0.000000
0.080672
0.106029
0.077782
0.097638
0.050745
0.090062
0.051206
0.050033
0.030287
0.026823
0.047922
0.057897
0.043902
0.058585
0.027749
0.109010
0.050350
0.071172
0.082199
0.275918
0.123059
0.184735
0.506755
8.452737
0.000000
0.000000
0.000000
0.000000
0.017791
0.024794
0.069063
0.053049
0.065633
0.106162
0.018345
0.072595
0.026472
0.064261
0.035700
0.041272
0.086425
0.024645
0.079120
0.047482
0.111045
0.138212
0.159805
0.138291
0.179858
0.264065
0.068439
8.388694
0.000000
0.000000
0.000000
0.000000
0.029046
0.140131
0.063177
0.135682
0.117483
0.113985
0.079175
0.065569
0.071906
0.067548
0.125370
0.060528
0.046636
0.105412
0.016168
0.093921
0.079714
0.155260
0.237467
0.173446
0.100784
0.152156
0.131937
9.314085
0.000000
0.000000
0.000000
0.000000
0.048176
0.023095
0.056505
0.091224
0.022281
0.049100
0.051864
0.030850
0.018334
0.007398
0.093759
0.051770
0.087032
0.021261
0.079730
0.027747
0.104983
0.085084
0.245985
0.049888
0.337937
0.200679
0.424323
19.292465
0.000000
0.000000
0.000000
0.000000
0.056576
0.053554
0.066884
0.048753
0.062743
0.067483
0.074787
0.063893
0.089406
0.103914
0.158398
0.052298
0.145368
0.148641
0.128950
0.031125
0.159927
0.116592
0.147174
0.233429
0.137044
0.131628
0.115436
23.510086
0.000000
0.000000
0.000000
0.000000
0.073229
0.076389
0.034314
0.148891
0.123072
0.024430
0.119730
0.043416
0.086758
0.054806
0.076139
0.183038
0.034245
0.075110
0.093089
0.129681
0.236883
0.188045
0.120899
0.174451
0.344758
0.172148
15.397169
27.791189
0.000000
0.000000
0.000000
0.000000
0.066460
0.047069
0.014927
0.098145
0.120113
0.066023
0.032529
0.080640
0.134447
0.113035
0.066589
0.040254
0.164425
0.050296
0.061354
0.197055
0.167027
0.154783
0.120515
0.119633
0.286815
0.214898
0.181803
37.205048
0.000000
0.000000
0.000000
0.000000
0.026374
0.081243
0.026877
0.047071
0.008381
0.087224
0.052171
0.108167
0.020869
0.087417
0.031489
0.187654
0.178290
0.201192
0.030580
0.101269
0.342414
0.100892
0.067235
0.365466
0.210178
0.287091
0.070126
45.536129
0.000000
0.000000
0.000000
0.000000
0.026195
0.021320
0.023895
0.011896
0.032432
0.093680
0.047772
0.146775
0.024404
0.122980
0.020855
0.057102
0.103970
0.223344
0.151079
0.157811
0.283177
0.151005
0.132250
0.104961
0.398429
0.153045
0.104354
40.195282
0.000000
0.000000
0.000000
0.000000
0.030384
0.045286
0.077625
0.078523
0.054488
0.152840
0.103716
0.110456
0.072185
0.054973
0.069798
0.176331
0.299081
0.231402
0.136990
0.161891
0.092929
0.277560
0.152950
0.269334
0.155003
0.280158
31.620123
39.575851
0.000000
0.000000
0.000000
0.000000
0.033330
0.030446
0.013917
0.055642
0.041249
0.166033
0.095985
0.226375
0.026408
0.058187
0.218437
0.032292
0.169735
0.165305
0.073908
0.138974
0.151633
0.111873
0.111980
0.236741
0.187095
0.132453
0.263568
39.571232
0.000000
0.000000
0.000000
0.000000
0.043524
0.046019
0.036770
0.055229
0.075368
0.176257
0.114925
0.082238
0.129928
0.080315
0.183289
0.034156
0.049466
0.154964
0.305381
0.085451
0.174784
0.087433
0.197252
0.198143
0.157341
0.368174
26.766012
41.826202
0.000000
0.000000
0.000000
0.000000
0.053362
0.063811
0.120131
0.126067
0.035850
0.085083
0.258687
0.062325
0.072961
0.163854
0.205802
0.038600
0.116293
0.212780
0.260187
0.146233
0.262022
0.058791
0.153032
0.499821
0.341300
0.101551
0.105035
41.265682
0.000000
0.000000
0.000000
0.000000
0.011360
0.091864
0.073250
0.032548
0.032149
0.077062
0.105750
0.100152
0.115639
0.084796
0.215958
0.036620
0.127816
0.165938
0.198370
0.120353