<?xml version='1.0' encoding='UTF-8'?>
<VTKFile xmlns='VTK' byte_order='LittleEndian' version='0.1' type='UnstructuredGrid'>
<UnstructuredGrid>
<Piece NumberOfCells='2512' NumberOfPoints='2512'>
<Points>
<DataArray NumberOfComponents='3' type='Float32' Name='Position' format='ascii'>
-0.075000 -0.075000 0.000000
-0.075000 -0.050000 0.000000
-0.075000 -0.025000 0.000000
-0.075000 0.000000 0.000000
-0.075000 0.025000 0.000000
-0.075000 0.050000 0.000000
-0.075000 0.075000 0.000000
-0.075000 0.100000 0.000000
-0.075000 0.125000 0.000000
-0.075000 0.150000 0.000000
-0.075000 0.175000 0.000000
-0.075000 0.200000 0.000000
-0.075000 0.225000 0.000000
-0.075000 0.250000 0.000000
-0.075000 0.275000 0.000000
-0.075000 0.300000 0.000000
-0.075000 0.325000 0.000000
-0.075000 0.350000 0.000000
-0.075000 0.375000 0.000000
-0.075000 0.400000 0.000000
-0.075000 0.425000 0.000000
-0.075000 0.450000 0.000000
-0.075000 0.475000 0.000000
-0.075000 0.500000 0.000000
-0.075000 0.525000 0.000000
-0.075000 0.550000 0.000000
-0.075000 0.575000 0.000000
-0.075000 0.600000 0.000000
-0.050000 -0.075000 0.000000
-0.050000 -0.050000 0.000000
-0.050000 -0.025000 0.000000
-0.050000 0.000000 0.000000
-0.050000 0.025000 0.000000
-0.050000 0.050000 0.000000
-0.050000 0.075000 0.000000
-0.050000 0.100000 0.000000
-0.050000 0.125000 0.000000
-0.050000 0.150000 0.000000
-0.050000 0.175000 0.000000
-0.050000 0.200000 0.000000
-0.050000 0.225000 0.000000
-0.050000 0.250000 0.000000
-0.050000 0.275000 0.000000
-0.050000 0.300000 0.000000
-0.050000 0.325000 0.000000
-0.050000 0.350000 0.000000
-0.050000 0.375000 0.000000
-0.050000 0.400000 0.000000
-0.050000 0.425000 0.000000
-0.050000 0.450000 0.000000
-0.050000 0.475000 0.000000
-0.050000 0.500000 0.000000
-0.050000 0.525000 0.000000
-0.050000 0.550000 0.000000
-0.050000 0.575000 0.000000
-0.050000 0.600000 0.000000
-0.025000 -0.075000 0.000000
-0.025000 -0.050000 0.000000
-0.025000 -0.025000 0.000000
-0.025000 0.000000 0.000000
-0.025000 0.025000 0.000000
-0.025000 0.050000 0.000000
-0.025000 0.075000 0.000000
-0.025000 0.100000 0.000000
-0.025000 0.125000 0.000000
-0.025000 0.150000 0.000000
-0.025000 0.175000 0.000000
-0.025000 0.200000 0.000000
-0.025000 0.225000 0.000000
-0.025000 0.250000 0.000000
-0.025000 0.275000 0.000000
-0.025000 0.300000 0.000000
-0.025000 0.325000 0.000000
-0.025000 0.350000 0.000000
-0.025000 0.375000 0.000000
-0.025000 0.400000 0.000000
-0.025000 0.425000 0.000000
-0.025000 0.450000 0.000000
-0.025000 0.475000 0.000000
-0.025000 0.500000 0.000000
-0.025000 0.525000 0.000000
-0.025000 0.550000 0.000000
-0.025000 0.575000 0.000000
-0.025000 0.600000 0.000000
0.000000 -0.075000 0.000000
0.000000 -0.050000 0.000000
0.000000 -0.025000 0.000000
0.000000 0.000000 0.000000
0.000000 0.025000 0.000000
0.000000 0.050000 0.000000
0.000000 0.075000 0.000000
0.000000 0.100000 0.000000
0.000000 0.125000 0.000000
0.000000 0.150000 0.000000
0.000000 0.175000 0.000000
0.000000 0.200000 0.000000
0.000000 0.225000 0.000000
0.000000 0.250000 0.000000
0.000000 0.275000 0.000000
0.000000 0.300000 0.000000
0.000000 0.325000 0.000000
0.000000 0.350000 0.000000
0.000000 0.375000 0.000000
0.000000 0.400000 0.000000
0.000000 0.425000 0.000000
0.000000 0.450000 0.000000
0.000000 0.475000 0.000000
0.000000 0.500000 0.000000
0.000000 0.525000 0.000000
0.000000 0.550000 0.000000
0.000000 0.575000 0.000000
0.000000 0.600000 0.000000
0.025000 -0.075000 0.000000
0.025000 -0.050000 0.000000
0.025000 -0.025000 0.000000
0.025000 0.000000 0.000000
-302.338296 0.600000 0.000000
12.283070 -20.459119 0.000000
-4.049620 -6.639530 0.000000
2.962912 -6.500380 0.000000
0.150331 0.082770 0.000000
-9535686.349414 0.600000 0.000000
1.815767 -12.445570 0.000000
5.144296 -8.975492 0.000000
-7.815871 -0.977695 0.000000
2.286775 -36.854487 0.000000
95.083235 -327.979295 0.000000
6.341260 -41.453234 0.000000
8451.899864 0.600000 0.000000
-3174.017640 0.600000 0.000000
-5.850839 0.600000 0.000000
-48.203142 -91.986051 0.000000
-13.874223 -13.041679 0.000000
119.758406 -166.393160 0.000000
11.349430 -12.320330 0.000000
-186.717821 0.600000 0.000000
50.250191 -106.566303 0.000000
-123.028417 0.600000 0.000000
-293.670903 0.600000 0.000000
9633750.797584 0.600000 0.000000
1.115000 0.625000 0.000000
1.115000 0.650000 0.000000
1.115000 0.675000 0.000000
0.050000 -0.075000 0.000000
0.050000 -0.050000 0.000000
0.050000 -0.025000 0.000000
0.050000 0.000000 0.000000
-15.532808 0.600000 0.000000
-13.238911 -3.527334 0.000000
182.197735 0.600000 0.000000
6.958106 0.600000 0.000000
576.478805 0.600000 0.000000
-3.521490 -2.314166 0.000000
-3.561345 -6.686620 0.000000
-6.737368 0.600000 0.000000
-2574.380050 -4794.132642 0.000000
2500.616947 0.600000 0.000000
1.140227 -13.981301 0.000000
11.470929 -10.242038 0.000000
-32.209814 -11.992681 0.000000
61.859779 0.600000 0.000000
2302.078468 0.600000 0.000000
-124.715782 0.600000 0.000000
-15.426212 -7.073456 0.000000
-38.479839 0.600000 0.000000
227.904608 0.600000 0.000000
-32.811107 -42.879636 0.000000
156.060086 0.600000 0.000000
3151.602793 -656.650742 0.000000
32.207773 -131.374780 0.000000
345.575925 0.600000 0.000000
1.140000 0.625000 0.000000
1.140000 0.650000 0.000000
1.140000 0.675000 0.000000
0.075000 -0.075000 0.000000
0.075000 -0.050000 0.000000
0.075000 -0.025000 0.000000
0.075000 0.000000 0.000000
-10.393935 -10.234788 0.000000
3141.923404 0.600000 0.000000
2.740011 0.600000 0.000000
-457.538873 0.600000 0.000000
-8.310734 -5.549798 0.000000
21.405133 0.600000 0.000000
5.169680 -22.685106 0.000000
588.816740 0.600000 0.000000
118.885512 0.600000 0.000000
5.707765 -62.707356 0.000000
19.510731 -18.689778 0.000000
-209.535822 0.600000 0.000000
-96.422851 0.600000 0.000000
148.483372 -97.680053 0.000000
102.735972 0.600000 0.000000
4.191341 -0.063593 0.000000
574.619470 -228.238745 0.000000
0.115731 0.197299 0.000000
39.987086 -30.949680 0.000000
9.729788 -13.163846 0.000000
782.705805 0.600000 0.000000
-14.376725 -38.917672 0.000000
-1099.625019 0.600000 0.000000
-238.690578 0.600000 0.000000
1.165000 0.625000 0.000000
1.165000 0.650000 0.000000
1.165000 0.675000 0.000000
0.100000 -0.075000 0.000000
0.100000 -0.050000 0.000000
0.100000 -0.025000 0.000000
0.100000 0.000000 0.000000
0.764856 0.600000 0.000000
14451354.133133 0.600000 0.000000
-129.388609 -122.711350 0.000000
12349.631907 0.600000 0.000000
-1174.651480 0.600000 0.000000
-1.784067 0.600000 0.000000
-22950.912407 0.600000 0.000000
19.699127 0.113928 0.000000
3.212871 -4.079280 0.000000
12.856031 -4.674060 0.000000
-4.584822 -7.832263 0.000000
-361.569771 0.600000 0.000000
-9.722114 0.600000 0.000000
40.613695 -9.202757 0.000000
-22.549091 0.600000 0.000000
-22.877835 -19.201235 0.000000
0.369425 0.052143 0.000000
-6.791821 0.600000 0.000000
11.044804 -5.849956 0.000000
-11.826687 0.600000 0.000000
1.144957 0.281700 0.000000
16.815550 -24.117792 0.000000
377.980136 0.600000 0.000000
-4814.371233 0.600000 0.000000
1.190000 0.625000 0.000000
1.190000 0.650000 0.000000
1.190000 0.675000 0.000000
0.125000 -0.075000 0.000000
0.125000 -0.050000 0.000000
0.125000 -0.025000 0.000000
0.125000 0.000000 0.000000
-102.164325 0.600000 0.000000
331.115486 0.600000 0.000000
-284.089556 0.600000 0.000000
-85.684678 0.600000 0.000000
1.473833 -7.047567 0.000000
23.804169 -16.355955 0.000000
-139.937221 0.600000 0.000000
-2.238545 -15.133666 0.000000
8486.218063 0.600000 0.000000
-58.011025 -191.084156 0.000000
-70.482039 0.600000 0.000000
-6.467613 0.600000 0.000000
-1.917670 0.400143 0.000000
-47.029302 0.591623 0.000000
-68.988161 0.600000 0.000000
-78.874752 0.600000 0.000000
1070.008474 0.600000 0.000000
226.564854 0.600000 0.000000
-4.846240 -17.424020 0.000000
-39.695659 -24.080609 0.000000
-23.193095 0.445926 0.000000
387.777875 0.600000 0.000000
117819.279630 0.600000 0.000000
-33135.610461 0.600000 0.000000
1.215000 0.625000 0.000000
1.215000 0.650000 0.000000
1.215000 0.675000 0.000000
0.150000 -0.075000 0.000000
0.150000 -0.050000 0.000000
0.150000 -0.025000 0.000000
0.150000 0.000000 0.000000
-12.372510 0.600000 0.000000
-239.110234 0.600000 0.000000
-0.193015 -7.654548 0.000000
-27.845429 -16.863997 0.000000
-659.218782 0.600000 0.000000
1.602896 0.406303 0.000000
44.747793 0.600000 0.000000
1.429676 -3.784406 0.000000
-9.924861 0.600000 0.000000
-681.989687 0.600000 0.000000
-90.308241 -40.212508 0.000000
4.577556 -9.936417 0.000000
-13.850259 -12.425073 0.000000
-4887.244361 0.600000 0.000000
-1432.843457 0.600000 0.000000
-28.517186 -11.028482 0.000000
-25.885904 0.600000 0.000000
1.977284 -790.260182 0.000000
1489.257193 0.600000 0.000000
1006.262325 0.600000 0.000000
-1415.636880 0.600000 0.000000
25.542848 -60.010644 0.000000
619.794839 0.600000 0.000000
246.954439 0.600000 0.000000
1.240000 0.625000 0.000000
1.240000 0.650000 0.000000
1.240000 0.675000 0.000000
0.175000 -0.075000 0.000000
0.175000 -0.050000 0.000000
0.175000 -0.025000 0.000000
0.175000 0.000000 0.000000
-60.199482 0.600000 0.000000
-615.513939 0.600000 0.000000
1.778583 -6.377388 0.000000
11343.751400 0.600000 0.000000
131.297281 0.600000 0.000000
-30.626726 -23.179736 0.000000
3.643911 -29.177415 0.000000
41.260323 0.600000 0.000000
-278.858212 0.600000 0.000000
-171.926727 -87.597127 0.000000
2894.462525 0.600000 0.000000
-327.485608 0.600000 0.000000
587.546517 0.600000 0.000000
939.988746 0.600000 0.000000
332.136567 -159.194137 0.000000
-78.351951 0.600000 0.000000
-850.425167 -1898.276529 0.000000
723.041989 0.600000 0.000000
4065284.587187 0.600000 0.000000
137.982456 0.600000 0.000000
1506.777418 0.600000 0.000000
-119.856540 -54.666974 0.000000
-17.517264 -108.197643 0.000000
342.327689 0.600000 0.000000
1.265000 0.625000 0.000000
1.265000 0.650000 0.000000
1.265000 0.675000 0.000000
0.200000 -0.075000 0.000000
0.200000 -0.050000 0.000000
0.200000 -0.025000 0.000000
0.200000 0.000000 0.000000
-97.851270 0.600000 0.000000
-212.903752 0.600000 0.000000
108.654912 -5.502961 0.000000
5.046009 -107.399863 0.000000
[...]
<PointData>
<DataArray NumberOfComponents='1' type='Int32' Name='ParticleType' format='ascii'>
3
3
3
3
3
3
3
3
3
3
3
3
3
3
3
3
3
3
3
3
3
3
3
3
3
3
3
3
3
3
3
3
3
3
3
3
3
3
3
3
3
3
3
3
3
3
3
3
3
3
3
3
3
3
3
3
3
3
2
2
2
2
2
2
2
2
2
2
2
2
2
2
2
2
2
2
2
2
2
2
2
2
2
2
3
3
2
2
2
2
2
2
2
2
2
2
2
2
2
2
2
2
2
2
2
2
2
2
2
2
2
2
3
3
2
2
0
0
0
0
0
0
0
0
0
0
0
0
0
0
0
0
0
0
0
0
0
0
0
0
1
1
1
3
3
2
2
0
0
0
0
0
0
0
0
0
0
0
0
0
0
0
0
0
0
0
0
0
0
0
0
1
1
1
3
3
2
2
0
0
0
0
0
0
0
0
0
0
0
0
0
0
0
0
0
0
0
0
0
0
0
0
1
1
1
3
3
2
2
0
0
0
0
0
0
0
0
0
0
0
0
0
0
0
0
0
0
0
0
0
0
0
0
1
1
1
3
3
2
2
0
0
0
0
0
0
0
0
0
0
0
0
0
0
0
0
0
0
0
0
0
0
0
0
1
1
1
3
3
2
2
0
0
0
0
0
0
0
0
0
0
0
0
0
0
0
0
0
0
0
0
0
0
0
0
1
1
1
3
3
2
2
0
0
0
0
0
0
0
0
0
0
0
0
0
0
0
0
0
0
0
0
0
0
0
0
1
1
1
3
3
2
2
0
0
0
0
0
0
0
0
0
0
0
0
0
0
0
0
0
0
0
0
0
0
0
0
1
1
1
3
3
2
2
0
0
0
0
0
0
0
0
0
0
0
0
0
0
0
0
0
0
0
0
0
0
0
0
1
1
1
3
3
2
2
0
0
0
0
0
0
0
0
0
0
0
0
0
0
0
0
0
0
0
0
0
0
0
0
1
1
1
3
3
2
2
0
0
0
0
0
0
0
0
0
0
0
0
0
0
0
0
0
0
0
0
0
0
0
0
1
1
1
3
3
2
2
0
0
0
0
0
0
0
0
0
0
0
0
0
0
0
0
0
0
0
0
0
0
0
0
1
1
1
3
3
2
2
0
0
0
0
0
0
0
0
0
0
0
0
0
0
0
0
0
0
0
0
0
0
0
0
1
1
1
3
3
2
2
0
0
0
0
0
0
0
0
0
0
0
0
0
0
0
0
0
0
0
0
0
0
0
0
1
1
1
3
3
2
2
0
0
0
0
0
0
0
0
0
0
0
0
0
0
0
0
0
0
0
0
0
0
0
0
1
1
1
3
3
2
2
0
0
0
0
0
0
0
0
0
0
0
0
0
0
0
0
0
0
0
0
0
0
0
0
1
1
1
3
3
2
2
0
0
0
0
0
0
0
0
0
0
0
0
0
0
0
0
0
0
0
0
0
0
0
0
3
3
2
2
0
0
0
0
0
0
0
0
0
0
0
0
0
0
0
0
0
0
0
0
0
0
0
0
3
3
2
2
0
0
0
0
0
0
0
0
0
0
0
0
0
0
0
0
0
0
0
0
0
0
0
0
3
3
2
2
0
0
0
0
0
0
0
0
0
0
0
0
0
0
0
0
0
0
0
0
0
0
0
0
3
3
2
2
0
0
0
0
0
0
0
0
0
0
0
0
0
0
0
0
0
0
0
0
0
0
0
0
3
3
2
2
0
0
0
0
0
0
0
0
0
0
0
0
0
0
0
0
0
0
0
0
0
0
0
0
3
3
2
2
0
0
0
0
0
0
0
0
0
0
0
0
0
0
0
0
0
0
0
0
0
0
0
0
3
3
2
2
0
0
0
0
0
0
0
0
0
0
0
0
0
0
0
0
0
0
0
0
0
0
0
0
3
3
2
2
0
0
0
0
0
0
0
0
0
0
0
0
0
0
0
0
0
0
0
0
0
0
0
0
3
3
2
2
0
0
0
0
0
0
0
0
0
0
0
0
0
0
0
0
0
0
0
0
0
0
0
0
3
3
2
2
0
0
0
0
0
0
0
0
0
0
0
0
0
0
0
0
0
0
0
0
0
0
0
0
3
3
2
2
0
0
0
0
0
0
0
0
0
0
0
0
0
0
0
0
0
0
0
0
0
0
0
0
3
3
2
2
0
0
0
0
0
0
0
0
0
0
0
0
0
0
0
0
0
0
0
0
0
0
0
0
3
3
2
2
0
0
0
0
0
0
0
0
0
0
0
0
0
0
0
0
0
0
0
0
0
0
0
0
3
3
2
2
0
0
0
0
0
0
0
0
0
0
0
0
0
0
0
0
0
0
0
0
0
0
0
0
3
3
2
2
0
0
0
0
0
0
0
0
0
0
0
0
0
0
0
0
0
0
0
0
0
0
0
0
3
3
2
2
0
0
0
0
0
0
0
0
0
0
0
0
0
0
0
0
0
0
0
0
0
0
0
0
3
3
2
2
0
0
0
0
0
0
0
0
0
0
0
0
0
0
0
0
0
0
0
0
0
0
0
0
3
3
2
2
0
0
0
0
0
0
0
0
0
0
0
0
0
0
0
0
0
0
0
0
0
0
0
0
3
3
2
2
0
0
0
0
0
0
0
0
0
0
0
0
0
0
0
0
0
0
0
0
0
0
0
0
3
3
2
2
0
0
0
0
0
0
0
0
0
0
0
0
0
0
0
0
0
0
0
0
0
0
0
0
3
3
2
2
0
0
0
0
0
0
0
0
0
0
0
0
0
0
0
0
0
0
0
0
0
0
0
0
3
3
2
2
0
0
0
0
0
0
0
0
0
0
0
0
0
0
0
0
0
0
0
0
0
0
0
0
3
3
2
2
0
0
0
0
0
0
0
0
0
0
0
0
0
0
0
0
0
0
0
0
0
0
0
0
3
3
2
2
0
0
0
0
0
0
0
0
0
0
0
0
0
0
0
0
0
0
0
0
0
0
0
0
3
3
2
2
0
0
0
0
0
0
0
0
0
0
0
0
0
0
0
0
0
0
0
0
0
0
0
0
3
3
2
2
0
0
0
0
0
0
0
0
0
0
0
0
0
0
0
0
0
0
0
0
0
0
0
0
3
3
2
2
0
0
0
0
0
0
0
0
0
0
0
0
0
0
0
0
0
0
0
0
0
0
0
0
3
3
2
2
0
0
0
0
0
0
0
0
0
0
0
0
0
0
0
0
0
0
0
0
0
0
0
0
3
3
2
2
0
0
0
0
0
0
0
0
0
0
0
0
0
0
0
0
0
0
0
0
0
0
0
0
3
3
2
2
0
0
0
0
0
0
0
0
0
0
0
0
0
0
0
0
0
0
0
0
0
0
0
0
3
3
2
2
0
0
0
0
0
0
0
0
0
0
0
0
0
0
0
0
0
0
0
0
0
0
0
0
3
3
2
2
0
0
0
0
0
0
0
0
0
0
0
0
0
0
0
0
0
0
0
0
0
0
0
0
3
3
2
2
0
0
0
0
0
0
0
0
0
0
0
0
0
0
0
0
0
0
0
0
0
0
0
0
3
3
2
2
0
0
0
0
0
0
0
0
0
0
0
0
0
0
0
0
0
0
0
0
0
0
0
0
3
3
2
2
0
0
0
0
0
0
0
0
0
0
0
0
0
0
0
0
0
0
0
0
0
0
0
0
3
3
2
2
0
0
0
0
0
0
0
0
0
0
0
0
0
0
0
0
0
0
0
0
0
0
0
0
3
3
2
2
0
0
0
0
0
0
0
0
0
0
0
0
0
0
0
0
0
0
0
0
0
0
0
0
3
3
2
2
0
0
0
0
0
0
0
0
0
0
0
0
0
0
0
0
0
0
0
0
0
0
0
0
3
3
2
2
0
0
0
0
0
0
0
0
0
0
0
0
0
0
0
0
0
0
0
0
0
0
0
0
3
3
2
2
0
0
0
0
0
0
0
0
0
0
0
0
0
0
0
0
0
0
0
0
0
0
0
0
3
3
2
2
0
0
0
0
0
0
0
0
0
0
0
0
0
0
0
0
0
0
0
0
0
0
0
0
3
3
2
2
0
0
0
0
0
0
0
0
0
0
0
0
0
0
0
0
0
0
0
0
0
0
0
0
3
3
2
2
0
0
0
0
0
0
0
0
0
0
0
0
0
0
0
0
0
0
0
0
0
0
0
0
3
3
2
2
0
0
0
0
0
0
0
0
0
0
0
0
0
0
0
0
0
0
0
0
0
0
0
0
3
3
2
2
0
0
0
0
0
0
0
0
0
0
0
0
0
0
0
0
0
0
0
0
0
0
0
0
3
3
2
2
0
0
0
0
0
0
0
0
0
0
0
0
0
0
0
0
0
0
0
0
0
0
0
0
3
3
2
2
0
0
0
0
0
0
0
0
0
0
0
0
0
0
0
0
0
0
0
0
0
0
0
0
3
3
2
2
0
0
0
0
0
0
0
0
0
0
0
0
0
0
0
0
0
0
0
0
0
0
0
0
3
3
2
2
0
0
0
0
0
0
0
0
0
0
0
0
0
0
0
0
0
0
0
0
0
0
0
0
3
3
2
2
0
0
0
0
0
0
0
0
0
0
0
0
0
0
0
0
0
0
0
0
0
0
0
0
3
3
2
2
0
0
0
0
0
0
0
0
0
0
0
0
0
0
0
0
0
0
0
0
0
0
0
0
3
3
2
2
0
0
0
0
0
0
0
0
0
0
0
0
0
0
0
0
0
0
0
0
0
0
0
0
3
3
2
2
0
0
0
0
0
0
0
0
0
0
0
0
0
0
0
0
0
0
0
0
0
0
0
0
3
3
2
2
0
0
0
0
0
0
0
0
0
0
0
0
0
0
0
0
0
0
0
0
0
0
0
0
3
3
2
2
0
0
0
0
0
0
0
0
0
0
0
0
0
0
0
0
0
0
0
0
0
0
0
0
3
3
2
2
0
0
0
0
0
0
0
0
0
0
0
0
0
0
0
0
0
0
0
0
0
0
0
0
3
3
2
2
0
0
0
0
0
0
0
0
0
0
0
0
0
0
0
0
0
0
0
0
0
0
0
0
3
3
2
2
0
0
0
0
0
0
0
0
0
0
0
0
0
0
0
0
0
0
0
0
0
0
0
0
3
3
2
2
0
0
0
0
0
0
0
0
0
0
0
0
0
0
0
0
0
0
0
0
0
0
0
0
3
3
2
2
0
0
0
0
0
0
0
0
0
0
0
0
0
0
0
0
0
0
0
0
0
0
0
0
3
3
2
2
0
0
0
0
0
0
0
0
0
0
0
0
0
0
0
0
0
0
0
0
0
0
0
0
3
3
2
2
0
0
0
0
0
0
0
0
0
0
0
0
0
0
0
0
0
0
0
0
0
0
0
0
3
3
2
2
0
0
0
0
0
0
0
0
0
0
0
0
0
0
0
0
0
0
0
0
0
0
0
0
3
3
2
2
2
2
2
2
2
2
2
2
2
2
2
2
2
2
2
2
2
2
2
2
2
2
2
2
3
3
2
2
2
2
2
2
2
2
2
2
2
2
2
2
2
2
2
2
2
2
2
2
2
2
2
2
3
3
3
3
3
3
3
3
3
3
3
3
3
3
3
3
3
3
3
3
3
3
3
3
3
3
3
3
3
3
3
3
3
3
3
3
3
3
3
3
3
3
3
3
3
3
3
3
3
3
3
3
3
3
3
3
</DataArray>
<DataArray NumberOfComponents='1' type='Float32' Name='Velocity' format='ascii'>
0.000000
0.000000
0.000000
0.000000
0.000000
0.000000
0.000000
0.000000
0.000000
0.000000
0.000000
0.000000
0.000000
0.000000
0.000000
0.000000
0.000000
0.000000
0.000000
0.000000
0.000000
0.000000
0.000000
0.000000
0.000000
0.000000
0.000000
0.000000
0.000000
0.000000
0.000000
0.000000
0.000000
0.000000
0.000000
0.000000
0.000000
0.000000
0.000000
0.000000
0.000000
0.000000
0.000000
0.000000
0.000000
0.000000
0.000000
0.000000
0.000000
0.000000
0.000000
0.000000
0.000000
0.000000
0.000000
0.000000
0.000000
0.000000
0.000000
0.000000
0.000000
0.000000
0.000000
0.000000
0.000000
0.000000
0.000000
0.000000
0.000000
0.000000
0.000000
0.000000
0.000000
0.000000
0.000000
0.000000
0.000000
0.000000
0.000000
0.000000
0.000000
0.000000
0.000000
0.000000
0.000000
0.000000
0.000000
0.000000
0.000000
0.000000
0.000000
0.000000
0.000000
0.000000
0.000000
0.000000
0.000000
0.000000
0.000000
0.000000
0.000000
0.000000
0.000000
0.000000
0.000000
0.000000
0.000000
0.000000
0.000000
0.000000
0.000000
0.000000
0.000000
0.000000
0.000000
0.000000
4401.165039
209.009232
69.356293
63.352058
1.070918
95356864.000000
111.747444
93.530525
68.519287
522.541382
2972.318359
364.952087
76158.250000
28430.095703
111.422775
899.095032
167.316620
1786.417358
165.611893
1675.803345
1003.250366
1067.893311
2536.425049
83049576.000000
1.000000
1.000000
1.000000
0.000000
0.000000
0.000000
0.000000
136.713547
129.566147
1797.882324
54.667656
5407.759277
41.446758
68.355171
80.394943
47321.121094
49286.011719
124.864243
151.708817
300.797058
2373.851562
23500.087891
1095.369629
147.402359
413.821594
2117.681152
486.702271
1444.008789
28239.994141
1150.001587
2972.110107
1.000000
1.000000
1.000000
0.000000
0.000000
0.000000
0.000000
129.311874
35737.625000
40.615730
4535.149414
88.096382
274.493835
238.594193
5149.153809
1053.925537
642.918030
239.295654
1881.213745
908.563904
1560.660156
959.087036
33.175907
5671.645508
4.067044
456.223633
148.139297
6866.580078
364.717682
9610.181641
2141.227295
1.000000
1.000000
1.000000
0.000000
0.000000
0.000000
0.000000
9.084069
164219952.000000
1579.047485
135656.203125
10448.535156
136.216156
227129.031250
175.600525
47.253746
122.864143
83.615486
3403.608398
124.932205
367.101074
222.523499
274.148987
4.622432
434.750153
127.588890
424.288940
3.539186
262.797089
3320.619385
41519.281250
1.000000
1.000000
1.000000
0.000000
0.000000
0.000000
0.000000
1029.321167
3411.541260
2796.226074
907.732117
68.293442
249.131409
1549.788086
138.734695
81647.484375
1769.656738
888.671448
196.536438
35.138798
480.203156
620.941650
696.565979
10193.953125
2119.536865
170.204163
414.691895
196.206451
3741.509766
998466.625000
324624.781250
1.000000
1.000000
1.000000
0.000000
0.000000
0.000000
0.000000
109.825165
2240.619385
68.204735
295.938110
7866.758301
11.354012
452.943054
38.999088
808.329041
6514.518555
868.699219
96.823296
181.890930
42874.500000
12942.667969
268.998474
300.565369
6998.990234
13420.509766
9315.304688
12991.106445
556.367004
5252.410156
2126.389893
1.000000
1.000000
1.000000
0.000000
0.000000
0.000000
0.000000
623.871521
6835.146973
59.507481
107051.000000
1225.844849
336.130646
259.211365
440.243500
2508.012939
1694.943481
31802.394531
3953.614014
5386.862305
8406.710938
3477.115967
880.444397
17935.677734
6927.453613
37641568.000000
1225.037109
12991.790039
1128.786133
926.624756
3075.909668
1.000000
1.000000
1.000000
0.000000
0.000000
0.000000
0.000000
981.363464
2538.854736
1055.308350
936.025696
2479.731445
115.885963
27921.140625
287566.156250
1581.601929
1611.356689
96.820412
124.709625
318.168884
24645172.000000
1299.748657
15052.252930
1059.317017
1784.958252
1779.968018
4261.545410
17893.677734
2262.991699
1933.401855
2322.800781
1.000000
1.000000
1.000000
0.000000
0.000000
0.000000
0.000000
106.029099
10989698.000000
2051.675293
79.771896
755.110779
191.242905
20260.888672
484.412659
2112.981201
364.768097
6044.660156
388.794525
8532.706055
976.683228
153.015121
1.199980
174155.453125
198.985397
262.562408
68543.257812
1487.888306
26142.701172
91.516960
191028.375000
1.000000
1.000000
1.000000
0.000000
0.000000
0.000000
0.000000
43348.953125
292.208984
127.581146
8021.477051
16063.674805
668.296570
631.513184
12930.067383
190196.296875
585.180115
161.858643
939.165771
1674.129272
198.758255
91.668716
87.360535
266763.218750
154.451645
349.804718
289706.187500
494.273010
1085.273926
95400.992188
95085.890625
1.000000
1.000000
1.000000
0.000000
0.000000
0.000000
0.000000
610.443115
130.253403
1758.410278
37.957989
1826.229736
195.269104
89.415329
157.803146
243.745041
163.157242
857.443359
2961.712646
2174.271973
667.214783
304234.031250
60897.406250
109189544.000000
855.431580
43347.980469
5692.597168
124.126228
9136.535156
3759.835205
3982.642090
1.000000
1.000000
1.000000
0.000000
0.000000
0.000000
0.000000
289.669159
1010911488.000000
272.307251
313831.718750
43311.804688
41954936.000000
8036.585938
9932.426758
327.150787
362.301971
1308.535278
11015329.000000
861.820007
7859819520.000000
27.033113
57765.035156
117242.046875
1863.529907
770.817383
50.680370
7545.500977
6939.792969
161842336.000000
7708.000488
1.000000
1.000000
1.000000
0.000000
0.000000
0.000000
0.000000
819.955017
296.778992
99.374687
88.755020
102.938431
10577.991211
156.651794
163.039062
138.465439
2391.710693
6692.504395
1620.548462
344.432587
58.916355
2914.550537
377.365906
242.008728
116.315308
425.426056
1686.687500
650.090088
69.020653
39987.769531
3991.781494
1.000000
1.000000
1.000000
0.000000
0.000000
0.000000
0.000000
81.200996
1941.657715
181.757523
32.660236
235.850037
331.677734
2289.483643
7072.585938
914.808960
1092.307129
20030.830078
71.272133
400.313354
251.327087
244.524979
7657.344238
49153.628906
262.340027
90296.828125
274.668640
6454.438477
1098.840698
5125.987793
998081.687500
1.000000
1.000000
1.000000
0.000000
0.000000
0.000000
0.000000
109.282501
81898.593750
121.316475
8.358084
140.018433
594.356873
154.094559
1772.451782
41956152.000000
80.084061
898.846558
1167.860229
339448.062500
24146.240234
482.489349
708.090576
1170.225098
221.730881
1296.556396
49.040733
1560.708862
82941672.000000
956.479797
15229.269531
1.000000
1.000000
1.000000
0.000000
0.000000
0.000000
0.000000
1402.025146
44920.703125
318.369812
282.385284
514.236450
909.114075
140.477066
1764.714478
215.367447
2619.553955
17711.005859
446.762878
2946.477783
662.326599
5.679667
48621.335938
94.284950
12590.306641
3793.053467
1771.733643
125.667923
1776.475830
1128.027222
15809.727539
1.000000
1.000000
1.000000
0.000000
0.000000
0.000000
0.000000
239.022339
1068.117798
196.340836
511.876709
23249.578125
104.996666
1654.994141
2046.311035
4755.625000
123.406387
612.701660
4968.297852
3887.493652
181.014328
276.429352
128.936996
361.817383
408.376465
159659.765625
188.515945
5939.159668
68.625107
99.071335
4415.214355
0.000000
0.000000
0.000000
0.000000
57.112072
39281.597656
2573.916992
150.170059
2675.469971
4871.284180
2316.356934
10128.711914
2525.709961
21141.412109
6729.330566
7730.256348
193.502945
98441824.000000
1950.340820
495978.718750
6310.392090
36.249607
417.248566
552.798828
96046.179688
27242.652344
144.236771
1062.621216
0.000000
0.000000
0.000000
0.000000
2101.437256
602.378235
131.148285
374.342102
295.754059
5025.566895
118.506721
60.433285
150.751907
7906.487793
898.110168
3710.606445
98599.781250
230.502472
128.724838
157.098495
285.846741
528.066589
4829300.500000
19885750.000000
1371.318481
2053.803955
608.203857
15961.993164
0.000000
0.000000
0.000000
0.000000
50.405354
1298.023071
474.465240
3207.436279
3087.828857
286.686890
13265.647461
466.358307
123.314667
288258.031250
45.487820
1294.697876
523.239807
43177.671875
898.149658
1041.088501
1930363.250000
14036.097656
196.205399
49.874260
2958.479980
692.892639
1213.596558
4774220.000000
0.000000
0.000000
0.000000
0.000000
1512.918091
1346.995239
157.810852
4118.905762
43065.179688
615.479370
404.766174
351.303375
682.189453
301.235809
1742.129761
268.764618
592.690125
163.694504
117.873619
124.522408
5530499.500000
209.675583
1030.829102
347.285309
4797.775391
2296.092285
1829.128540
2450.423828
0.000000
0.000000
0.000000
0.000000
123.568428
729.050110
52.565674
1666460.000000
23588.013672
278.456299
60.417149
70.078209
1763.395996
6722.286133
203547328.000000
134.597687
2171.842041
811.877075
273.346405
112.315659
734.824341
198.944611
185.870514
325.029510
1247.174683
307293.531250
342.360107
1176.889282
0.000000
0.000000
0.000000
0.000000
360.895508
1507.963135
263.132263
1453.191772
119.496552
2300.646240
467.377716
39930.316406
93.674881
30677.169922
1209.799927
224.049866
3254.191895
59.786991
3205.833984
102359.648438
1629.066406
151.390305
3974.882324
249.090439
38518.199219
117.669853
655.705261
2748.679932
0.000000
0.000000
0.000000
0.000000
65.700546
2.926225
9624.411133
367294.187500
350.277405
207.540085
57535692.000000
21699.156250
792.948303
886.361084
6320.316895
1935943.625000
137.528900
97.449944
1905.144531
992.634888
1157.979004
1433.898560
4917.827637
1250.784912
203547792.000000
40052.703125
4328.604004
9517.477539
0.000000
0.000000
0.000000
0.000000
139.716568
596.558411
284.074524
13.359074
139930.531250
81.832985
13827.834961
1192.955688
391.891876
335.638367
795.587463
2115.115967
16375.462891
28250.347656
1570.994019
185.984375
253.660934
306.282135
1240.945679
11.581880
15372175.000000
120.862930
415.930450
1056.111572
0.000000
0.000000
0.000000
0.000000
617.201172
44.207935
3190.292480
904.371948
2181.855469
291.662140
709960.875000
349.008087
445.593536
9597.227539
671.942322
126.955048
41.061813
47.067558
440.019775
4.623569
1014.504517
849.625854
3540.894043
300.441315
3786.217285
12455.861328
5500.661133
4545.295898
0.000000
0.000000
0.000000
0.000000
1066.198486
133.492493
10160.068359
24003.656250
12.812249
79958.921875
81155.101562
140148.500000
2028.474243
91.023094
106.290237
324.964203
1349.588989
4.052009
879.388245
617.506165
65.832504
58.254673
950.579407
1054.050293
2068.495850
991.324524
155.269547
1799.569824
0.000000
0.000000
0.000000
0.000000
16074.422852
69402.585938
858.610657
102.464409
205149.765625
798.589905
160.949356
5018.196289
1243.499268
85.445930
24622.835938
22169.072266
254.477310
10534.165039
366.515076
285.339752
1437.373535
2220.139648
1216.746094
27196.613281
234.413025
2188.315186
86.403481
8849.957031
0.000000
0.000000
0.000000
0.000000
16159.052734
112181.335938
700.011047
1519.850586
123.118622
94768.734375
303.533813
3356.722168
3157.983398
498.368652
450.423340
219.243240
1065.906982
4890.008789
12373.632812
82307.070312
81594.234375
5.318504
577.238220
961.434021
163329.281250
107688.375000
1084.395508
2093.961426
0.000000
0.000000
0.000000
0.000000
466.894836
72.845207
66.310753
82.145203
107776.687500
3986.106445
1706.022461
234.404251
735.407471
663460.062500
2226.542969
1524.420410
1064.753052
23744.490234
48.753372
149.543182
100.297127
105.877029
301.807343
228.196915
223.152328
2370.530762
370.166931
1928.957886
0.000000
0.000000
0.000000
0.000000
12854.951172
58.699196
786193.125000
720.611816
258.274231
304.558502
119.068871
699.250122
6.815073
22493.626953
29818181648384.000000
494.195862
620.445496
779.507629
170.797226
811.742249
300.243347
138.289185
294.803406
63.392319
713.232239
32273.304688
7106.136230
6863.442871
0.000000
0.000000
0.000000
0.000000
1983.508911
11138.561523
1778.133545
152.463455
1581.780273
4642.740723
331.057800
12981.881836
19754.941406
342.767700
2985.960205
49007.941406
800.889343
248.557510
6126.156738
610.358337
1220.687988
540.678101
81.421082
3514.315430
90958.132812
375.918243
1714.660889
20957.064453
0.000000
0.000000
0.000000
0.000000
78.666489
66.128868
3365.401611
204.428223
19577.009766
1883.720459
1113.103882
477.922394
550.380188
121.777359
41.413231
68.887787
106.468163
1251777920.000000
3623.062256
152.643448
237.294571
202.926941
126.506027
39096.898438
274.499146
5787.482422
22677.333984
5687.455566
0.000000
0.000000
0.000000
0.000000
109266000.000000
5619.937500
1114.088989
90.820808
153.747665
1186.165161
110.975441
95356440.000000
1635.209595
16808.503906
1745.254272
142.831909
24.082205
82.665382
24338.191406
245.468704
3994.072754
828.790771
1144.728882
157.168823
300.052643
2316.157471
11944.708008
5083.799316
0.000000
0.000000
0.000000
0.000000
128181.062500
35.989685
215609.859375
542.653748
122.308197
11.659850
151.405594
386.353241
545.508423
13220.962891
46276.218750
185422.375000
1085.154419
29612.695312
1152.103760
2769.683105
6082527.000000
240.179581
577.814392
46.568436
14900.022461
371.567413
2758.249756
23664962.000000
0.000000
0.000000
0.000000
0.000000
190375.000000
101.987129
551.909912
224.693481
22318.925781
3955.000732
9132.320312
117335.429688
1649.326172
535.141724
70.461998
684.786743
36312.191406
159.250854
41.018585
169.358002
202056.750000
4896.675293
1318.743408
237.593002
1744.025757
448.054626
708.251770
3154.220459
0.000000
0.000000
0.000000
0.000000
67.038017
13.355918
19159504.000000
965.338989
128.534988
514.799133
314.881561
2776.319336
363.357666
15206.482422
342.625366
295.079071
2974.776123
282.107513
400.055847
113043.070312
1572.793213
3447.439453
2616.010986
3026.909424
901.544983
755.923767
39003.250000
11095.413086
0.000000
0.000000
0.000000
0.000000
56.890701
393.683838
483.828949
8088.190430
657.611633
794.640991
2773.672607
167.869583
15409.870117
96.974236
1703.744507
279.203339
113.001274
77766.078125
1183.452637
2775.449463
650.656189
304.731720
3431.998535
1633.100830
529.781067
174255.953125
449.402679
79955.406250
0.000000
0.000000
0.000000
0.000000
33.356846
119.073090
113.380638
810.222900
99.866966
206.015259
75.002022
49.100777
15372272.000000
124.178246
80961.046875
448975.000000
1671.815063
152.879257
283.593536
98099.492188
2749.831055
944355.062500
362.481659
126.425812
21625.525391
66.615555
132.073883
4929.008301
0.000000
0.000000
0.000000
0.000000
83570.070312
170.400818
2841.013672
2176.322998
1036.411499
173768.593750
73.261139
645.000427
597.705444
69.804741
206.045944
479.038239
8.701929
3971.543701
3340.245605
587638.875000
255.796021
308.142578
215.084442
791.569763
694.841675
111.306641
203.915176
961.272583
0.000000
0.000000
0.000000
0.000000
107.186485
104.047256
170.490814
319320.968750
2212.591797
7.987851
217.519562
3245.335693
583.555725
6084.616211
14.002417
21588.798828
37.068378
426.714935
8697.595703
167.699188
28.614529
128166.570312
17501.609375
4530.845703
7180.430664
196817.765625
142.138794
7760.886230
0.000000
0.000000
0.000000
0.000000
333.571228
3297.480957
386.605865
89.720253
10511.029297
2669.315674
3063.051514
10122.944336
68835.500000
165.542099
215246224.000000
4244.381836
870.663025
225.902267
98.064507
488973.312500
35.731010
112331.835938
2101.904785
113.671776
2608.860840
2067.357666
86.252960
1156.648804
0.000000