<?xml version='1.0' encoding='UTF-8'?>
<VTKFile xmlns='VTK' byte_order='LittleEndian' version='0.1' type='UnstructuredGrid'>
<UnstructuredGrid>
<Piece NumberOfCells='2512' NumberOfPoints='2512'>
<Points>
<DataArray NumberOfComponents='3' type='Float32' Name='Position' format='ascii'>
-0.075000 -0.075000 0.000000
-0.075000 -0.050000 0.000000
-0.075000 -0.025000 0.000000
-0.075000 0.000000 0.000000
-0.075000 0.025000 0.000000
-0.075000 0.050000 0.000000
-0.075000 0.075000 0.000000
-0.075000 0.100000 0.000000
-0.075000 0.125000 0.000000
-0.075000 0.150000 0.000000
-0.075000 0.175000 0.000000
-0.075000 0.200000 0.000000
-0.075000 0.225000 0.000000
-0.075000 0.250000 0.000000
-0.075000 0.275000 0.000000
-0.075000 0.300000 0.000000
-0.075000 0.325000 0.000000
-0.075000 0.350000 0.000000
-0.075000 0.375000 0.000000
-0.075000 0.400000 0.000000
-0.075000 0.425000 0.000000
-0.075000 0.450000 0.000000
-0.075000 0.475000 0.000000
-0.075000 0.500000 0.000000
-0.075000 0.525000 0.000000
-0.075000 0.550000 0.000000
-0.075000 0.575000 0.000000
-0.075000 0.600000 0.000000
-0.050000 -0.075000 0.000000
-0.050000 -0.050000 0.000000
-0.050000 -0.025000 0.000000
-0.050000 0.000000 0.000000
-0.050000 0.025000 0.000000
-0.050000 0.050000 0.000000
-0.050000 0.075000 0.000000
-0.050000 0.100000 0.000000
-0.050000 0.125000 0.000000
-0.050000 0.150000 0.000000
-0.050000 0.175000 0.000000
-0.050000 0.200000 0.000000
-0.050000 0.225000 0.000000
-0.050000 0.250000 0.000000
-0.050000 0.275000 0.000000
-0.050000 0.300000 0.000000
-0.050000 0.325000 0.000000
-0.050000 0.350000 0.000000
-0.050000 0.375000 0.000000
-0.050000 0.400000 0.000000
-0.050000 0.425000 0.000000
-0.050000 0.450000 0.000000
-0.050000 0.475000 0.000000
-0.050000 0.500000 0.000000
-0.050000 0.525000 0.000000
-0.050000 0.550000 0.000000
-0.050000 0.575000 0.000000
-0.050000 0.600000 0.000000
-0.025000 -0.075000 0.000000
-0.025000 -0.050000 0.000000
-0.025000 -0.025000 0.000000
-0.025000 0.000000 0.000000
-0.025000 0.025000 0.000000
-0.025000 0.050000 0.000000
-0.025000 0.075000 0.000000
-0.025000 0.100000 0.000000
-0.025000 0.125000 0.000000
-0.025000 0.150000 0.000000
-0.025000 0.175000 0.000000
-0.025000 0.200000 0.000000
-0.025000 0.225000 0.000000
-0.025000 0.250000 0.000000
-0.025000 0.275000 0.000000
-0.025000 0.300000 0.000000
-0.025000 0.325000 0.000000
-0.025000 0.350000 0.000000
-0.025000 0.375000 0.000000
-0.025000 0.400000 0.000000
-0.025000 0.425000 0.000000
-0.025000 0.450000 0.000000
-0.025000 0.475000 0.000000
-0.025000 0.500000 0.000000
-0.025000 0.525000 0.000000
-0.025000 0.550000 0.000000
-0.025000 0.575000 0.000000
-0.025000 0.600000 0.000000
0.000000 -0.075000 0.000000
0.000000 -0.050000 0.000000
0.000000 -0.025000 0.000000
0.000000 0.000000 0.000000
0.000000 0.025000 0.000000
0.000000 0.050000 0.000000
0.000000 0.075000 0.000000
0.000000 0.100000 0.000000
0.000000 0.125000 0.000000
0.000000 0.150000 0.000000
0.000000 0.175000 0.000000
0.000000 0.200000 0.000000
0.000000 0.225000 0.000000
0.000000 0.250000 0.000000
0.000000 0.275000 0.000000
0.000000 0.300000 0.000000
0.000000 0.325000 0.000000
0.000000 0.350000 0.000000
0.000000 0.375000 0.000000
0.000000 0.400000 0.000000
0.000000 0.425000 0.000000
0.000000 0.450000 0.000000
0.000000 0.475000 0.000000
0.000000 0.500000 0.000000
0.000000 0.525000 0.000000
0.000000 0.550000 0.000000
0.000000 0.575000 0.000000
0.000000 0.600000 0.000000
0.025000 -0.075000 0.000000
0.025000 -0.050000 0.000000
0.025000 -0.025000 0.000000
0.025000 0.000000 0.000000
0.024909 0.025587 0.000000
0.025479 0.049713 0.000000
0.024556 0.074321 0.000000
0.027653 0.099634 0.000000
0.023549 0.121328 0.000000
0.024448 0.152063 0.000000
0.024497 0.178852 0.000000
0.024742 0.205832 0.000000
0.026012 0.228654 0.000000
0.024288 0.252917 0.000000
0.024544 0.279632 0.000000
0.025581 0.302218 0.000000
0.024893 0.331251 0.000000
0.024754 0.353281 0.000000
0.025060 0.382065 0.000000
0.023587 0.408157 0.000000
0.023289 0.436533 0.000000
0.025169 0.466259 0.000000
0.022499 0.490074 0.000000
0.022945 0.532308 0.000000
0.026130 0.583443 0.000000
0.042213 0.600000 0.000000
0.066770 0.600000 0.000000
0.021675 0.600000 0.000000
0.645000 0.625000 0.000000
0.645000 0.650000 0.000000
0.645000 0.675000 0.000000
0.050000 -0.075000 0.000000
0.050000 -0.050000 0.000000
0.050000 -0.025000 0.000000
0.050000 0.000000 0.000000
0.049265 0.024022 0.000000
0.054364 0.049521 0.000000
0.047530 0.071996 0.000000
0.049544 0.109291 0.000000
0.044529 0.138483 0.000000
0.045498 0.168142 0.000000
0.049187 0.193246 0.000000
0.053766 0.219672 0.000000
0.049927 0.243399 0.000000
0.050979 0.266767 0.000000
0.049427 0.292988 0.000000
0.047160 0.319157 0.000000
0.051512 0.346740 0.000000
0.045432 0.372222 0.000000
0.048867 0.400200 0.000000
0.044754 0.425087 0.000000
0.046068 0.453216 0.000000
0.053137 0.479337 0.000000
0.043084 0.499728 0.000000
0.043581 0.523185 0.000000
0.026243 0.552832 0.000000
0.058286 0.580041 0.000000
0.073553 0.555083 0.000000
0.083146 0.600000 0.000000
0.670000 0.625000 0.000000
0.670000 0.650000 0.000000
0.670000 0.675000 0.000000
0.075000 -0.075000 0.000000
0.075000 -0.050000 0.000000
0.075000 -0.025000 0.000000
0.075000 0.000000 0.000000
0.088658 0.021398 0.000000
0.072153 0.035455 0.000000
0.070175 0.074368 0.000000
0.070696 0.098196 0.000000
0.069074 0.123970 0.000000
0.065878 0.153053 0.000000
0.074577 0.176849 0.000000
0.072126 0.203706 0.000000
0.078188 0.230265 0.000000
0.074120 0.258309 0.000000
0.074283 0.284962 0.000000
0.072060 0.310076 0.000000
0.072093 0.335675 0.000000
0.073736 0.362262 0.000000
0.068634 0.386748 0.000000
0.074799 0.412243 0.000000
0.066726 0.436854 0.000000
0.071245 0.463044 0.000000
0.080078 0.487048 0.000000
0.072966 0.507942 0.000000
0.066623 0.531915 0.000000
0.051085 0.554667 0.000000
0.091233 0.577019 0.000000
0.103087 0.600000 0.000000
0.695000 0.625000 0.000000
0.695000 0.650000 0.000000
0.695000 0.675000 0.000000
0.100000 -0.075000 0.000000
0.100000 -0.050000 0.000000
0.100000 -0.025000 0.000000
0.100000 0.000000 0.000000
0.115856 0.028783 0.000000
0.091066 0.065053 0.000000
0.097212 0.091621 0.000000
0.096171 0.112853 0.000000
0.087364 0.139985 0.000000
0.100413 0.157646 0.000000
0.094101 0.185690 0.000000
0.099914 0.208240 0.000000
0.099113 0.236327 0.000000
0.097248 0.266217 0.000000
0.098708 0.290867 0.000000
0.094975 0.319055 0.000000
0.098806 0.342730 0.000000
0.096990 0.368025 0.000000
0.095890 0.392350 0.000000
0.097279 0.419167 0.000000
0.092250 0.442012 0.000000
0.100543 0.468636 0.000000
0.106865 0.491695 0.000000
0.099109 0.513798 0.000000
0.093406 0.537249 0.000000
0.107021 0.556265 0.000000
0.125180 0.563742 0.000000
0.119357 0.600000 0.000000
0.720000 0.625000 0.000000
0.720000 0.650000 0.000000
0.720000 0.675000 0.000000
0.125000 -0.075000 0.000000
0.125000 -0.050000 0.000000
0.125000 -0.025000 0.000000
0.125000 0.000000 0.000000
0.139428 0.023295 0.000000
0.104879 0.049037 0.000000
0.120157 0.075521 0.000000
0.126145 0.101368 0.000000
0.118708 0.124268 0.000000
0.120500 0.152511 0.000000
0.124480 0.176192 0.000000
0.122836 0.202445 0.000000
0.126715 0.224799 0.000000
0.116122 0.251119 0.000000
0.122850 0.279266 0.000000
0.119633 0.306980 0.000000
0.123002 0.327346 0.000000
0.120149 0.360341 0.000000
0.129055 0.378727 0.000000
0.116953 0.404810 0.000000
0.132643 0.423230 0.000000
0.116178 0.446258 0.000000
0.126175 0.472047 0.000000
0.122312 0.526776 0.000000
0.138262 0.542717 0.000000
0.151470 0.564182 0.000000
0.167214 0.583354 0.000000
0.136540 0.600000 0.000000
0.745000 0.625000 0.000000
0.745000 0.650000 0.000000
0.745000 0.675000 0.000000
0.150000 -0.075000 0.000000
0.150000 -0.050000 0.000000
0.150000 -0.025000 0.000000
0.150000 0.000000 0.000000
0.163524 0.025202 0.000000
0.130317 0.051891 0.000000
0.143711 0.081251 0.000000
0.151271 0.104013 0.000000
0.139597 0.132292 0.000000
0.152859 0.151575 0.000000
0.145306 0.178493 0.000000
0.148895 0.208535 0.000000
0.146399 0.236192 0.000000
0.143998 0.264427 0.000000
0.143802 0.289490 0.000000
0.154190 0.309265 0.000000
0.141637 0.341044 0.000000
0.155931 0.361044 0.000000
0.144366 0.396451 0.000000
0.157764 0.423683 0.000000
0.139923 0.447060 0.000000
0.150526 0.469789 0.000000
0.131637 0.503905 0.000000
0.153170 0.490905 0.000000
0.152055 0.514229 0.000000
0.163617 0.543968 0.000000
0.179607 0.600000 0.000000
0.151774 0.600000 0.000000
0.770000 0.625000 0.000000
0.770000 0.650000 0.000000
0.770000 0.675000 0.000000
0.175000 -0.075000 0.000000
0.175000 -0.050000 0.000000
0.175000 -0.025000 0.000000
0.175000 0.000000 0.000000
0.191947 0.023656 0.000000
0.153713 0.053698 0.000000
0.168261 0.074048 0.000000
0.181101 0.097152 0.000000
0.165281 0.122271 0.000000
0.176884 0.152327 0.000000
0.168075 0.173956 0.000000
0.171188 0.203246 0.000000
0.172488 0.225541 0.000000
0.163217 0.256343 0.000000
0.172803 0.278864 0.000000
0.176046 0.309740 0.000000
0.162768 0.334294 0.000000
0.180837 0.360637 0.000000
0.161300 0.384882 0.000000
0.178295 0.406747 0.000000
0.168601 0.442298 0.000000
0.188367 0.448813 0.000000
0.178586 0.478309 0.000000
0.186434 0.501068 0.000000
0.177120 0.521794 0.000000
0.188989 0.545072 0.000000
0.189714 0.568215 0.000000
0.195177 0.600000 0.000000
0.795000 0.625000 0.000000
0.795000 0.650000 0.000000
0.795000 0.675000 0.000000
0.200000 -0.075000 0.000000
0.200000 -0.050000 0.000000
0.200000 -0.025000 0.000000
0.200000 0.000000 0.000000
0.215540 0.026810 0.000000
0.177152 0.046127 0.000000
0.193592 0.078582 0.000000
0.205375 0.102964 0.000000
0.186623 0.128039 0.000000
0.203366 0.153266 0.000000
0.190392 0.187916 0.000000
0.203810 0.206931 0.000000
0.187099 0.241747 0.000000
0.202016 0.258748 0.000000
0.193453 0.284629 0.000000
0.199065 0.307458 0.000000
0.188371 0.338178 0.000000
0.209084 0.353868 0.000000
0.190421 0.384114 0.000000
0.208043 0.402429 0.000000
0.193654 0.424212 0.000000
0.212518 0.452726 0.000000
0.199484 0.477328 0.000000
0.213748 0.499544 0.000000
0.204773 0.525036 0.000000
0.217923 0.547044 0.000000
[...]
<PointData>
<DataArray NumberOfComponents='1' type='Int32' Name='ParticleType' format='ascii'>
3
3
3
3
3
3
3
3
3
3
3
3
3
3
3
3
3
3
3
3
3
3
3
3
3
3
3
3
3
3
3
3
3
3
3
3
3
3
3
3
3
3
3
3
3
3
3
3
3
3
3
3
3
3
3
3
3
3
2
2
2
2
2
2
2
2
2
2
2
2
2
2
2
2
2
2
2
2
2
2
2
2
2
2
3
3
2
2
2
2
2
2
2
2
2
2
2
2
2
2
2
2
2
2
2
2
2
2
2
2
2
2
3
3
2
2
0
0
0
0
0
0
0
0
0
0
0
0
0
0
0
0
0
0
0
0
0
0
0
0
1
1
1
3
3
2
2
0
0
0
0
0
0
0
0
0
0
0
0
0
0
0
0
0
0
0
0
0
0
0
0
1
1
1
3
3
2
2
0
0
0
0
0
0
0
0
0
0
0
0
0
0
0
0
0
0
0
0
0
0
0
0
1
1
1
3
3
2
2
0
0
0
0
0
0
0
0
0
0
0
0
0
0
0
0
0
0
0
0
0
0
0
0
1
1
1
3
3
2
2
0
0
0
0
0
0
0
0
0
0
0
0
0
0
0
0
0
0
0
0
0
0
0
0
1
1
1
3
3
2
2
0
0
0
0
0
0
0
0
0
0
0
0
0
0
0
0
0
0
0
0
0
0
0
0
1
1
1
3
3
2
2
0
0
0
0
0
0
0
0
0
0
0
0
0
0
0
0
0
0
0
0
0
0
0
0
1
1
1
3
3
2
2
0
0
0
0
0
0
0
0
0
0
0
0
0
0
0
0
0
0
0
0
0
0
0
0
1
1
1
3
3
2
2
0
0
0
0
0
0
0
0
0
0
0
0
0
0
0
0
0
0
0
0
0
0
0
0
1
1
1
3
3
2
2
0
0
0
0
0
0
0
0
0
0
0
0
0
0
0
0
0
0
0
0
0
0
0
0
1
1
1
3
3
2
2
0
0
0
0
0
0
0
0
0
0
0
0
0
0
0
0
0
0
0
0
0
0
0
0
1
1
1
3
3
2
2
0
0
0
0
0
0
0
0
0
0
0
0
0
0
0
0
0
0
0
0
0
0
0
0
1
1
1
3
3
2
2
0
0
0
0
0
0
0
0
0
0
0
0
0
0
0
0
0
0
0
0
0
0
0
0
1
1
1
3
3
2
2
0
0
0
0
0
0
0
0
0
0
0
0
0
0
0
0
0
0
0
0
0
0
0
0
1
1
1
3
3
2
2
0
0
0
0
0
0
0
0
0
0
0
0
0
0
0
0
0
0
0
0
0
0
0
0
1
1
1
3
3
2
2
0
0
0
0
0
0
0
0
0
0
0
0
0
0
0
0
0
0
0
0
0
0
0
0
1
1
1
3
3
2
2
0
0
0
0
0
0
0
0
0
0
0
0
0
0
0
0
0
0
0
0
0
0
0
0
3
3
2
2
0
0
0
0
0
0
0
0
0
0
0
0
0
0
0
0
0
0
0
0
0
0
0
0
3
3
2
2
0
0
0
0
0
0
0
0
0
0
0
0
0
0
0
0
0
0
0
0
0
0
0
0
3
3
2
2
0
0
0
0
0
0
0
0
0
0
0
0
0
0
0
0
0
0
0
0
0
0
0
0
3
3
2
2
0
0
0
0
0
0
0
0
0
0
0
0
0
0
0
0
0
0
0
0
0
0
0
0
3
3
2
2
0
0
0
0
0
0
0
0
0
0
0
0
0
0
0
0
0
0
0
0
0
0
0
0
3
3
2
2
0
0
0
0
0
0
0
0
0
0
0
0
0
0
0
0
0
0
0
0
0
0
0
0
3
3
2
2
0
0
0
0
0
0
0
0
0
0
0
0
0
0
0
0
0
0
0
0
0
0
0
0
3
3
2
2
0
0
0
0
0
0
0
0
0
0
0
0
0
0
0
0
0
0
0
0
0
0
0
0
3
3
2
2
0
0
0
0
0
0
0
0
0
0
0
0
0
0
0
0
0
0
0
0
0
0
0
0
3
3
2
2
0
0
0
0
0
0
0
0
0
0
0
0
0
0
0
0
0
0
0
0
0
0
0
0
3
3
2
2
0
0
0
0
0
0
0
0
0
0
0
0
0
0
0
0
0
0
0
0
0
0
0
0
3
3
2
2
0
0
0
0
0
0
0
0
0
0
0
0
0
0
0
0
0
0
0
0
0
0
0
0
3
3
2
2
0
0
0
0
0
0
0
0
0
0
0
0
0
0
0
0
0
0
0
0
0
0
0
0
3
3
2
2
0
0
0
0
0
0
0
0
0
0
0
0
0
0
0
0
0
0
0
0
0
0
0
0
3
3
2
2
0
0
0
0
0
0
0
0
0
0
0
0
0
0
0
0
0
0
0
0
0
0
0
0
3
3
2
2
0
0
0
0
0
0
0
0
0
0
0
0
0
0
0
0
0
0
0
0
0
0
0
0
3
3
2
2
0
0
0
0
0
0
0
0
0
0
0
0
0
0
0
0
0
0
0
0
0
0
0
0
3
3
2
2
0
0
0
0
0
0
0
0
0
0
0
0
0
0
0
0
0
0
0
0
0
0
0
0
3
3
2
2
0
0
0
0
0
0
0
0
0
0
0
0
0
0
0
0
0
0
0
0
0
0
0
0
3
3
2
2
0
0
0
0
0
0
0
0
0
0
0
0
0
0
0
0
0
0
0
0
0
0
0
0
3
3
2
2
0
0
0
0
0
0
0
0
0
0
0
0
0
0
0
0
0
0
0
0
0
0
0
0
3
3
2
2
0
0
0
0
0
0
0
0
0
0
0
0
0
0
0
0
0
0
0
0
0
0
0
0
3
3
2
2
0
0
0
0
0
0
0
0
0
0
0
0
0
0
0
0
0
0
0
0
0
0
0
0
3
3
2
2
0
0
0
0
0
0
0
0
0
0
0
0
0
0
0
0
0
0
0
0
0
0
0
0
3
3
2
2
0
0
0
0
0
0
0
0
0
0
0
0
0
0
0
0
0
0
0
0
0
0
0
0
3
3
2
2
0
0
0
0
0
0
0
0
0
0
0
0
0
0
0
0
0
0
0
0
0
0
0
0
3
3
2
2
0
0
0
0
0
0
0
0
0
0
0
0
0
0
0
0
0
0
0
0
0
0
0
0
3
3
2
2
0
0
0
0
0
0
0
0
0
0
0
0
0
0
0
0
0
0
0
0
0
0
0
0
3
3
2
2
0
0
0
0
0
0
0
0
0
0
0
0
0
0
0
0
0
0
0
0
0
0
0
0
3
3
2
2
0
0
0
0
0
0
0
0
0
0
0
0
0
0
0
0
0
0
0
0
0
0
0
0
3
3
2
2
0
0
0
0
0
0
0
0
0
0
0
0
0
0
0
0
0
0
0
0
0
0
0
0
3
3
2
2
0
0
0
0
0
0
0
0
0
0
0
0
0
0
0
0
0
0
0
0
0
0
0
0
3
3
2
2
0
0
0
0
0
0
0
0
0
0
0
0
0
0
0
0
0
0
0
0
0
0
0
0
3
3
2
2
0
0
0
0
0
0
0
0
0
0
0
0
0
0
0
0
0
0
0
0
0
0
0
0
3
3
2
2
0
0
0
0
0
0
0
0
0
0
0
0
0
0
0
0
0
0
0
0
0
0
0
0
3
3
2
2
0
0
0
0
0
0
0
0
0
0
0
0
0
0
0
0
0
0
0
0
0
0
0
0
3
3
2
2
0
0
0
0
0
0
0
0
0
0
0
0
0
0
0
0
0
0
0
0
0
0
0
0
3
3
2
2
0
0
0
0
0
0
0
0
0
0
0
0
0
0
0
0
0
0
0
0
0
0
0
0
3
3
2
2
0
0
0
0
0
0
0
0
0
0
0
0
0
0
0
0
0
0
0
0
0
0
0
0
3
3
2
2
0
0
0
0
0
0
0
0
0
0
0
0
0
0
0
0
0
0
0
0
0
0
0
0
3
3
2
2
0
0
0
0
0
0
0
0
0
0
0
0
0
0
0
0
0
0
0
0
0
0
0
0
3
3
2
2
0
0
0
0
0
0
0
0
0
0
0
0
0
0
0
0
0
0
0
0
0
0
0
0
3
3
2
2
0
0
0
0
0
0
0
0
0
0
0
0
0
0
0
0
0
0
0
0
0
0
0
0
3
3
2
2
0
0
0
0
0
0
0
0
0
0
0
0
0
0
0
0
0
0
0
0
0
0
0
0
3
3
2
2
0
0
0
0
0
0
0
0
0
0
0
0
0
0
0
0
0
0
0
0
0
0
0
0
3
3
2
2
0
0
0
0
0
0
0
0
0
0
0
0
0
0
0
0
0
0
0
0
0
0
0
0
3
3
2
2
0
0
0
0
0
0
0
0
0
0
0
0
0
0
0
0
0
0
0
0
0
0
0
0
3
3
2
2
0
0
0
0
0
0
0
0
0
0
0
0
0
0
0
0
0
0
0
0
0
0
0
0
3
3
2
2
0
0
0
0
0
0
0
0
0
0
0
0
0
0
0
0
0
0
0
0
0
0
0
0
3
3
2
2
0
0
0
0
0
0
0
0
0
0
0
0
0
0
0
0
0
0
0
0
0
0
0
0
3
3
2
2
0
0
0
0
0
0
0
0
0
0
0
0
0
0
0
0
0
0
0
0
0
0
0
0
3
3
2
2
0
0
0
0
0
0
0
0
0
0
0
0
0
0
0
0
0
0
0
0
0
0
0
0
3
3
2
2
0
0
0
0
0
0
0
0
0
0
0
0
0
0
0
0
0
0
0
0
0
0
0
0
3
3
2
2
0
0
0
0
0
0
0
0
0
0
0
0
0
0
0
0
0
0
0
0
0
0
0
0
3
3
2
2
0
0
0
0
0
0
0
0
0
0
0
0
0
0
0
0
0
0
0
0
0
0
0
0
3
3
2
2
0
0
0
0
0
0
0
0
0
0
0
0
0
0
0
0
0
0
0
0
0
0
0
0
3
3
2
2
0
0
0
0
0
0
0
0
0
0
0
0
0
0
0
0
0
0
0
0
0
0
0
0
3
3
2
2
0
0
0
0
0
0
0
0
0
0
0
0
0
0
0
0
0
0
0
0
0
0
0
0
3
3
2
2
0
0
0
0
0
0
0
0
0
0
0
0
0
0
0
0
0
0
0
0
0
0
0
0
3
3
2
2
0
0
0
0
0
0
0
0
0
0
0
0
0
0
0
0
0
0
0
0
0
0
0
0
3
3
2
2
0
0
0
0
0
0
0
0
0
0
0
0
0
0
0
0
0
0
0
0
0
0
0
0
3
3
2
2
0
0
0
0
0
0
0
0
0
0
0
0
0
0
0
0
0
0
0
0
0
0
0
0
3
3
2
2
0
0
0
0
0
0
0
0
0
0
0
0
0
0
0
0
0
0
0
0
0
0
0
0
3
3
2
2
2
2
2
2
2
2
2
2
2
2
2
2
2
2
2
2
2
2
2
2
2
2
2
2
3
3
2
2
2
2
2
2
2
2
2
2
2
2
2
2
2
2
2
2
2
2
2
2
2
2
2
2
3
3
3
3
3
3
3
3
3
3
3
3
3
3
3
3
3
3
3
3
3
3
3
3
3
3
3
3
3
3
3
3
3
3
3
3
3
3
3
3
3
3
3
3
3
3
3
3
3
3
3
3
3
3
3
3
</DataArray>
<DataArray NumberOfComponents='1' type='Float32' Name='Velocity' format='ascii'>
0.000000
0.000000
0.000000
0.000000
0.000000
0.000000
0.000000
0.000000
0.000000
0.000000
0.000000
0.000000
0.000000
0.000000
0.000000
0.000000
0.000000
0.000000
0.000000
0.000000
0.000000
0.000000
0.000000
0.000000
0.000000
0.000000
0.000000
0.000000
0.000000
0.000000
0.000000
0.000000
0.000000
0.000000
0.000000
0.000000
0.000000
0.000000
0.000000
0.000000
0.000000
0.000000
0.000000
0.000000
0.000000
0.000000
0.000000
0.000000
0.000000
0.000000
0.000000
0.000000
0.000000
0.000000
0.000000
0.000000
0.000000
0.000000
0.000000
0.000000
0.000000
0.000000
0.000000
0.000000
0.000000
0.000000
0.000000
0.000000
0.000000
0.000000
0.000000
0.000000
0.000000
0.000000
0.000000
0.000000
0.000000
0.000000
0.000000
0.000000
0.000000
0.000000
0.000000
0.000000
0.000000
0.000000
0.000000
0.000000
0.000000
0.000000
0.000000
0.000000
0.000000
0.000000
0.000000
0.000000
0.000000
0.000000
0.000000
0.000000
0.000000
0.000000
0.000000
0.000000
0.000000
0.000000
0.000000
0.000000
0.000000
0.000000
0.000000
0.000000
0.000000
0.000000
0.000000
0.000000
0.040133
0.058749
0.101832
0.053179
0.119085
0.114468
0.073509
0.121563
0.072241
0.021111
0.161529
0.071971
0.175429
0.071379
0.108567
0.096700
0.060126
0.101674
0.083741
0.198819
0.647967
2.721923
7.431963
5.528771
1.000000
1.000000
1.000000
0.000000
0.000000
0.000000
0.000000
0.082211
0.116648
0.125716
0.104903
0.127435
0.107064
0.061454
0.173345
0.119003
0.103809
0.095983
0.064274
0.056072
0.189580
0.099754
0.204251
0.132144
0.309881
0.099054
0.164953
0.137022
0.477047
0.233362
2.324900
1.000000
1.000000
1.000000
0.000000
0.000000
0.000000
0.000000
0.082549
0.156416
0.045662
0.115770
0.125721
0.258812
0.159339
0.165882
0.142651
0.060588
0.190633
0.153793
0.203674
0.115482
0.106199
0.155763
0.152279
0.258795
0.144662
0.258720
0.224737
0.213997
0.351855
0.280457
1.000000
1.000000
1.000000
0.000000
0.000000
0.000000
0.000000
0.142017
0.056837
0.079188
0.212571
0.154815
0.046441
0.051869
0.096658
0.012171
0.150969
0.068944
0.105617
0.132246
0.114820
0.082805
0.188504
0.106737
0.046456
0.151674
0.052708
0.195701
0.489188
0.185330
2.756694
1.000000
1.000000
1.000000
0.000000
0.000000
0.000000
0.000000
0.186632
0.055116
0.171218
0.119612
0.073672
0.048149
0.119653
0.046915
0.016041
0.093867
0.160078
0.067005
0.129004
0.078571
0.123667
0.069653
0.054511
0.220926
0.339459
0.465841
0.218224
0.247622
0.246825
2.366666
1.000000
1.000000
1.000000
0.000000
0.000000
0.000000
0.000000
0.171354
0.099356
0.099967
0.081552
0.049103
0.014479
0.173272
0.127486
0.044376
0.165393
0.180573
0.069582
0.073037
0.235075
0.226210
0.146794
0.155982
0.106227
0.244532
0.038672
0.172976
0.293559
2.632728
5.291566
1.000000
1.000000
1.000000
0.000000
0.000000
0.000000
0.000000
0.125409
0.225352
0.061632
0.086450
0.013810
0.063601
0.138215
0.134132
0.050019
0.256376
0.116215
0.166831
0.161876
0.100059
0.215505
0.213073
0.145589
0.203928
0.221027
0.175504
0.072941
0.222734
0.302211
1.781392
1.000000
1.000000
1.000000
0.000000
0.000000
0.000000
0.000000
0.065031
0.122780
0.196428
0.137018
0.069154
0.040426
0.081340
0.120533
0.116247
0.059552
0.101575
0.199468
0.232201
0.135254
0.201972
0.178607
0.019676
0.100229
0.290928
0.077987
0.210995
0.051731
0.262709
3.153910
1.000000
1.000000
1.000000
0.000000
0.000000
0.000000
0.000000
0.095788
0.162851
0.077286
0.048751
0.041378
0.016741
0.185464
0.052717
0.154212
0.065768
0.037457
0.095254
0.179154
0.062929
0.099668
0.080645
0.053606
0.223894
0.011882
0.143488
0.047370
0.056265
0.278573
2.542427
1.000000
1.000000
1.000000
0.000000
0.000000
0.000000
0.000000
0.048556
0.132240
0.183336
0.118559
0.130774
0.067413
0.122612
0.111749
0.211671
0.027593
0.031411
0.071579
0.166201
0.107977
0.145376
0.058740
0.082533
0.132779
0.170043
0.118199
0.122503
0.051080
0.021440
3.253004
1.000000
1.000000
1.000000
0.000000
0.000000
0.000000
0.000000
0.088082
0.097939
0.093819
0.021494
0.118323
0.078593
0.046496
0.021507
0.088428
0.046896
0.176064
0.027561
0.062361
0.184118
0.081337
0.044927
0.027001
0.105726
0.073996
0.067242
0.173842
0.132962
0.176528
1.004714
1.000000
1.000000
1.000000
0.000000
0.000000
0.000000
0.000000
0.082943
0.065144
0.088446
0.030962
0.023074
0.124377
0.042475
0.110711
0.046083
0.080503
0.021262
0.101411
0.021759
0.066234
0.074026
0.088669
0.061197
0.088319
0.101700
0.027294
0.126649
0.085452
0.543685
1.455542
1.000000
1.000000
1.000000
0.000000
0.000000
0.000000
0.000000
0.052635
0.146258
0.031802
0.017618
0.034414
0.021735
0.024800
0.011112
0.047050
0.062150
0.050605
0.071076
0.087320
0.082526
0.090575
0.021331
0.044440
0.089777
0.177034
0.026993
0.024656
0.135733
0.159581
0.391407
1.000000
1.000000
1.000000
0.000000
0.000000
0.000000
0.000000
0.034626
0.126196
0.044628
0.069529
0.080903
0.148260
0.081935
0.023116
0.064415
0.028987
0.084482
0.033569
0.047511
0.119158
0.116816
0.045231
0.105810
0.104290
0.095245
0.078192
0.010143
0.236859
0.115977
0.755688
1.000000
1.000000
1.000000
0.000000
0.000000
0.000000
0.000000
0.021832
0.142186
0.036364
0.089409
0.043662
0.119440
0.034425
0.029827
0.061197
0.025743
0.032845
0.075186
0.060532
0.080856
0.045755
0.171523
0.068202
0.039125
0.176708
0.112139
0.126259
0.068416
0.678498
1.808553
1.000000
1.000000
1.000000
0.000000
0.000000
0.000000
0.000000
0.030774
0.140952
0.089863
0.098798
0.062129
0.068929
0.026256
0.056900
0.013170
0.079596
0.016082
0.035264
0.063179
0.180342
0.027871
0.133749
0.089927
0.172033
0.005936
0.128349
0.059922
0.281562
0.220849
1.331811
1.000000
1.000000
1.000000
0.000000
0.000000
0.000000
0.000000
0.021822
0.139613
0.065738
0.044384
0.080472
0.068235
0.017569
0.026602
0.057792
0.090353
0.048341
0.097510
0.081184
0.099930
0.324534
0.087705
0.071847
0.268769
0.138003
0.257524
0.091807
0.325218
0.284133
1.877850
0.000000
0.000000
0.000000
0.000000
0.094757
0.129153
0.085779
0.099559
0.080637
0.068988
0.078841
0.021983
0.092562
0.038414
0.058162
0.107930
0.079183
0.138347
0.057124
0.101756
0.135018
0.078191
0.172021
0.044475
0.271112
0.180090
0.413781
4.753286
0.000000
0.000000
0.000000
0.000000
0.012147
0.139082
0.077721
0.065838
0.141657
0.203752
0.022527
0.028038
0.054699
0.051789
0.071681
0.030159
0.068605
0.153194
0.221615
0.097365
0.204999
0.193651
0.079356
0.277003
0.306131
0.485342
0.400511
2.071630
0.000000
0.000000
0.000000
0.000000
0.101657
0.144230
0.056927
0.072321
0.076625
0.152988
0.110012
0.053685
0.050461
0.097088
0.101090
0.052628
0.069260
0.147913
0.052640
0.141753
0.008884
0.010738
0.110930
0.161204
0.057991
0.566383
0.605225
10.988431
0.000000
0.000000
0.000000
0.000000
0.062122
0.120754
0.025129
0.079582
0.099979
0.141161
0.079058
0.059284
0.107036
0.147358
0.132793
0.153163
0.079302
0.104893
0.037971
0.047181
0.159452
0.079627
0.080165
0.044273
0.122876
0.189637
0.034279
3.945618
0.000000
0.000000
0.000000
0.000000
0.066729
0.130790
0.008842
0.068494
0.076761
0.089528
0.019796
0.093928
0.081077
0.069701
0.041753
0.074679
0.039550
0.100648
0.165847
0.066850
0.078506
0.104933
0.132797
0.041674
0.127573
0.258681
0.265003
4.325315
0.000000
0.000000
0.000000
0.000000
0.052579
0.132726
0.057394
0.059986
0.090943
0.064817
0.069284
0.091712
0.075006
0.027666
0.097185
0.037082
0.159814
0.046886
0.032395
0.121474
0.082590
0.270178
0.093313
0.180443
0.054825
0.075452
1.612676
1.873689
0.000000
0.000000
0.000000
0.000000
0.025006
0.067032
0.040551
0.028983
0.072168
0.014226
0.094330
0.017868
0.074403
0.001139
0.083357
0.072284
0.106951
0.072598
0.114940
0.174802
0.164025
0.143229
0.081428
0.099225
0.028927
0.091908
0.071636
0.552482
0.000000
0.000000
0.000000
0.000000
0.066826
0.101714
0.047051
0.049877
0.040659
0.076521
0.126492
0.107765
0.080202
0.046108
0.019795
0.081557
0.075758
0.080006
0.010857
0.006202
0.059432
0.080849
0.143243
0.078916
0.042727
0.149354
0.155243
0.548047
0.000000
0.000000
0.000000
0.000000
0.065446
0.051773
0.048925
0.009506
0.024090
0.044208
0.061344
0.043265
0.045006
0.041683
0.072931
0.079383
0.048348
0.091014
0.030040
0.070101
0.052753
0.043185
0.028078
0.055891
0.101689
0.085171
0.042155
0.526380
0.000000
0.000000
0.000000
0.000000
0.073010
0.085741
0.080763
0.059487
0.067385
0.063535
0.094561
0.083327
0.059330
0.032221
0.034015
0.038587
0.038937
0.048883
0.044458
0.081297
0.045372
0.052412
0.131077
0.108338
0.096209
0.114051
0.031181
0.432496
0.000000
0.000000
0.000000
0.000000
0.089116
0.058704
0.041510
0.009891
0.032039
0.051967
0.038513
0.010863
0.050169
0.043320
0.060047
0.093518
0.052849
0.095204
0.031939
0.073584
0.034853
0.130855
0.011845
0.079649
0.075492
0.129757
0.106013
1.195189
0.000000
0.000000
0.000000
0.000000
0.056746
0.113199
0.052524
0.039800
0.102280
0.030749
0.051497
0.090902
0.063464
0.042034
0.037600
0.031516
0.080931
0.014098
0.048229
0.096180
0.040351
0.007026
0.034792
0.140021
0.041256
0.192697
0.166075
2.001418
0.000000
0.000000
0.000000
0.000000
0.050475
0.057137
0.009978
0.023069
0.045537
0.042781
0.024401
0.038679
0.012603
0.035469
0.034015
0.073917
0.040067
0.108671
0.008160
0.080861
0.093985
0.091810
0.014828
0.076172
0.056981
0.155204
0.032021
1.377211
0.000000
0.000000
0.000000
0.000000
0.046831
0.087678
0.045329
0.026582
0.051097
0.062936
0.060048
0.056331
0.071722
0.023756
0.040541
0.048233
0.055167
0.054786
0.084096
0.124769
0.040719
0.053437
0.081205
0.083320
0.072555
0.078422
0.209750
1.557120
0.000000
0.000000
0.000000
0.000000
0.049156
0.053793
0.039061
0.006386
0.041620
0.047425
0.015038
0.059520
0.044297
0.056860
0.068299
0.059063
0.039865
0.057805
0.014075
0.059043
0.088780
0.046647
0.079741
0.163586
0.047610
0.140308
0.055449
1.540395
0.000000
0.000000
0.000000
0.000000
0.051521
0.075514
0.083732
0.022590
0.056602
0.057850
0.094979
0.023947
0.082971
0.018690
0.047056
0.045301
0.041172
0.050101
0.066092
0.062734
0.070456
0.084268
0.063381
0.061958
0.046000
0.049747
0.134983
0.968469
0.000000
0.000000
0.000000
0.000000
0.062093
0.045045
0.046663
0.011191
0.065845
0.034398
0.034374
0.027646
0.062833
0.048409
0.075169
0.012356
0.028673
0.047908
0.029564
0.052321
0.071307
0.053315
0.061607
0.089972
0.103822
0.092606
0.154895
0.449689
0.000000
0.000000
0.000000
0.000000
0.047326
0.042571
0.081532
0.015591
0.075217
0.023678
0.086471
0.027366
0.079598
0.011110
0.088799
0.015424
0.062476
0.039696
0.043325
0.079389
0.076184
0.123042
0.067011
0.119894
0.078166
0.056018
0.019344
0.158787
0.000000
0.000000
0.000000
0.000000
0.091906
0.012333
0.066351
0.028607
0.067343
0.031167
0.038554
0.019181
0.070101
0.026538
0.045519
0.039573
0.058253
0.036485
0.041659
0.086524
0.070945
0.149646
0.128669
0.091145
0.073936
0.110848
0.057000
0.198971
0.000000
0.000000
0.000000
0.000000
0.052700
0.021139
0.078507
0.029867
0.075424
0.010005
0.054678
0.026472
0.069407
0.028145
0.067763
0.007984
0.045651
0.030005
0.072844
0.036515
0.110850
0.046912
0.119674
0.119960
0.068018
0.153748
0.052290
0.420207
0.000000
0.000000
0.000000
0.000000
0.102312
0.016504
0.079925
0.033246
0.073115
0.031720
0.048829
0.029911
0.057431
0.037873
0.054048
0.047489
0.064433
0.022181
0.052469
0.050769
0.042153
0.046466
0.048255
0.069118
0.064867
0.145080
0.073528
1.566589
0.000000
0.000000
0.000000
0.000000
0.053511
0.001582
0.073561
0.033837
0.075048
0.054321
0.047475
0.040341
0.060939
0.044361
0.035323
0.010192
0.028547
0.030900
0.046100
0.059866
0.032248
0.107808
0.111298
0.171397
0.205513
0.207945
0.148903
2.282258
0.000000
0.000000
0.000000
0.000000
0.102868
0.013022
0.080315
0.008703
0.083896
0.034712
0.078824
0.049548
0.073075
0.033486
0.058196
0.048425
0.030827
0.053362
0.012547
0.083733
0.031485
0.121969
0.055666
0.126663
0.176186
0.358982
0.183519
2.292205
0.000000
0.000000
0.000000
0.000000
0.063220
0.010751
0.080874
0.013525
0.057297
0.065099
0.053043
0.038222
0.059971
0.064615
0.036448
0.019597
0.038215
0.040043
0.030352
0.088528
0.007124
0.104329
0.084221
0.155071
0.060905
0.313905
0.376352
3.437360
0.000000
0.000000
0.000000
0.000000
0.095549
0.021502
0.082895
0.017923
0.051779
0.047446
0.085195
0.053648
0.079969
0.037025
0.079169
0.018746
0.051865
0.040949
0.015169
0.091146
0.032856
0.096516
0.045982
0.083509
0.143031
0.100088
0.603646
3.547108
0.000000
0.000000
0.000000
0.000000
0.061045
0.006353
0.068429
0.015836
0.007428
0.072473
0.055479
0.063777
0.071058
0.085270
0.065254
0.063097
0.086667
0.054914
0.056360
0.071464
0.020954
0.108906
0.049393
0.051991
0.047744
0.189723
0.174700
5.397225
0.000000
0.000000
0.000000
0.000000
0.069868
0.017247
0.074288
0.004590
0.018083
0.074778
0.098471
0.069049
0.081729
0.054311
0.092512
0.039088
0.068216
0.034513
0.040319
0.077462
0.060319
0.073333
0.068150
0.039366
0.021664
0.035368
0.202076
4.469437
0.000000
0.000000
0.000000
0.000000
0.062912
0.010952
0.058375
0.037486
0.046988
0.067760
0.062560
0.073377
0.085990
0.077273
0.079034
0.085544
0.102588
0.105693
0.096293
0.087388
0.077383
0.056558
0.053529
0.091104
0.107434
0.088832
0.223563
4.421296
0.000000
0.000000
0.000000
0.000000
0.046564
0.015851
0.053156
0.009403
0.062068
0.067365
0.077005
0.052930
0.054826
0.039827
0.076738
0.023476
0.086575
0.058851
0.035975
0.096751
0.072722
0.050213
0.100712
0.108219
0.067916
0.039373
0.102208
4.508178
0.000000
0.000000
0.000000
0.000000
0.059467
0.012958
0.042529
0.029733
0.084804
0.062409
0.069340
0.075519
0.089791
0.069597
0.070917
0.059320
0.076243
0.051918
0.140054
0.080323
0.168788
0.081583
0.031233
0.019914
0.071722
0.226731
0.079506
4.396105
0.000000
0.000000
0.000000
0.000000
0.037800
0.011299
0.023960
0.023178
0.086446
0.053458
0.073011
0.047574
0.066131
0.055990
0.099790
0.090812
0.116988
0.138997
0.143090
0.199415
0.152371
0.158088
0.124807
0.137382
0.154695
0.032004
0.201909
4.563868
0.000000
0.000000
0.000000
0.000000
0.047756
0.019055
0.024524
0.010731
0.094788
0.066092
0.068970
0.071428
0.112858
0.060948
0.115566
0.030140
0.135478
0.063670
0.177571
0.057233
0.113834
0.077807
0.179337
0.135960
0.203768
0.215546
0.151141
4.338474
0.000000
0.000000
0.000000
0.000000
0.046501
0.011584
0.012679
0.031773
0.104887
0.039020
0.061983
0.057997
0.094653
0.095151
0.134824
0.139817
0.216422
0.237181
0.100112
0.220790
0.063909
0.263433
0.089856
0.308673
0.144754
0.106097
0.420482
5.443697
0.000000
0.000000
0.000000
0.000000
0.039815
0.031305
0.015886
0.009889
0.099854
0.039217
0.053421
0.047607
0.134492
0.030830
0.174545
0.045080
0.158988
0.016422
0.071130
0.031026
0.110331
0.189063
0.157272
0.231969
0.168150
0.360295
0.379932
5.030927
0.000000
0.000000
0.000000
0.000000
0.047574
0.027000
0.018711
0.030802
0.094266
0.062743
0.046929
0.072017
0.115383
0.126202
0.166718
0.180577
0.158687
0.173260
0.103760
0.154674
0.190043
0.212801
0.126256
0.316902
0.263313
0.266801
0.363833
7.193154
0.000000
0.000000
0.000000
0.000000
0.032785
0.037213
0.013900
0.016717
0.088269
0.022031
0.029054
0.037979
0.148560
0.022387
0.165903
0.034158
0.058178
0.020623
0.123563
0.074175
0.078348
0.104894
0.066935
0.201847
0.099944
0.439815