<?xml version='1.0' encoding='UTF-8'?>
<VTKFile xmlns='VTK' byte_order='LittleEndian' version='0.1' type='UnstructuredGrid'>
<UnstructuredGrid>
<Piece NumberOfCells='2512' NumberOfPoints='2512'>
<Points>
<DataArray NumberOfComponents='3' type='Float32' Name='Position' format='ascii'>
-0.075000 -0.075000 0.000000
-0.075000 -0.050000 0.000000
-0.075000 -0.025000 0.000000
-0.075000 0.000000 0.000000
-0.075000 0.025000 0.000000
-0.075000 0.050000 0.000000
-0.075000 0.075000 0.000000
-0.075000 0.100000 0.000000
-0.075000 0.125000 0.000000
-0.075000 0.150000 0.000000
-0.075000 0.175000 0.000000
-0.075000 0.200000 0.000000
-0.075000 0.225000 0.000000
-0.075000 0.250000 0.000000
-0.075000 0.275000 0.000000
-0.075000 0.300000 0.000000
-0.075000 0.325000 0.000000
-0.075000 0.350000 0.000000
-0.075000 0.375000 0.000000
-0.075000 0.400000 0.000000
-0.075000 0.425000 0.000000
-0.075000 0.450000 0.000000
-0.075000 0.475000 0.000000
-0.075000 0.500000 0.000000
-0.075000 0.525000 0.000000
-0.075000 0.550000 0.000000
-0.075000 0.575000 0.000000
-0.075000 0.600000 0.000000
-0.050000 -0.075000 0.000000
-0.050000 -0.050000 0.000000
-0.050000 -0.025000 0.000000
-0.050000 0.000000 0.000000
-0.050000 0.025000 0.000000
-0.050000 0.050000 0.000000
-0.050000 0.075000 0.000000
-0.050000 0.100000 0.000000
-0.050000 0.125000 0.000000
-0.050000 0.150000 0.000000
-0.050000 0.175000 0.000000
-0.050000 0.200000 0.000000
-0.050000 0.225000 0.000000
-0.050000 0.250000 0.000000
-0.050000 0.275000 0.000000
-0.050000 0.300000 0.000000
-0.050000 0.325000 0.000000
-0.050000 0.350000 0.000000
-0.050000 0.375000 0.000000
-0.050000 0.400000 0.000000
-0.050000 0.425000 0.000000
-0.050000 0.450000 0.000000
-0.050000 0.475000 0.000000
-0.050000 0.500000 0.000000
-0.050000 0.525000 0.000000
-0.050000 0.550000 0.000000
-0.050000 0.575000 0.000000
-0.050000 0.600000 0.000000
-0.025000 -0.075000 0.000000
-0.025000 -0.050000 0.000000
-0.025000 -0.025000 0.000000
-0.025000 0.000000 0.000000
-0.025000 0.025000 0.000000
-0.025000 0.050000 0.000000
-0.025000 0.075000 0.000000
-0.025000 0.100000 0.000000
-0.025000 0.125000 0.000000
-0.025000 0.150000 0.000000
-0.025000 0.175000 0.000000
-0.025000 0.200000 0.000000
-0.025000 0.225000 0.000000
-0.025000 0.250000 0.000000
-0.025000 0.275000 0.000000
-0.025000 0.300000 0.000000
-0.025000 0.325000 0.000000
-0.025000 0.350000 0.000000
-0.025000 0.375000 0.000000
-0.025000 0.400000 0.000000
-0.025000 0.425000 0.000000
-0.025000 0.450000 0.000000
-0.025000 0.475000 0.000000
-0.025000 0.500000 0.000000
-0.025000 0.525000 0.000000
-0.025000 0.550000 0.000000
-0.025000 0.575000 0.000000
-0.025000 0.600000 0.000000
0.000000 -0.075000 0.000000
0.000000 -0.050000 0.000000
0.000000 -0.025000 0.000000
0.000000 0.000000 0.000000
0.000000 0.025000 0.000000
0.000000 0.050000 0.000000
0.000000 0.075000 0.000000
0.000000 0.100000 0.000000
0.000000 0.125000 0.000000
0.000000 0.150000 0.000000
0.000000 0.175000 0.000000
0.000000 0.200000 0.000000
0.000000 0.225000 0.000000
0.000000 0.250000 0.000000
0.000000 0.275000 0.000000
0.000000 0.300000 0.000000
0.000000 0.325000 0.000000
0.000000 0.350000 0.000000
0.000000 0.375000 0.000000
0.000000 0.400000 0.000000
0.000000 0.425000 0.000000
0.000000 0.450000 0.000000
0.000000 0.475000 0.000000
0.000000 0.500000 0.000000
0.000000 0.525000 0.000000
0.000000 0.550000 0.000000
0.000000 0.575000 0.000000
0.000000 0.600000 0.000000
0.025000 -0.075000 0.000000
0.025000 -0.050000 0.000000
0.025000 -0.025000 0.000000
0.025000 0.000000 0.000000
0.024221 0.024783 0.000000
0.024776 0.054125 0.000000
0.025236 0.081571 0.000000
0.021752 0.111498 0.000000
0.029672 0.164973 0.000000
0.022664 0.185731 0.000000
0.026949 0.210705 0.000000
0.026334 0.233974 0.000000
0.022021 0.262255 0.000000
0.024229 0.290199 0.000000
0.023972 0.321096 0.000000
0.024224 0.346024 0.000000
0.026130 0.369695 0.000000
0.026530 0.392484 0.000000
0.023178 0.418209 0.000000
0.025342 0.441894 0.000000
0.023720 0.472522 0.000000
0.025363 0.497233 0.000000
0.033577 0.517781 0.000000
0.039253 0.555545 0.000000
0.024014 0.572336 0.000000
0.033249 0.600000 0.000000
0.050741 0.600000 0.000000
0.015156 0.600000 0.000000
0.985000 0.625000 0.000000
0.985000 0.650000 0.000000
0.985000 0.675000 0.000000
0.050000 -0.075000 0.000000
0.050000 -0.050000 0.000000
0.050000 -0.025000 0.000000
0.050000 0.000000 0.000000
0.046335 0.027478 0.000000
0.042916 0.062155 0.000000
0.042931 0.094445 0.000000
0.025650 0.142812 0.000000
0.058543 0.172680 0.000000
0.053116 0.193690 0.000000
0.050941 0.218888 0.000000
0.044648 0.248743 0.000000
0.043974 0.285318 0.000000
0.047212 0.312140 0.000000
0.052050 0.335203 0.000000
0.052065 0.359485 0.000000
0.054622 0.384012 0.000000
0.049491 0.406043 0.000000
0.053470 0.432841 0.000000
0.043850 0.456466 0.000000
0.049595 0.482564 0.000000
0.060183 0.504981 0.000000
0.055991 0.528621 0.000000
0.069765 0.546346 0.000000
0.021498 0.538364 0.000000
0.081995 0.569320 0.000000
0.117613 0.570823 0.000000
0.067906 0.600000 0.000000
1.010000 0.625000 0.000000
1.010000 0.650000 0.000000
1.010000 0.675000 0.000000
0.075000 -0.075000 0.000000
0.075000 -0.050000 0.000000
0.075000 -0.025000 0.000000
0.075000 0.000000 0.000000
0.091693 0.051401 0.000000
0.069351 0.024152 0.000000
0.041430 0.128332 0.000000
0.059702 0.149486 0.000000
0.081339 0.161803 0.000000
0.091228 0.184649 0.000000
0.073240 0.204986 0.000000
0.067323 0.238717 0.000000
0.059647 0.268919 0.000000
0.080385 0.277676 0.000000
0.070053 0.308359 0.000000
0.074411 0.338444 0.000000
0.077723 0.366854 0.000000
0.081123 0.390547 0.000000
0.071841 0.416383 0.000000
0.090477 0.440830 0.000000
0.069279 0.450375 0.000000
0.091916 0.468777 0.000000
0.072395 0.481239 0.000000
0.085931 0.528338 0.000000
0.099079 0.555182 0.000000
0.056989 0.570475 0.000000
0.085085 0.600000 0.000000
0.102148 0.600000 0.000000
1.035000 0.625000 0.000000
1.035000 0.650000 0.000000
1.035000 0.675000 0.000000
0.100000 -0.075000 0.000000
0.100000 -0.050000 0.000000
0.100000 -0.025000 0.000000
0.100000 0.000000 0.000000
0.096691 0.027028 0.000000
0.065998 0.048007 0.000000
0.059887 0.105086 0.000000
0.069411 0.128193 0.000000
0.102908 0.151378 0.000000
0.113229 0.181026 0.000000
0.103482 0.208102 0.000000
0.090877 0.254682 0.000000
0.104020 0.276560 0.000000
0.090311 0.301900 0.000000
0.097388 0.329620 0.000000
0.099540 0.353091 0.000000
0.104624 0.378985 0.000000
0.115475 0.397371 0.000000
0.096555 0.412923 0.000000
0.112521 0.433964 0.000000
0.115859 0.461635 0.000000
0.105857 0.487763 0.000000
0.130736 0.491827 0.000000
0.087473 0.506328 0.000000
0.114445 0.536969 0.000000
0.134964 0.552464 0.000000
0.146264 0.575184 0.000000
0.119253 0.600000 0.000000
1.060000 0.625000 0.000000
1.060000 0.650000 0.000000
1.060000 0.675000 0.000000
0.125000 -0.075000 0.000000
0.125000 -0.050000 0.000000
0.125000 -0.025000 0.000000
0.125000 0.000000 0.000000
0.117330 0.024242 0.000000
0.113145 0.060377 0.000000
0.072248 0.069088 0.000000
0.095137 0.107933 0.000000
0.093985 0.128827 0.000000
0.120976 0.138091 0.000000
0.126552 0.212183 0.000000
0.087299 0.226448 0.000000
0.111251 0.236350 0.000000
0.119914 0.261430 0.000000
0.114673 0.309712 0.000000
0.149543 0.307596 0.000000
0.122781 0.335187 0.000000
0.125903 0.360663 0.000000
0.141153 0.376330 0.000000
0.129702 0.416549 0.000000
0.156019 0.414162 0.000000
0.137698 0.460509 0.000000
0.157884 0.476134 0.000000
0.137434 0.524979 0.000000
0.161222 0.552670 0.000000
0.154367 0.600000 0.000000
0.201579 0.575986 0.000000
0.137276 0.600000 0.000000
1.085000 0.625000 0.000000
1.085000 0.650000 0.000000
1.085000 0.675000 0.000000
0.150000 -0.075000 0.000000
0.150000 -0.050000 0.000000
0.150000 -0.025000 0.000000
0.150000 0.000000 0.000000
0.154170 0.023979 0.000000
0.135031 0.038953 0.000000
0.081846 0.088858 0.000000
0.139734 0.081682 0.000000
0.121315 0.099092 0.000000
0.134353 0.156858 0.000000
0.134702 0.183843 0.000000
0.148969 0.207684 0.000000
0.135656 0.241390 0.000000
0.154419 0.256372 0.000000
0.130193 0.293240 0.000000
0.169707 0.317842 0.000000
0.145844 0.332380 0.000000
0.154619 0.355896 0.000000
0.156058 0.392929 0.000000
0.164982 0.448136 0.000000
0.143021 0.437620 0.000000
0.176503 0.493368 0.000000
0.115281 0.511949 0.000000
0.152134 0.501370 0.000000
0.161027 0.526707 0.000000
0.176888 0.571292 0.000000
0.188979 0.600000 0.000000
0.171629 0.600000 0.000000
1.110000 0.625000 0.000000
1.110000 0.650000 0.000000
1.110000 0.675000 0.000000
0.175000 -0.075000 0.000000
0.175000 -0.050000 0.000000
0.175000 -0.025000 0.000000
0.175000 0.000000 0.000000
0.181052 0.024182 0.000000
0.164389 0.045448 0.000000
0.107343 0.080489 0.000000
0.152172 0.108266 0.000000
0.135414 0.118601 0.000000
0.165609 0.135036 0.000000
0.152677 0.160956 0.000000
0.162518 0.191573 0.000000
0.177605 0.219863 0.000000
0.159034 0.235375 0.000000
0.146720 0.279833 0.000000
0.204933 0.339009 0.000000
0.174159 0.343538 0.000000
0.191387 0.359459 0.000000
0.176267 0.378120 0.000000
0.179106 0.420635 0.000000
0.180515 0.466158 0.000000
0.200969 0.500622 0.000000
0.184324 0.518016 0.000000
0.206637 0.531578 0.000000
0.184034 0.545056 0.000000
0.211020 0.554904 0.000000
0.230684 0.574071 0.000000
0.206983 0.600000 0.000000
1.135000 0.625000 0.000000
1.135000 0.650000 0.000000
1.135000 0.675000 0.000000
0.200000 -0.075000 0.000000
0.200000 -0.050000 0.000000
0.200000 -0.025000 0.000000
0.200000 0.000000 0.000000
0.208195 0.024505 0.000000
0.172606 0.068801 0.000000
0.144208 0.061764 0.000000
0.171160 0.092527 0.000000
0.186484 0.143172 0.000000
0.178145 0.164917 0.000000
0.186860 0.189734 0.000000
0.191696 0.233060 0.000000
0.203998 0.204052 0.000000
0.173700 0.275205 0.000000
0.181959 0.295125 0.000000
0.196625 0.316420 0.000000
0.227803 0.349676 0.000000
0.211974 0.375238 0.000000
0.189827 0.395938 0.000000
0.201994 0.418868 0.000000
0.192994 0.445475 0.000000
0.209580 0.463562 0.000000
0.226614 0.510665 0.000000
0.250045 0.511991 0.000000
0.231777 0.536839 0.000000
0.246729 0.554461 0.000000
[...]
<PointData>
<DataArray NumberOfComponents='1' type='Int32' Name='ParticleType' format='ascii'>
3
3
3
3
3
3
3
3
3
3
3
3
3
3
3
3
3
3
3
3
3
3
3
3
3
3
3
3
3
3
3
3
3
3
3
3
3
3
3
3
3
3
3
3
3
3
3
3
3
3
3
3
3
3
3
3
3
3
2
2
2
2
2
2
2
2
2
2
2
2
2
2
2
2
2
2
2
2
2
2
2
2
2
2
3
3
2
2
2
2
2
2
2
2
2
2
2
2
2
2
2
2
2
2
2
2
2
2
2
2
2
2
3
3
2
2
0
0
0
0
0
0
0
0
0
0
0
0
0
0
0
0
0
0
0
0
0
0
0
0
1
1
1
3
3
2
2
0
0
0
0
0
0
0
0
0
0
0
0
0
0
0
0
0
0
0
0
0
0
0
0
1
1
1
3
3
2
2
0
0
0
0
0
0
0
0
0
0
0
0
0
0
0
0
0
0
0
0
0
0
0
0
1
1
1
3
3
2
2
0
0
0
0
0
0
0
0
0
0
0
0
0
0
0
0
0
0
0
0
0
0
0
0
1
1
1
3
3
2
2
0
0
0
0
0
0
0
0
0
0
0
0
0
0
0
0
0
0
0
0
0
0
0
0
1
1
1
3
3
2
2
0
0
0
0
0
0
0
0
0
0
0
0
0
0
0
0
0
0
0
0
0
0
0
0
1
1
1
3
3
2
2
0
0
0
0
0
0
0
0
0
0
0
0
0
0
0
0
0
0
0
0
0
0
0
0
1
1
1
3
3
2
2
0
0
0
0
0
0
0
0
0
0
0
0
0
0
0
0
0
0
0
0
0
0
0
0
1
1
1
3
3
2
2
0
0
0
0
0
0
0
0
0
0
0
0
0
0
0
0
0
0
0
0
0
0
0
0
1
1
1
3
3
2
2
0
0
0
0
0
0
0
0
0
0
0
0
0
0
0
0
0
0
0
0
0
0
0
0
1
1
1
3
3
2
2
0
0
0
0
0
0
0
0
0
0
0
0
0
0
0
0
0
0
0
0
0
0
0
0
1
1
1
3
3
2
2
0
0
0
0
0
0
0
0
0
0
0
0
0
0
0
0
0
0
0
0
0
0
0
0
1
1
1
3
3
2
2
0
0
0
0
0
0
0
0
0
0
0
0
0
0
0
0
0
0
0
0
0
0
0
0
1
1
1
3
3
2
2
0
0
0
0
0
0
0
0
0
0
0
0
0
0
0
0
0
0
0
0
0
0
0
0
1
1
1
3
3
2
2
0
0
0
0
0
0
0
0
0
0
0
0
0
0
0
0
0
0
0
0
0
0
0
0
1
1
1
3
3
2
2
0
0
0
0
0
0
0
0
0
0
0
0
0
0
0
0
0
0
0
0
0
0
0
0
1
1
1
3
3
2
2
0
0
0
0
0
0
0
0
0
0
0
0
0
0
0
0
0
0
0
0
0
0
0
0
3
3
2
2
0
0
0
0
0
0
0
0
0
0
0
0
0
0
0
0
0
0
0
0
0
0
0
0
3
3
2
2
0
0
0
0
0
0
0
0
0
0
0
0
0
0
0
0
0
0
0
0
0
0
0
0
3
3
2
2
0
0
0
0
0
0
0
0
0
0
0
0
0
0
0
0
0
0
0
0
0
0
0
0
3
3
2
2
0
0
0
0
0
0
0
0
0
0
0
0
0
0
0
0
0
0
0
0
0
0
0
0
3
3
2
2
0
0
0
0
0
0
0
0
0
0
0
0
0
0
0
0
0
0
0
0
0
0
0
0
3
3
2
2
0
0
0
0
0
0
0
0
0
0
0
0
0
0
0
0
0
0
0
0
0
0
0
0
3
3
2
2
0
0
0
0
0
0
0
0
0
0
0
0
0
0
0
0
0
0
0
0
0
0
0
0
3
3
2
2
0
0
0
0
0
0
0
0
0
0
0
0
0
0
0
0
0
0
0
0
0
0
0
0
3
3
2
2
0
0
0
0
0
0
0
0
0
0
0
0
0
0
0
0
0
0
0
0
0
0
0
0
3
3
2
2
0
0
0
0
0
0
0
0
0
0
0
0
0
0
0
0
0
0
0
0
0
0
0
0
3
3
2
2
0
0
0
0
0
0
0
0
0
0
0
0
0
0
0
0
0
0
0
0
0
0
0
0
3
3
2
2
0
0
0
0
0
0
0
0
0
0
0
0
0
0
0
0
0
0
0
0
0
0
0
0
3
3
2
2
0
0
0
0
0
0
0
0
0
0
0
0
0
0
0
0
0
0
0
0
0
0
0
0
3
3
2
2
0
0
0
0
0
0
0
0
0
0
0
0
0
0
0
0
0
0
0
0
0
0
0
0
3
3
2
2
0
0
0
0
0
0
0
0
0
0
0
0
0
0
0
0
0
0
0
0
0
0
0
0
3
3
2
2
0
0
0
0
0
0
0
0
0
0
0
0
0
0
0
0
0
0
0
0
0
0
0
0
3
3
2
2
0
0
0
0
0
0
0
0
0
0
0
0
0
0
0
0
0
0
0
0
0
0
0
0
3
3
2
2
0
0
0
0
0
0
0
0
0
0
0
0
0
0
0
0
0
0
0
0
0
0
0
0
3
3
2
2
0
0
0
0
0
0
0
0
0
0
0
0
0
0
0
0
0
0
0
0
0
0
0
0
3
3
2
2
0
0
0
0
0
0
0
0
0
0
0
0
0
0
0
0
0
0
0
0
0
0
0
0
3
3
2
2
0
0
0
0
0
0
0
0
0
0
0
0
0
0
0
0
0
0
0
0
0
0
0
0
3
3
2
2
0
0
0
0
0
0
0
0
0
0
0
0
0
0
0
0
0
0
0
0
0
0
0
0
3
3
2
2
0
0
0
0
0
0
0
0
0
0
0
0
0
0
0
0
0
0
0
0
0
0
0
0
3
3
2
2
0
0
0
0
0
0
0
0
0
0
0
0
0
0
0
0
0
0
0
0
0
0
0
0
3
3
2
2
0
0
0
0
0
0
0
0
0
0
0
0
0
0
0
0
0
0
0
0
0
0
0
0
3
3
2
2
0
0
0
0
0
0
0
0
0
0
0
0
0
0
0
0
0
0
0
0
0
0
0
0
3
3
2
2
0
0
0
0
0
0
0
0
0
0
0
0
0
0
0
0
0
0
0
0
0
0
0
0
3
3
2
2
0
0
0
0
0
0
0
0
0
0
0
0
0
0
0
0
0
0
0
0
0
0
0
0
3
3
2
2
0
0
0
0
0
0
0
0
0
0
0
0
0
0
0
0
0
0
0
0
0
0
0
0
3
3
2
2
0
0
0
0
0
0
0
0
0
0
0
0
0
0
0
0
0
0
0
0
0
0
0
0
3
3
2
2
0
0
0
0
0
0
0
0
0
0
0
0
0
0
0
0
0
0
0
0
0
0
0
0
3
3
2
2
0
0
0
0
0
0
0
0
0
0
0
0
0
0
0
0
0
0
0
0
0
0
0
0
3
3
2
2
0
0
0
0
0
0
0
0
0
0
0
0
0
0
0
0
0
0
0
0
0
0
0
0
3
3
2
2
0
0
0
0
0
0
0
0
0
0
0
0
0
0
0
0
0
0
0
0
0
0
0
0
3
3
2
2
0
0
0
0
0
0
0
0
0
0
0
0
0
0
0
0
0
0
0
0
0
0
0
0
3
3
2
2
0
0
0
0
0
0
0
0
0
0
0
0
0
0
0
0
0
0
0
0
0
0
0
0
3
3
2
2
0
0
0
0
0
0
0
0
0
0
0
0
0
0
0
0
0
0
0
0
0
0
0
0
3
3
2
2
0
0
0
0
0
0
0
0
0
0
0
0
0
0
0
0
0
0
0
0
0
0
0
0
3
3
2
2
0
0
0
0
0
0
0
0
0
0
0
0
0
0
0
0
0
0
0
0
0
0
0
0
3
3
2
2
0
0
0
0
0
0
0
0
0
0
0
0
0
0
0
0
0
0
0
0
0
0
0
0
3
3
2
2
0
0
0
0
0
0
0
0
0
0
0
0
0
0
0
0
0
0
0
0
0
0
0
0
3
3
2
2
0
0
0
0
0
0
0
0
0
0
0
0
0
0
0
0
0
0
0
0
0
0
0
0
3
3
2
2
0
0
0
0
0
0
0
0
0
0
0
0
0
0
0
0
0
0
0
0
0
0
0
0
3
3
2
2
0
0
0
0
0
0
0
0
0
0
0
0
0
0
0
0
0
0
0
0
0
0
0
0
3
3
2
2
0
0
0
0
0
0
0
0
0
0
0
0
0
0
0
0
0
0
0
0
0
0
0
0
3
3
2
2
0
0
0
0
0
0
0
0
0
0
0
0
0
0
0
0
0
0
0
0
0
0
0
0
3
3
2
2
0
0
0
0
0
0
0
0
0
0
0
0
0
0
0
0
0
0
0
0
0
0
0
0
3
3
2
2
0
0
0
0
0
0
0
0
0
0
0
0
0
0
0
0
0
0
0
0
0
0
0
0
3
3
2
2
0
0
0
0
0
0
0
0
0
0
0
0
0
0
0
0
0
0
0
0
0
0
0
0
3
3
2
2
0
0
0
0
0
0
0
0
0
0
0
0
0
0
0
0
0
0
0
0
0
0
0
0
3
3
2
2
0
0
0
0
0
0
0
0
0
0
0
0
0
0
0
0
0
0
0
0
0
0
0
0
3
3
2
2
0
0
0
0
0
0
0
0
0
0
0
0
0
0
0
0
0
0
0
0
0
0
0
0
3
3
2
2
0
0
0
0
0
0
0
0
0
0
0
0
0
0
0
0
0
0
0
0
0
0
0
0
3
3
2
2
0
0
0
0
0
0
0
0
0
0
0
0
0
0
0
0
0
0
0
0
0
0
0
0
3
3
2
2
0
0
0
0
0
0
0
0
0
0
0
0
0
0
0
0
0
0
0
0
0
0
0
0
3
3
2
2
0
0
0
0
0
0
0
0
0
0
0
0
0
0
0
0
0
0
0
0
0
0
0
0
3
3
2
2
0
0
0
0
0
0
0
0
0
0
0
0
0
0
0
0
0
0
0
0
0
0
0
0
3
3
2
2
0
0
0
0
0
0
0
0
0
0
0
0
0
0
0
0
0
0
0
0
0
0
0
0
3
3
2
2
0
0
0
0
0
0
0
0
0
0
0
0
0
0
0
0
0
0
0
0
0
0
0
0
3
3
2
2
0
0
0
0
0
0
0
0
0
0
0
0
0
0
0
0
0
0
0
0
0
0
0
0
3
3
2
2
0
0
0
0
0
0
0
0
0
0
0
0
0
0
0
0
0
0
0
0
0
0
0
0
3
3
2
2
0
0
0
0
0
0
0
0
0
0
0
0
0
0
0
0
0
0
0
0
0
0
0
0
3
3
2
2
0
0
0
0
0
0
0
0
0
0
0
0
0
0
0
0
0
0
0
0
0
0
0
0
3
3
2
2
2
2
2
2
2
2
2
2
2
2
2
2
2
2
2
2
2
2
2
2
2
2
2
2
3
3
2
2
2
2
2
2
2
2
2
2
2
2
2
2
2
2
2
2
2
2
2
2
2
2
2
2
3
3
3
3
3
3
3
3
3
3
3
3
3
3
3
3
3
3
3
3
3
3
3
3
3
3
3
3
3
3
3
3
3
3
3
3
3
3
3
3
3
3
3
3
3
3
3
3
3
3
3
3
3
3
3
3
</DataArray>
<DataArray NumberOfComponents='1' type='Float32' Name='Velocity' format='ascii'>
0.000000
0.000000
0.000000
0.000000
0.000000
0.000000
0.000000
0.000000
0.000000
0.000000
0.000000
0.000000
0.000000
0.000000
0.000000
0.000000
0.000000
0.000000
0.000000
0.000000
0.000000
0.000000
0.000000
0.000000
0.000000
0.000000
0.000000
0.000000
0.000000
0.000000
0.000000
0.000000
0.000000
0.000000
0.000000
0.000000
0.000000
0.000000
0.000000
0.000000
0.000000
0.000000
0.000000
0.000000
0.000000
0.000000
0.000000
0.000000
0.000000
0.000000
0.000000
0.000000
0.000000
0.000000
0.000000
0.000000
0.000000
0.000000
0.000000
0.000000
0.000000
0.000000
0.000000
0.000000
0.000000
0.000000
0.000000
0.000000
0.000000
0.000000
0.000000
0.000000
0.000000
0.000000
0.000000
0.000000
0.000000
0.000000
0.000000
0.000000
0.000000
0.000000
0.000000
0.000000
0.000000
0.000000
0.000000
0.000000
0.000000
0.000000
0.000000
0.000000
0.000000
0.000000
0.000000
0.000000
0.000000
0.000000
0.000000
0.000000
0.000000
0.000000
0.000000
0.000000
0.000000
0.000000
0.000000
0.000000
0.000000
0.000000
0.000000
0.000000
0.000000
0.000000
0.000000
0.000000
0.026117
0.212443
0.338734
0.176063
0.053904
0.446169
0.308810
0.443641
0.074623
0.165399
0.095891
0.328507
0.213751
0.220645
0.297155
0.336144
0.394840
0.289217
0.199869
0.162960
0.665676
136.322983
109.242653
153.267151
1.000000
1.000000
1.000000
0.000000
0.000000
0.000000
0.000000
0.152442
0.089052
0.074261
0.077039
0.308062
0.328810
0.274283
0.399373
0.178658
0.378631
0.163149
0.385028
0.463843
0.258074
0.113983
0.331543
0.305701
0.495151
0.342989
0.414553
0.037912
0.410418
0.193107
101.237816
1.000000
1.000000
1.000000
0.000000
0.000000
0.000000
0.000000
0.245028
0.077999
0.216983
0.428205
0.113972
0.065828
0.153234
0.107888
0.362881
0.170950
0.071288
0.294749
0.368863
0.325097
0.407925
0.222965
0.422893
0.335285
0.124749
0.350781
0.263095
0.114883
86.646683
89.944633
1.000000
1.000000
1.000000
0.000000
0.000000
0.000000
0.000000
0.034233
0.076739
0.131064
0.221491
0.312952
0.156169
0.377252
0.091131
0.237606
0.469213
0.383418
0.303393
0.143878
0.242059
0.269412
0.406633
0.064971
0.328183
0.271251
0.202760
0.236615
0.369790
0.512697
97.480560
1.000000
1.000000
1.000000
0.000000
0.000000
0.000000
0.000000
0.167968
0.194383
0.220332
0.235542
0.253339
0.251034
0.074796
0.041638
0.149777
0.185406
0.174689
0.196400
0.055802
0.222739
0.230826
0.228746
0.228389
0.188051
0.596276
0.285475
0.312783
80.795769
0.693246
99.515991
1.000000
1.000000
1.000000
0.000000
0.000000
0.000000
0.000000
0.099494
0.155557
0.108235
0.095061
0.142715
0.321771
0.368759
0.041626
0.205160
0.133760
0.145587
0.384501
0.283213
0.347367
0.249210
0.162448
0.227001
0.507137
0.361683
0.128280
0.489540
0.442878
103.824921
95.745430
1.000000
1.000000
1.000000
0.000000
0.000000
0.000000
0.000000
0.082310
0.145936
0.178276
0.236547
0.169005
0.382581
0.116067
0.227305
0.283805
0.115392
0.176299
0.184832
0.254002
0.059284
0.305487
0.338350
0.367339
0.627005
1.099085
0.495626
0.277836
0.135361
0.408216
94.036423
1.000000
1.000000
1.000000
0.000000
0.000000
0.000000
0.000000
0.023020
0.187078
0.060486
0.231296
0.241188
0.101738
0.081125
0.163747
0.300614
0.212700
0.255088
0.133484
0.132675
0.130186
0.292238
0.374334
0.138619
0.128502
0.354195
0.567073
0.378964
0.629819
0.454230
93.683434
1.000000
1.000000
1.000000
0.000000
0.000000
0.000000
0.000000
0.116606
0.147660
0.432803
0.226722
0.267569
0.217870
0.137691
0.072158
0.110103
0.228230
0.240760
0.177398
0.292305
0.266572
0.179309
0.078615
0.245252
0.463598
0.460053
0.503289
0.437641
0.421855
1.090985
92.679962
1.000000
1.000000
1.000000
0.000000
0.000000
0.000000
0.000000
0.058545
0.123834
0.155683
0.366989
0.101846
0.294202
0.111551
0.327841
0.109006
0.269714
0.350986
0.146585
0.391999
0.047482
0.313477
0.213073
0.191374
0.504563
0.405815
0.409436
0.358708
0.760393
79.431587
84.088089
1.000000
1.000000
1.000000
0.000000
0.000000
0.000000
0.000000
0.090003
0.073463
0.151126
0.318503
0.311375
0.216805
0.133788
0.185311
0.096787
0.171920
0.195619
0.303816
0.285883
0.217438
0.321707
0.086548
0.534518
0.405295
0.355827
0.458869
0.299540
0.572377
0.224695
80.202118
1.000000
1.000000
1.000000
0.000000
0.000000
0.000000
0.000000
0.125330
0.119177
0.088155
0.173026
0.187244
0.162484
0.145343
0.117097
0.186355
0.128317
0.363201
0.076751
0.191890
0.173044
0.153513
0.327164
0.288853
0.317448
0.331407
0.453395
0.349410
0.576031
90.027649
95.522408
1.000000
1.000000
1.000000
0.000000
0.000000
0.000000
0.000000
0.109649
0.089547
0.048928
0.197034
0.489341
0.076012
0.150575
0.026519
0.098037
0.245531
0.361844
0.205323
0.161743
0.149473
0.214546
0.280634
0.281852
0.284130
0.198051
0.175969
0.280150
0.488697
0.711329
93.779831
1.000000
1.000000
1.000000
0.000000
0.000000
0.000000
0.000000
0.167508
0.006318
0.115510
0.233241
0.114979
0.082762
0.041101
0.067247
0.399187
0.100170
0.214739
0.150180
0.190491
0.216571
0.301987
0.185047
0.082035
0.343368
0.189245
0.297055
0.022662
0.362579
0.797135
85.360405
1.000000
1.000000
1.000000
0.000000
0.000000
0.000000
0.000000
0.021985
0.109754
0.115813
0.135674
0.318880
0.055967
0.218158
0.116063
0.086052
0.122606
0.086782
0.228834
0.201322
0.288311
0.251790
0.183614
0.356748
0.367668
0.211587
0.255554
0.440965
0.461493
76.923607
88.957481
1.000000
1.000000
1.000000
0.000000
0.000000
0.000000
0.000000
0.088708
0.068901
0.267931
0.185680
0.213347
0.130654
0.168494
0.125398
0.131773
0.277566
0.288648
0.148953
0.161974
0.143348
0.208029
0.341390
0.171980
0.162339
0.254318
0.344950
0.645599
0.532825
0.827617
87.314362
1.000000
1.000000
1.000000
0.000000
0.000000
0.000000
0.000000
0.083899
0.064058
0.107596
0.224076
0.081273
0.212540
0.258884
0.157752
0.068082
0.342808
0.220651
0.281151
0.093871
0.096749
0.024814
0.166292
0.311251
0.071503
0.176317
0.500819
0.301686
0.298156
0.521663
93.046631
0.000000
0.000000
0.000000
0.000000
0.085604
0.092105
0.109136
0.122275
0.138270
0.188462
0.065519
0.187182
0.108525
0.295427
0.217817
0.094141
0.135080
0.198928
0.165398
0.216643
0.361187
0.407106
0.289722
0.332110
0.533442
0.330465
0.693579
92.858170
0.000000
0.000000
0.000000
0.000000
0.027593
0.120285
0.158768
0.231110
0.062319
0.128143
0.193280
0.105596
0.093735
0.072112
0.255344
0.171518
0.143475
0.074521
0.061855
0.203045
0.161656
0.139160
0.423921
0.476558
0.101294
0.348480
0.749507
88.287453
0.000000
0.000000
0.000000
0.000000
0.110271
0.067999
0.099868
0.083914
0.127456
0.166410
0.158382
0.058396
0.081231
0.201444
0.312166
0.178419
0.096928
0.343299
0.055099
0.117540
0.025358
0.365264
0.143112
0.264541
0.426546
0.231894
92.327156
105.167389
0.000000
0.000000
0.000000
0.000000
0.035810
0.169843
0.050378
0.222697
0.134374
0.179379
0.057419
0.107368
0.052360
0.199259
0.177672
0.142102
0.015695
0.276497
0.195382
0.074154
0.164537
0.111458
0.049061
0.154199
0.488952
0.243230
92.390785
101.007668
0.000000
0.000000
0.000000
0.000000
0.146520
0.098401
0.079143
0.195749
0.113590
0.150056
0.223311
0.127121
0.125228
0.195341
0.166494
0.177763
0.073832
0.119694
0.136506
0.066688
0.198911
0.392932
0.080055
0.108055
0.418048
0.323631
0.360779
105.383247
0.000000
0.000000
0.000000
0.000000
0.152086
0.103502
0.069261
0.114368
0.116289
0.157068
0.146531
0.155029
0.183649
0.109110
0.452906
0.187356
0.299335
0.338231
0.101284
0.094738
0.361956
0.287034
0.075322
0.194393
0.108299
0.339599
113.171738
95.129883
0.000000
0.000000
0.000000
0.000000
0.055786
0.034554
0.120479
0.106919
0.031687
0.197114
0.137806
0.105310
0.109446
0.196646
0.061917
0.192207
0.010747
0.190326
0.184662
0.150023
0.068170
0.140391
0.208943
0.110058
0.227873
0.132085
0.507038
89.988647
0.000000
0.000000
0.000000
0.000000
0.077992
0.058816
0.116729
0.022050
0.143988
0.133941
0.189669
0.109809
0.108978
0.039659
0.063091
0.148831
0.129987
0.262771
0.216022
0.361446
0.249357
0.122585
0.165549
0.364597
0.309047
0.397416
0.540245
100.984207
0.000000
0.000000
0.000000
0.000000
0.047633
0.073897
0.051924
0.055037
0.141313
0.152533
0.267473
0.027002
0.054700
0.109895
0.054569
0.066545
0.088396
0.029635
0.297002
0.147082
0.224928
0.189925
0.405875
0.267890
0.649857
0.761511
0.235492
109.932777
0.000000
0.000000
0.000000
0.000000
0.117026
0.105638
0.076602
0.049204
0.166621
0.177194
0.085068
0.159350
0.029507
0.093946
0.117239
0.113585
0.083633
0.049736
0.159780
0.175018
0.296000
0.225172
0.081869
0.167504
0.235339
0.186682
0.211620
112.481125
0.000000
0.000000
0.000000
0.000000
0.038095
0.064995
0.028635
0.025539
0.103592
0.176106
0.250730
0.265951
0.116953
0.140660
0.154455
0.133325
0.051352
0.110218
0.176749
0.138841
0.130711
0.174185
0.242667
0.187022
0.143408
0.302646
0.302062
105.964622
0.000000
0.000000
0.000000
0.000000
0.033111
0.162941
0.074816
0.130682
0.106144
0.029927
0.149655
0.118246
0.036065
0.059822
0.155992
0.162211
0.116523
0.080529
0.134724
0.083674
0.098487
0.052820
0.157977
0.311476
0.179091
0.129846
0.194462
114.284790
0.000000
0.000000
0.000000
0.000000
0.119578
0.197995
0.037565
0.119572
0.058341
0.146429
0.052644
0.115824
0.165998
0.033784
0.090040
0.110558
0.067191
0.123976
0.118501
0.241980
0.083673
0.091155
0.236329
0.066156
0.211279
0.336645
0.505944
104.999344
0.000000
0.000000
0.000000
0.000000
0.052422
0.163873
0.064579
0.076426
0.155017
0.062670
0.096561
0.034357
0.101103
0.107721
0.017247
0.080946
0.103269
0.071412
0.015067
0.127104
0.023970
0.153773
0.061301
0.359846
0.279004
0.160394
0.293652
104.946304
0.000000
0.000000
0.000000
0.000000
0.113869
0.138919
0.171361
0.133933
0.060953
0.129668
0.156376
0.027851
0.112819
0.023136
0.070659
0.118898
0.062596
0.106951
0.110864
0.030243
0.245415
0.132260
0.153944
0.176044
0.282036
0.124761
0.753236
99.056358
0.000000
0.000000
0.000000
0.000000
0.036550
0.030771
0.024454
0.041816
0.119921
0.115247
0.146254
0.132594
0.055964
0.082777
0.132807
0.090841
0.074055
0.014129
0.113151
0.132836
0.039254
0.162363
0.149047
0.165168
0.222128
0.199955
0.679949
83.851791
0.000000
0.000000
0.000000
0.000000
0.079606
0.100318
0.098585
0.102265
0.111687
0.092546
0.059050
0.086142
0.039195
0.057025
0.138551
0.048889
0.067095
0.097679
0.110805
0.139095
0.200567
0.070771
0.188868
0.062838
0.312846
0.403974
0.447364
72.510818
0.000000
0.000000
0.000000
0.000000
0.044770
0.020133
0.069958
0.101231
0.126255
0.080214
0.013525
0.129210
0.034482
0.085959
0.079017
0.090100
0.058564
0.052412
0.056248
0.072102
0.166018
0.162016
0.174301
0.027660
0.106120
0.750358
0.411490
70.314880
0.000000
0.000000
0.000000
0.000000
0.022048
0.102659
0.139705
0.102178
0.096367
0.031618
0.032974
0.044057
0.064811
0.166873
0.142650
0.112996
0.083057
0.026186
0.075133
0.076479
0.046966
0.082075
0.233004
0.195372
0.166768
0.092206
0.538480
73.805328
0.000000
0.000000
0.000000
0.000000
0.016662
0.086769
0.036859
0.055251
0.025427
0.026231
0.082738
0.091260
0.115760
0.082596
0.129394
0.064868
0.145341
0.167119
0.120148
0.064984
0.107790
0.144890
0.169246
0.089979
0.051232
0.168291
0.415977
64.448586
0.000000
0.000000
0.000000
0.000000
0.038245
0.036600
0.057919
0.025803
0.009930
0.084521
0.089727
0.100142
0.021259
0.066002
0.036286
0.091437
0.061159
0.072040
0.284760
0.114638
0.119335
0.062663
0.255388
0.359436
0.230731
0.265227
0.407777
61.540123
0.000000
0.000000
0.000000
0.000000
0.049346
0.045097
0.007314
0.010705
0.057607
0.082511
0.057261
0.087305
0.103652
0.043333
0.132492
0.175691
0.095992
0.112873
0.010920
0.072414
0.054210
0.114886
0.157313
0.156298
0.153067
0.287093
0.126202
58.642345
0.000000
0.000000
0.000000
0.000000
0.021964
0.040543
0.087902
0.078251
0.018960
0.182443
0.056654
0.115419
0.071786
0.094552
0.111026
0.036080
0.117648
0.075338
0.126526
0.102050
0.099010
0.075408
0.078981
0.150114
0.240895
0.092010
0.203925
53.988396
0.000000
0.000000
0.000000
0.000000
0.053151
0.042437
0.073079
0.052443
0.126680
0.097386
0.144215
0.104554
0.108282
0.123529
0.119968
0.032954
0.052420
0.110044
0.128797
0.098414
0.032814
0.154611
0.220385
0.208393
0.131133
0.296057
0.156499
47.174931
0.000000
0.000000
0.000000
0.000000
0.020846
0.090636
0.053430
0.086818
0.047201
0.087838
0.055396
0.036728
0.037759
0.196414
0.033980
0.144856
0.168842
0.090569
0.178926
0.169390
0.031985
0.064690
0.150195
0.176937
0.212392
0.192748
0.531852
40.446468
0.000000
0.000000
0.000000
0.000000
0.039697
0.164283
0.024051
0.082814
0.041745
0.101543
0.061209
0.077765
0.048119
0.127453
0.046389
0.074838
0.089098
0.138313
0.027547
0.123920
0.191065
0.060065
0.092251
0.057609
0.193829
0.267818
0.352014
42.162689
0.000000
0.000000
0.000000
0.000000
0.060401
0.196748
0.183195
0.036759
0.201999
0.174109
0.113458
0.173399
0.105593
0.081690
0.053202
0.041151
0.120930
0.145817
0.249629
0.183957
0.081440
0.295148
0.161522
0.096257
0.164597
0.433238
0.269566
39.198818
0.000000
0.000000
0.000000
0.000000
0.136536
0.136827
0.112838
0.141009
0.145244
0.080915
0.179652
0.037741
0.076549
0.058305
0.105442
0.081859
0.079493
0.175937
0.131319
0.259225
0.249840
0.006303
0.054665
0.182267
0.038464
0.445682
21.638453
38.211796
0.000000
0.000000
0.000000
0.000000
0.122689
0.046996
0.009299
0.043266
0.060607
0.077405
0.318768
0.110124
0.089059
0.133501
0.024644
0.096299
0.148634
0.193131
0.196299
0.243201
0.107198
0.267835
0.175887
0.476991
0.428494
0.074016
0.441315
46.685226
0.000000
0.000000
0.000000
0.000000
0.101834
0.094876
0.169560
0.053961
0.042645
0.066989
0.173586
0.166268
0.244344
0.093818
0.051391
0.137613
0.185217
0.086076
0.248149
0.161913
0.160234
0.217462
0.798625
0.795687
0.345724
0.321802
0.698280
60.991550
0.000000
0.000000
0.000000
0.000000
0.192939
0.004393
0.058493
0.020124
0.208363
0.089806
0.122830
0.226432
0.202113
0.128234
0.059369
0.114300
0.064920
0.143593
0.030855
0.179193
0.243277
0.091751
0.255620
0.604263
0.457206
0.523063
0.803754
63.379559
0.000000
0.000000
0.000000
0.000000
0.184602
0.112860
0.103001
0.040232
0.154754
0.136840
0.044729
0.116302
0.099494
0.044234
0.066061
0.067352
0.245725
0.148591
0.140256
0.278998
0.227975
0.207100
0.278104
0.251678
0.409814
0.198199
59.175869
68.711853
0.000000
0.000000
0.000000
0.000000
0.087988
0.037334
0.053236
0.047335
0.062812
0.118459
0.075947
0.127371
0.012030
0.174942
0.069523
0.063244
0.123191
0.048250
0.273979
0.096859
0.165552
0.079613
0.235813
0.093599
0.320787
0.304122
0.156126
76.118172
0.000000
0.000000
0.000000
0.000000
0.143539
0.045271
0.174555
0.118673
0.052147
0.221681
0.085838
0.053759
0.120960
0.063201
0.140123
0.144895
0.186145
0.126215
0.231390
0.215222
0.147092
0.206576
0.149701
0.198227
0.318891
0.277066
71.715080
78.023109
0.000000
0.000000
0.000000
0.000000
0.025930
0.124204
0.174414
0.213020
0.073300
0.175004
0.172879
0.161145
0.141306
0.244295
0.054080
0.123110
0.159209
0.073790
0.139240
0.194969
0.190377
0.425811
0.395357
0.113766
0.136286
0.058683
0.174371
92.434425
0.000000
0.000000
0.000000
0.000000
0.025353
0.082400
0.094687
0.059755
0.069777
0.034341
0.081427
0.170520
0.134446
0.184913
0.142750
0.210454
0.194961