<?xml version='1.0' encoding='UTF-8'?>
<VTKFile xmlns='VTK' byte_order='LittleEndian' version='0.1' type='UnstructuredGrid'>
<UnstructuredGrid>
<Piece NumberOfCells='2512' NumberOfPoints='2512'>
<Points>
<DataArray NumberOfComponents='3' type='Float32' Name='Position' format='ascii'>
-0.075000 -0.075000 0.000000
-0.075000 -0.050000 0.000000
-0.075000 -0.025000 0.000000
-0.075000 0.000000 0.000000
-0.075000 0.025000 0.000000
-0.075000 0.050000 0.000000
-0.075000 0.075000 0.000000
-0.075000 0.100000 0.000000
-0.075000 0.125000 0.000000
-0.075000 0.150000 0.000000
-0.075000 0.175000 0.000000
-0.075000 0.200000 0.000000
-0.075000 0.225000 0.000000
-0.075000 0.250000 0.000000
-0.075000 0.275000 0.000000
-0.075000 0.300000 0.000000
-0.075000 0.325000 0.000000
-0.075000 0.350000 0.000000
-0.075000 0.375000 0.000000
-0.075000 0.400000 0.000000
-0.075000 0.425000 0.000000
-0.075000 0.450000 0.000000
-0.075000 0.475000 0.000000
-0.075000 0.500000 0.000000
-0.075000 0.525000 0.000000
-0.075000 0.550000 0.000000
-0.075000 0.575000 0.000000
-0.075000 0.600000 0.000000
-0.050000 -0.075000 0.000000
-0.050000 -0.050000 0.000000
-0.050000 -0.025000 0.000000
-0.050000 0.000000 0.000000
-0.050000 0.025000 0.000000
-0.050000 0.050000 0.000000
-0.050000 0.075000 0.000000
-0.050000 0.100000 0.000000
-0.050000 0.125000 0.000000
-0.050000 0.150000 0.000000
-0.050000 0.175000 0.000000
-0.050000 0.200000 0.000000
-0.050000 0.225000 0.000000
-0.050000 0.250000 0.000000
-0.050000 0.275000 0.000000
-0.050000 0.300000 0.000000
-0.050000 0.325000 0.000000
-0.050000 0.350000 0.000000
-0.050000 0.375000 0.000000
-0.050000 0.400000 0.000000
-0.050000 0.425000 0.000000
-0.050000 0.450000 0.000000
-0.050000 0.475000 0.000000
-0.050000 0.500000 0.000000
-0.050000 0.525000 0.000000
-0.050000 0.550000 0.000000
-0.050000 0.575000 0.000000
-0.050000 0.600000 0.000000
-0.025000 -0.075000 0.000000
-0.025000 -0.050000 0.000000
-0.025000 -0.025000 0.000000
-0.025000 0.000000 0.000000
-0.025000 0.025000 0.000000
-0.025000 0.050000 0.000000
-0.025000 0.075000 0.000000
-0.025000 0.100000 0.000000
-0.025000 0.125000 0.000000
-0.025000 0.150000 0.000000
-0.025000 0.175000 0.000000
-0.025000 0.200000 0.000000
-0.025000 0.225000 0.000000
-0.025000 0.250000 0.000000
-0.025000 0.275000 0.000000
-0.025000 0.300000 0.000000
-0.025000 0.325000 0.000000
-0.025000 0.350000 0.000000
-0.025000 0.375000 0.000000
-0.025000 0.400000 0.000000
-0.025000 0.425000 0.000000
-0.025000 0.450000 0.000000
-0.025000 0.475000 0.000000
-0.025000 0.500000 0.000000
-0.025000 0.525000 0.000000
-0.025000 0.550000 0.000000
-0.025000 0.575000 0.000000
-0.025000 0.600000 0.000000
0.000000 -0.075000 0.000000
0.000000 -0.050000 0.000000
0.000000 -0.025000 0.000000
0.000000 0.000000 0.000000
0.000000 0.025000 0.000000
0.000000 0.050000 0.000000
0.000000 0.075000 0.000000
0.000000 0.100000 0.000000
0.000000 0.125000 0.000000
0.000000 0.150000 0.000000
0.000000 0.175000 0.000000
0.000000 0.200000 0.000000
0.000000 0.225000 0.000000
0.000000 0.250000 0.000000
0.000000 0.275000 0.000000
0.000000 0.300000 0.000000
0.000000 0.325000 0.000000
0.000000 0.350000 0.000000
0.000000 0.375000 0.000000
0.000000 0.400000 0.000000
0.000000 0.425000 0.000000
0.000000 0.450000 0.000000
0.000000 0.475000 0.000000
0.000000 0.500000 0.000000
0.000000 0.525000 0.000000
0.000000 0.550000 0.000000
0.000000 0.575000 0.000000
0.000000 0.600000 0.000000
0.025000 -0.075000 0.000000
0.025000 -0.050000 0.000000
0.025000 -0.025000 0.000000
0.025000 0.000000 0.000000
0.026154 0.024068 0.000000
0.023645 0.049139 0.000000
0.026730 0.075760 0.000000
0.024698 0.098460 0.000000
0.024544 0.125288 0.000000
0.025866 0.148542 0.000000
0.024422 0.175126 0.000000
0.025129 0.199111 0.000000
0.024711 0.224860 0.000000
0.025010 0.249989 0.000000
0.024739 0.275188 0.000000
0.024740 0.300628 0.000000
0.024958 0.326455 0.000000
0.024876 0.351488 0.000000
0.024548 0.378963 0.000000
0.024772 0.404211 0.000000
0.023047 0.433888 0.000000
0.022739 0.463116 0.000000
0.024560 0.493395 0.000000
0.024019 0.519256 0.000000
0.023151 0.554229 0.000000
0.032373 0.587420 0.000000
0.052796 0.598171 0.000000
0.012886 0.600000 0.000000
0.565000 0.625000 0.000000
0.565000 0.650000 0.000000
0.565000 0.675000 0.000000
0.050000 -0.075000 0.000000
0.050000 -0.050000 0.000000
0.050000 -0.025000 0.000000
0.050000 0.000000 0.000000
0.052979 0.024031 0.000000
0.046607 0.048436 0.000000
0.049460 0.080967 0.000000
0.049942 0.103896 0.000000
0.048744 0.135144 0.000000
0.049858 0.159521 0.000000
0.049606 0.188129 0.000000
0.049998 0.211955 0.000000
0.050126 0.238319 0.000000
0.049523 0.261867 0.000000
0.049984 0.286806 0.000000
0.049074 0.312624 0.000000
0.048910 0.336580 0.000000
0.048572 0.362798 0.000000
0.046814 0.387904 0.000000
0.048571 0.413927 0.000000
0.044956 0.437917 0.000000
0.045732 0.464816 0.000000
0.046829 0.489318 0.000000
0.045797 0.515116 0.000000
0.040036 0.544232 0.000000
0.044982 0.570745 0.000000
0.073195 0.570425 0.000000
0.066611 0.600000 0.000000
0.590000 0.625000 0.000000
0.590000 0.650000 0.000000
0.590000 0.675000 0.000000
0.075000 -0.075000 0.000000
0.075000 -0.050000 0.000000
0.075000 -0.025000 0.000000
0.075000 0.000000 0.000000
0.081360 0.024397 0.000000
0.068721 0.046643 0.000000
0.075237 0.073812 0.000000
0.074563 0.098319 0.000000
0.069629 0.122779 0.000000
0.078433 0.147399 0.000000
0.068880 0.171795 0.000000
0.079198 0.198404 0.000000
0.070925 0.221970 0.000000
0.078521 0.249315 0.000000
0.074306 0.272978 0.000000
0.073274 0.299216 0.000000
0.076785 0.323267 0.000000
0.072268 0.350222 0.000000
0.074073 0.373994 0.000000
0.073308 0.401170 0.000000
0.071415 0.425113 0.000000
0.070661 0.451957 0.000000
0.073114 0.473758 0.000000
0.074936 0.497953 0.000000
0.069543 0.521261 0.000000
0.066214 0.548628 0.000000
0.098614 0.565524 0.000000
0.087739 0.600000 0.000000
0.615000 0.625000 0.000000
0.615000 0.650000 0.000000
0.615000 0.675000 0.000000
0.100000 -0.075000 0.000000
0.100000 -0.050000 0.000000
0.100000 -0.025000 0.000000
0.100000 0.000000 0.000000
0.106552 0.023843 0.000000
0.091704 0.055000 0.000000
0.099749 0.081081 0.000000
0.099658 0.105236 0.000000
0.096168 0.131227 0.000000
0.100619 0.157872 0.000000
0.095987 0.182134 0.000000
0.100749 0.209554 0.000000
0.097836 0.234154 0.000000
0.100223 0.261048 0.000000
0.098708 0.287878 0.000000
0.098786 0.313211 0.000000
0.098284 0.339188 0.000000
0.097047 0.365365 0.000000
0.096546 0.390060 0.000000
0.097766 0.417282 0.000000
0.096379 0.439603 0.000000
0.097114 0.466616 0.000000
0.102950 0.489851 0.000000
0.097418 0.514894 0.000000
0.086931 0.536512 0.000000
0.113003 0.550668 0.000000
0.114973 0.582753 0.000000
0.101844 0.600000 0.000000
0.640000 0.625000 0.000000
0.640000 0.650000 0.000000
0.640000 0.675000 0.000000
0.125000 -0.075000 0.000000
0.125000 -0.050000 0.000000
0.125000 -0.025000 0.000000
0.125000 0.000000 0.000000
0.133009 0.025951 0.000000
0.114028 0.046386 0.000000
0.124060 0.072855 0.000000
0.126589 0.098247 0.000000
0.119441 0.121769 0.000000
0.127910 0.147462 0.000000
0.119659 0.171312 0.000000
0.127104 0.197632 0.000000
0.121914 0.221841 0.000000
0.124828 0.247174 0.000000
0.122356 0.272950 0.000000
0.123253 0.298455 0.000000
0.124428 0.322464 0.000000
0.120208 0.351380 0.000000
0.126736 0.372724 0.000000
0.118761 0.400748 0.000000
0.128127 0.421653 0.000000
0.119103 0.449296 0.000000
0.127337 0.470386 0.000000
0.120613 0.506239 0.000000
0.127026 0.531836 0.000000
0.138977 0.552500 0.000000
0.146228 0.574376 0.000000
0.134725 0.600000 0.000000
0.665000 0.625000 0.000000
0.665000 0.650000 0.000000
0.665000 0.675000 0.000000
0.150000 -0.075000 0.000000
0.150000 -0.050000 0.000000
0.150000 -0.025000 0.000000
0.150000 0.000000 0.000000
0.157339 0.023926 0.000000
0.138942 0.053219 0.000000
0.149670 0.079886 0.000000
0.150123 0.103286 0.000000
0.144988 0.131477 0.000000
0.152065 0.155860 0.000000
0.145411 0.183386 0.000000
0.150880 0.207405 0.000000
0.147117 0.236680 0.000000
0.149810 0.259574 0.000000
0.145963 0.287747 0.000000
0.150893 0.311074 0.000000
0.142558 0.340111 0.000000
0.153179 0.360162 0.000000
0.141987 0.391595 0.000000
0.154845 0.409967 0.000000
0.142125 0.441904 0.000000
0.158244 0.458784 0.000000
0.136992 0.489678 0.000000
0.160833 0.499540 0.000000
0.148345 0.523028 0.000000
0.166129 0.545852 0.000000
0.170466 0.590855 0.000000
0.147405 0.600000 0.000000
0.690000 0.625000 0.000000
0.690000 0.650000 0.000000
0.690000 0.675000 0.000000
0.175000 -0.075000 0.000000
0.175000 -0.050000 0.000000
0.175000 -0.025000 0.000000
0.175000 0.000000 0.000000
0.184123 0.025587 0.000000
0.162286 0.047567 0.000000
0.173249 0.072675 0.000000
0.177276 0.097589 0.000000
0.168274 0.122322 0.000000
0.178028 0.147063 0.000000
0.168116 0.172369 0.000000
0.177994 0.198138 0.000000
0.168794 0.222284 0.000000
0.176190 0.247950 0.000000
0.169005 0.273802 0.000000
0.175845 0.299296 0.000000
0.167674 0.325522 0.000000
0.177720 0.350759 0.000000
0.166614 0.378550 0.000000
0.180264 0.400918 0.000000
0.166438 0.430853 0.000000
0.182844 0.448003 0.000000
0.169259 0.478906 0.000000
0.189100 0.495075 0.000000
0.173464 0.521958 0.000000
0.197006 0.547510 0.000000
0.173405 0.565929 0.000000
0.187438 0.600000 0.000000
0.715000 0.625000 0.000000
0.715000 0.650000 0.000000
0.715000 0.675000 0.000000
0.200000 -0.075000 0.000000
0.200000 -0.050000 0.000000
0.200000 -0.025000 0.000000
0.200000 0.000000 0.000000
0.208188 0.024608 0.000000
0.187628 0.050343 0.000000
0.198960 0.076237 0.000000
0.201412 0.099828 0.000000
0.193297 0.126535 0.000000
0.202133 0.151197 0.000000
0.194002 0.178006 0.000000
0.200793 0.201835 0.000000
0.194502 0.230693 0.000000
0.200714 0.253653 0.000000
0.193270 0.279770 0.000000
0.200585 0.303329 0.000000
0.191933 0.328250 0.000000
0.202144 0.352264 0.000000
0.191144 0.375983 0.000000
0.207785 0.400807 0.000000
0.192151 0.421076 0.000000
0.213134 0.450507 0.000000
0.195468 0.467919 0.000000
0.210214 0.500851 0.000000
0.197135 0.526647 0.000000
0.218499 0.550414 0.000000
[...]
<PointData>
<DataArray NumberOfComponents='1' type='Int32' Name='ParticleType' format='ascii'>
3
3
3
3
3
3
3
3
3
3
3
3
3
3
3
3
3
3
3
3
3
3
3
3
3
3
3
3
3
3
3
3
3
3
3
3
3
3
3
3
3
3
3
3
3
3
3
3
3
3
3
3
3
3
3
3
3
3
2
2
2
2
2
2
2
2
2
2
2
2
2
2
2
2
2
2
2
2
2
2
2
2
2
2
3
3
2
2
2
2
2
2
2
2
2
2
2
2
2
2
2
2
2
2
2
2
2
2
2
2
2
2
3
3
2
2
0
0
0
0
0
0
0
0
0
0
0
0
0
0
0
0
0
0
0
0
0
0
0
0
1
1
1
3
3
2
2
0
0
0
0
0
0
0
0
0
0
0
0
0
0
0
0
0
0
0
0
0
0
0
0
1
1
1
3
3
2
2
0
0
0
0
0
0
0
0
0
0
0
0
0
0
0
0
0
0
0
0
0
0
0
0
1
1
1
3
3
2
2
0
0
0
0
0
0
0
0
0
0
0
0
0
0
0
0
0
0
0
0
0
0
0
0
1
1
1
3
3
2
2
0
0
0
0
0
0
0
0
0
0
0
0
0
0
0
0
0
0
0
0
0
0
0
0
1
1
1
3
3
2
2
0
0
0
0
0
0
0
0
0
0
0
0
0
0
0
0
0
0
0
0
0
0
0
0
1
1
1
3
3
2
2
0
0
0
0
0
0
0
0
0
0
0
0
0
0
0
0
0
0
0
0
0
0
0
0
1
1
1
3
3
2
2
0
0
0
0
0
0
0
0
0
0
0
0
0
0
0
0
0
0
0
0
0
0
0
0
1
1
1
3
3
2
2
0
0
0
0
0
0
0
0
0
0
0
0
0
0
0
0
0
0
0
0
0
0
0
0
1
1
1
3
3
2
2
0
0
0
0
0
0
0
0
0
0
0
0
0
0
0
0
0
0
0
0
0
0
0
0
1
1
1
3
3
2
2
0
0
0
0
0
0
0
0
0
0
0
0
0
0
0
0
0
0
0
0
0
0
0
0
1
1
1
3
3
2
2
0
0
0
0
0
0
0
0
0
0
0
0
0
0
0
0
0
0
0
0
0
0
0
0
1
1
1
3
3
2
2
0
0
0
0
0
0
0
0
0
0
0
0
0
0
0
0
0
0
0
0
0
0
0
0
1
1
1
3
3
2
2
0
0
0
0
0
0
0
0
0
0
0
0
0
0
0
0
0
0
0
0
0
0
0
0
1
1
1
3
3
2
2
0
0
0
0
0
0
0
0
0
0
0
0
0
0
0
0
0
0
0
0
0
0
0
0
1
1
1
3
3
2
2
0
0
0
0
0
0
0
0
0
0
0
0
0
0
0
0
0
0
0
0
0
0
0
0
1
1
1
3
3
2
2
0
0
0
0
0
0
0
0
0
0
0
0
0
0
0
0
0
0
0
0
0
0
0
0
3
3
2
2
0
0
0
0
0
0
0
0
0
0
0
0
0
0
0
0
0
0
0
0
0
0
0
0
3
3
2
2
0
0
0
0
0
0
0
0
0
0
0
0
0
0
0
0
0
0
0
0
0
0
0
0
3
3
2
2
0
0
0
0
0
0
0
0
0
0
0
0
0
0
0
0
0
0
0
0
0
0
0
0
3
3
2
2
0
0
0
0
0
0
0
0
0
0
0
0
0
0
0
0
0
0
0
0
0
0
0
0
3
3
2
2
0
0
0
0
0
0
0
0
0
0
0
0
0
0
0
0
0
0
0
0
0
0
0
0
3
3
2
2
0
0
0
0
0
0
0
0
0
0
0
0
0
0
0
0
0
0
0
0
0
0
0
0
3
3
2
2
0
0
0
0
0
0
0
0
0
0
0
0
0
0
0
0
0
0
0
0
0
0
0
0
3
3
2
2
0
0
0
0
0
0
0
0
0
0
0
0
0
0
0
0
0
0
0
0
0
0
0
0
3
3
2
2
0
0
0
0
0
0
0
0
0
0
0
0
0
0
0
0
0
0
0
0
0
0
0
0
3
3
2
2
0
0
0
0
0
0
0
0
0
0
0
0
0
0
0
0
0
0
0
0
0
0
0
0
3
3
2
2
0
0
0
0
0
0
0
0
0
0
0
0
0
0
0
0
0
0
0
0
0
0
0
0
3
3
2
2
0
0
0
0
0
0
0
0
0
0
0
0
0
0
0
0
0
0
0
0
0
0
0
0
3
3
2
2
0
0
0
0
0
0
0
0
0
0
0
0
0
0
0
0
0
0
0
0
0
0
0
0
3
3
2
2
0
0
0
0
0
0
0
0
0
0
0
0
0
0
0
0
0
0
0
0
0
0
0
0
3
3
2
2
0
0
0
0
0
0
0
0
0
0
0
0
0
0
0
0
0
0
0
0
0
0
0
0
3
3
2
2
0
0
0
0
0
0
0
0
0
0
0
0
0
0
0
0
0
0
0
0
0
0
0
0
3
3
2
2
0
0
0
0
0
0
0
0
0
0
0
0
0
0
0
0
0
0
0
0
0
0
0
0
3
3
2
2
0
0
0
0
0
0
0
0
0
0
0
0
0
0
0
0
0
0
0
0
0
0
0
0
3
3
2
2
0
0
0
0
0
0
0
0
0
0
0
0
0
0
0
0
0
0
0
0
0
0
0
0
3
3
2
2
0
0
0
0
0
0
0
0
0
0
0
0
0
0
0
0
0
0
0
0
0
0
0
0
3
3
2
2
0
0
0
0
0
0
0
0
0
0
0
0
0
0
0
0
0
0
0
0
0
0
0
0
3
3
2
2
0
0
0
0
0
0
0
0
0
0
0
0
0
0
0
0
0
0
0
0
0
0
0
0
3
3
2
2
0
0
0
0
0
0
0
0
0
0
0
0
0
0
0
0
0
0
0
0
0
0
0
0
3
3
2
2
0
0
0
0
0
0
0
0
0
0
0
0
0
0
0
0
0
0
0
0
0
0
0
0
3
3
2
2
0
0
0
0
0
0
0
0
0
0
0
0
0
0
0
0
0
0
0
0
0
0
0
0
3
3
2
2
0
0
0
0
0
0
0
0
0
0
0
0
0
0
0
0
0
0
0
0
0
0
0
0
3
3
2
2
0
0
0
0
0
0
0
0
0
0
0
0
0
0
0
0
0
0
0
0
0
0
0
0
3
3
2
2
0
0
0
0
0
0
0
0
0
0
0
0
0
0
0
0
0
0
0
0
0
0
0
0
3
3
2
2
0
0
0
0
0
0
0
0
0
0
0
0
0
0
0
0
0
0
0
0
0
0
0
0
3
3
2
2
0
0
0
0
0
0
0
0
0
0
0
0
0
0
0
0
0
0
0
0
0
0
0
0
3
3
2
2
0
0
0
0
0
0
0
0
0
0
0
0
0
0
0
0
0
0
0
0
0
0
0
0
3
3
2
2
0
0
0
0
0
0
0
0
0
0
0
0
0
0
0
0
0
0
0
0
0
0
0
0
3
3
2
2
0
0
0
0
0
0
0
0
0
0
0
0
0
0
0
0
0
0
0
0
0
0
0
0
3
3
2
2
0
0
0
0
0
0
0
0
0
0
0
0
0
0
0
0
0
0
0
0
0
0
0
0
3
3
2
2
0
0
0
0
0
0
0
0
0
0
0
0
0
0
0
0
0
0
0
0
0
0
0
0
3
3
2
2
0
0
0
0
0
0
0
0
0
0
0
0
0
0
0
0
0
0
0
0
0
0
0
0
3
3
2
2
0
0
0
0
0
0
0
0
0
0
0
0
0
0
0
0
0
0
0
0
0
0
0
0
3
3
2
2
0
0
0
0
0
0
0
0
0
0
0
0
0
0
0
0
0
0
0
0
0
0
0
0
3
3
2
2
0
0
0
0
0
0
0
0
0
0
0
0
0
0
0
0
0
0
0
0
0
0
0
0
3
3
2
2
0
0
0
0
0
0
0
0
0
0
0
0
0
0
0
0
0
0
0
0
0
0
0
0
3
3
2
2
0
0
0
0
0
0
0
0
0
0
0
0
0
0
0
0
0
0
0
0
0
0
0
0
3
3
2
2
0
0
0
0
0
0
0
0
0
0
0
0
0
0
0
0
0
0
0
0
0
0
0
0
3
3
2
2
0
0
0
0
0
0
0
0
0
0
0
0
0
0
0
0
0
0
0
0
0
0
0
0
3
3
2
2
0
0
0
0
0
0
0
0
0
0
0
0
0
0
0
0
0
0
0
0
0
0
0
0
3
3
2
2
0
0
0
0
0
0
0
0
0
0
0
0
0
0
0
0
0
0
0
0
0
0
0
0
3
3
2
2
0
0
0
0
0
0
0
0
0
0
0
0
0
0
0
0
0
0
0
0
0
0
0
0
3
3
2
2
0
0
0
0
0
0
0
0
0
0
0
0
0
0
0
0
0
0
0
0
0
0
0
0
3
3
2
2
0
0
0
0
0
0
0
0
0
0
0
0
0
0
0
0
0
0
0
0
0
0
0
0
3
3
2
2
0
0
0
0
0
0
0
0
0
0
0
0
0
0
0
0
0
0
0
0
0
0
0
0
3
3
2
2
0
0
0
0
0
0
0
0
0
0
0
0
0
0
0
0
0
0
0
0
0
0
0
0
3
3
2
2
0
0
0
0
0
0
0
0
0
0
0
0
0
0
0
0
0
0
0
0
0
0
0
0
3
3
2
2
0
0
0
0
0
0
0
0
0
0
0
0
0
0
0
0
0
0
0
0
0
0
0
0
3
3
2
2
0
0
0
0
0
0
0
0
0
0
0
0
0
0
0
0
0
0
0
0
0
0
0
0
3
3
2
2
0
0
0
0
0
0
0
0
0
0
0
0
0
0
0
0
0
0
0
0
0
0
0
0
3
3
2
2
0
0
0
0
0
0
0
0
0
0
0
0
0
0
0
0
0
0
0
0
0
0
0
0
3
3
2
2
0
0
0
0
0
0
0
0
0
0
0
0
0
0
0
0
0
0
0
0
0
0
0
0
3
3
2
2
0
0
0
0
0
0
0
0
0
0
0
0
0
0
0
0
0
0
0
0
0
0
0
0
3
3
2
2
0
0
0
0
0
0
0
0
0
0
0
0
0
0
0
0
0
0
0
0
0
0
0
0
3
3
2
2
0
0
0
0
0
0
0
0
0
0
0
0
0
0
0
0
0
0
0
0
0
0
0
0
3
3
2
2
0
0
0
0
0
0
0
0
0
0
0
0
0
0
0
0
0
0
0
0
0
0
0
0
3
3
2
2
0
0
0
0
0
0
0
0
0
0
0
0
0
0
0
0
0
0
0
0
0
0
0
0
3
3
2
2
0
0
0
0
0
0
0
0
0
0
0
0
0
0
0
0
0
0
0
0
0
0
0
0
3
3
2
2
0
0
0
0
0
0
0
0
0
0
0
0
0
0
0
0
0
0
0
0
0
0
0
0
3
3
2
2
2
2
2
2
2
2
2
2
2
2
2
2
2
2
2
2
2
2
2
2
2
2
2
2
3
3
2
2
2
2
2
2
2
2
2
2
2
2
2
2
2
2
2
2
2
2
2
2
2
2
2
2
3
3
3
3
3
3
3
3
3
3
3
3
3
3
3
3
3
3
3
3
3
3
3
3
3
3
3
3
3
3
3
3
3
3
3
3
3
3
3
3
3
3
3
3
3
3
3
3
3
3
3
3
3
3
3
3
</DataArray>
<DataArray NumberOfComponents='1' type='Float32' Name='Velocity' format='ascii'>
0.000000
0.000000
0.000000
0.000000
0.000000
0.000000
0.000000
0.000000
0.000000
0.000000
0.000000
0.000000
0.000000
0.000000
0.000000
0.000000
0.000000
0.000000
0.000000
0.000000
0.000000
0.000000
0.000000
0.000000
0.000000
0.000000
0.000000
0.000000
0.000000
0.000000
0.000000
0.000000
0.000000
0.000000
0.000000
0.000000
0.000000
0.000000
0.000000
0.000000
0.000000
0.000000
0.000000
0.000000
0.000000
0.000000
0.000000
0.000000
0.000000
0.000000
0.000000
0.000000
0.000000
0.000000
0.000000
0.000000
0.000000
0.000000
0.000000
0.000000
0.000000
0.000000
0.000000
0.000000
0.000000
0.000000
0.000000
0.000000
0.000000
0.000000
0.000000
0.000000
0.000000
0.000000
0.000000
0.000000
0.000000
0.000000
0.000000
0.000000
0.000000
0.000000
0.000000
0.000000
0.000000
0.000000
0.000000
0.000000
0.000000
0.000000
0.000000
0.000000
0.000000
0.000000
0.000000
0.000000
0.000000
0.000000
0.000000
0.000000
0.000000
0.000000
0.000000
0.000000
0.000000
0.000000
0.000000
0.000000
0.000000
0.000000
0.000000
0.000000
0.000000
0.000000
0.000000
0.000000
0.050143
0.026756
0.053897
0.053135
0.044037
0.012679
0.045321
0.029297
0.039459
0.022903
0.051177
0.017692
0.044657
0.047128
0.073157
0.064803
0.084678
0.080609
0.138728
0.142083
0.318400
0.513056
0.077186
2.794341
1.000000
1.000000
1.000000
0.000000
0.000000
0.000000
0.000000
0.099036
0.048510
0.032856
0.019788
0.093726
0.124667
0.085478
0.145287
0.043584
0.087215
0.014998
0.112202
0.096698
0.100190
0.124102
0.149805
0.132781
0.206404
0.173700
0.207991
0.349057
0.676605
0.077325
1.416701
1.000000
1.000000
1.000000
0.000000
0.000000
0.000000
0.000000
0.061312
0.139464
0.003063
0.053475
0.106664
0.067807
0.095930
0.082251
0.083447
0.123981
0.146185
0.153575
0.098116
0.153136
0.140938
0.200027
0.134585
0.258435
0.187079
0.078974
0.151577
0.114062
0.120638
0.323229
1.000000
1.000000
1.000000
0.000000
0.000000
0.000000
0.000000
0.137812
0.236988
0.097871
0.095567
0.096350
0.129624
0.076333
0.090118
0.055701
0.064793
0.040379
0.107033
0.043464
0.127483
0.011673
0.132347
0.074950
0.117087
0.100941
0.100983
0.087729
0.072755
0.145296
1.616531
1.000000
1.000000
1.000000
0.000000
0.000000
0.000000
0.000000
0.129515
0.148004
0.061965
0.075501
0.096100
0.061277
0.050678
0.061890
0.073289
0.089946
0.060141
0.167137
0.083003
0.176211
0.094438
0.137569
0.072356
0.129026
0.082202
0.250609
0.226431
0.117431
0.354913
0.685030
1.000000
1.000000
1.000000
0.000000
0.000000
0.000000
0.000000
0.085898
0.119456
0.131986
0.028083
0.106914
0.067416
0.108530
0.013467
0.113659
0.074879
0.053163
0.033893
0.072979
0.053311
0.009205
0.095118
0.030250
0.189554
0.160814
0.131823
0.320389
0.153026
0.287197
1.306650
1.000000
1.000000
1.000000
0.000000
0.000000
0.000000
0.000000
0.100809
0.138757
0.085905
0.095427
0.084644
0.099492
0.061976
0.120299
0.038820
0.039228
0.053983
0.144393
0.112650
0.165326
0.239718
0.137682
0.251670
0.052155
0.065048
0.169990
0.072282
0.061564
0.105215
0.789419
1.000000
1.000000
1.000000
0.000000
0.000000
0.000000
0.000000
0.099269
0.146741
0.056556
0.026836
0.094241
0.032291
0.108278
0.045839
0.162677
0.148677
0.149714
0.058154
0.116707
0.092861
0.063183
0.205192
0.084092
0.150008
0.056666
0.181348
0.145688
0.093516
0.052010
1.622459
1.000000
1.000000
1.000000
0.000000
0.000000
0.000000
0.000000
0.092080
0.163792
0.011099
0.043449
0.077826
0.079307
0.059139
0.078113
0.054423
0.095076
0.058518
0.041563
0.048415
0.043263
0.096144
0.034244
0.101668
0.058727
0.074363
0.053145
0.169205
0.145531
0.203039
0.505477
1.000000
1.000000
1.000000
0.000000
0.000000
0.000000
0.000000
0.108678
0.151767
0.087959
0.040640
0.094721
0.054773
0.088340
0.043602
0.077596
0.077283
0.088040
0.041170
0.139329
0.045106
0.100218
0.064714
0.064406
0.032978
0.068403
0.115355
0.018880
0.022027
0.221216
0.848685
1.000000
1.000000
1.000000
0.000000
0.000000
0.000000
0.000000
0.122741
0.143942
0.053896
0.075689
0.111928
0.090135
0.075435
0.055909
0.054591
0.054643
0.056736
0.079385
0.039590
0.065021
0.018711
0.063884
0.037146
0.058060
0.073937
0.033146
0.089443
0.113223
0.188164
0.672647
1.000000
1.000000
1.000000
0.000000
0.000000
0.000000
0.000000
0.090514
0.063478
0.070880
0.070919
0.071359
0.034666
0.061145
0.064478
0.075256
0.052498
0.073640
0.062677
0.117589
0.103970
0.101728
0.058069
0.100966
0.046463
0.082289
0.103598
0.076379
0.019869
0.315375
0.472039
1.000000
1.000000
1.000000
0.000000
0.000000
0.000000
0.000000
0.134528
0.144508
0.031001
0.057386
0.080257
0.105822
0.071878
0.071191
0.050901
0.085717
0.045560
0.075898
0.029382
0.050774
0.043277
0.065031
0.074194
0.058293
0.069534
0.117306
0.030345
0.078777
0.159497
0.233385
1.000000
1.000000
1.000000
0.000000
0.000000
0.000000
0.000000
0.083001
0.056490
0.033372
0.068175
0.094198
0.120397
0.084832
0.100204
0.080417
0.054489
0.074362
0.044425
0.037363
0.079286
0.034981
0.074871
0.058998
0.037276
0.010269
0.070771
0.094182
0.167887
0.059980
0.510906
1.000000
1.000000
1.000000
0.000000
0.000000
0.000000
0.000000
0.078573
0.115346
0.061157
0.083968
0.038417
0.058031
0.063087
0.052092
0.060827
0.055725
0.028728
0.068950
0.050933
0.103024
0.042182
0.078564
0.077908
0.023860
0.014529
0.116299
0.070492
0.071047
0.223091
1.249058
1.000000
1.000000
1.000000
0.000000
0.000000
0.000000
0.000000
0.078708
0.073160
0.059375
0.067754
0.053100
0.094169
0.017430
0.061139
0.036463
0.067592
0.082970
0.073594
0.106081
0.071251
0.068213
0.066715
0.086193
0.160757
0.073920
0.221775
0.048195
0.101204
0.237282
0.910432
1.000000
1.000000
1.000000
0.000000
0.000000
0.000000
0.000000
0.023974
0.135252
0.024957
0.122265
0.108100
0.091058
0.075385
0.060541
0.069030
0.032008
0.084503
0.086447
0.105454
0.164921
0.141271
0.076893
0.098534
0.150535
0.097172
0.057092
0.047320
0.115697
0.206827
0.957315
0.000000
0.000000
0.000000
0.000000
0.048652
0.039692
0.089937
0.101412
0.139206
0.104083
0.070840
0.068840
0.077509
0.076381
0.081017
0.089085
0.080332
0.088445
0.097424
0.034313
0.106232
0.142235
0.100010
0.094081
0.114296
0.065274
0.165946
2.481459
0.000000
0.000000
0.000000
0.000000
0.065657
0.118606
0.033253
0.072579
0.095361
0.098449
0.071894
0.067283
0.043645
0.093404
0.057978
0.097382
0.114340
0.157228
0.069651
0.156372
0.110041
0.153586
0.105984
0.088455
0.143298
0.158074
0.145737
0.645140
0.000000
0.000000
0.000000
0.000000
0.079031
0.082733
0.073311
0.117700
0.129776
0.089688
0.093200
0.046206
0.039575
0.041549
0.052444
0.030468
0.099805
0.080820
0.057455
0.074896
0.055337
0.176292
0.107569
0.149244
0.062639
0.170306
0.200806
8.614079
0.000000
0.000000
0.000000
0.000000
0.048283
0.100621
0.055109
0.045257
0.124501
0.052910
0.102993
0.060915
0.056286
0.043281
0.054885
0.057737
0.097900
0.091636
0.128612
0.167093
0.066036
0.046877
0.043700
0.016963
0.130905
0.140959
0.306327
0.228213
0.000000
0.000000
0.000000
0.000000
0.090827
0.074529
0.075919
0.105994
0.097054
0.023209
0.099851
0.009317
0.071112
0.035804
0.094149
0.066325
0.074947
0.054443
0.035100
0.019743
0.028244
0.007675
0.149298
0.035116
0.045899
0.072786
0.130636
0.455669
0.000000
0.000000
0.000000
0.000000
0.051378
0.098737
0.016950
0.042511
0.109273
0.023452
0.083349
0.033232
0.072816
0.037756
0.069443
0.014760
0.091727
0.045523
0.061170
0.068406
0.105352
0.067151
0.023070
0.012743
0.045541
0.088618
0.147451
0.342109
0.000000
0.000000
0.000000
0.000000
0.100365
0.056016
0.054909
0.088809
0.076113
0.037914
0.124564
0.032632
0.066822
0.031502
0.037156
0.018999
0.037523
0.013758
0.077405
0.049049
0.081667
0.011303
0.088566
0.022345
0.085373
0.128148
0.085685
0.204947
0.000000
0.000000
0.000000
0.000000
0.071535
0.092706
0.029545
0.030371
0.122503
0.035056
0.111577
0.054592
0.101250
0.054910
0.098367
0.054549
0.051639
0.068419
0.012644
0.041946
0.061631
0.019809
0.122103
0.035013
0.078200
0.054343
0.163043
0.042004
0.000000
0.000000
0.000000
0.000000
0.083266
0.046454
0.039010
0.066867
0.072851
0.046731
0.091342
0.038891
0.085256
0.044800
0.079138
0.045978
0.076221
0.035179
0.058053
0.027173
0.043239
0.019746
0.046068
0.035640
0.195352
0.112468
0.162855
0.059475
0.000000
0.000000
0.000000
0.000000
0.086019
0.084603
0.061483
0.039107
0.133693
0.044592
0.103064
0.048275
0.068899
0.034587
0.058316
0.030912
0.066243
0.046314
0.077233
0.042479
0.057786
0.033249
0.087289
0.084016
0.039972
0.046437
0.011128
0.214501
0.000000
0.000000
0.000000
0.000000
0.074654
0.059479
0.029544
0.034621
0.089022
0.053386
0.074389
0.041182
0.081872
0.055261
0.063043
0.072802
0.047830
0.051469
0.058195
0.027463
0.082466
0.070258
0.025007
0.043700
0.107913
0.058725
0.096466
0.553822
0.000000
0.000000
0.000000
0.000000
0.089755
0.067485
0.076771
0.031598
0.100975
0.048072
0.112324
0.053357
0.091549
0.058342
0.102257
0.063842
0.079326
0.033485
0.027425
0.030140
0.053250
0.022406
0.121462
0.073635
0.122722
0.067261
0.091241
0.858555
0.000000
0.000000
0.000000
0.000000
0.078962
0.061057
0.038039
0.028651
0.100981
0.065093
0.069802
0.059147
0.081710
0.053250
0.083277
0.051451
0.095508
0.079692
0.085129
0.024847
0.033290
0.051694
0.023581
0.133209
0.088867
0.023291
0.081174
0.293403
0.000000
0.000000
0.000000
0.000000
0.084998
0.045265
0.080959
0.023438
0.090936
0.047031
0.106044
0.042893
0.076197
0.044651
0.069037
0.048074
0.070931
0.033953
0.051495
0.060321
0.064343
0.038449
0.070719
0.057906
0.165968
0.152200
0.137793
0.346576
0.000000
0.000000
0.000000
0.000000
0.092058
0.055269
0.056868
0.027644
0.086448
0.064297
0.060425
0.055179
0.063913
0.049053
0.069660
0.034249
0.048963
0.038458
0.036236
0.025333
0.035027
0.082569
0.011046
0.033059
0.010313
0.076571
0.099492
0.187023
0.000000
0.000000
0.000000
0.000000
0.085148
0.027091
0.083888
0.022849
0.085428
0.050075
0.090696
0.040441
0.067028
0.039276
0.056307
0.043103
0.059376
0.030918
0.040398
0.023779
0.051104
0.041659
0.073831
0.066016
0.084501
0.042051
0.093721
0.152321
0.000000
0.000000
0.000000
0.000000
0.105498
0.040731
0.070569
0.030268
0.081184
0.061568
0.058644
0.051179
0.062493
0.047070
0.077254
0.052399
0.077331
0.056747
0.053738
0.054881
0.049352
0.060307
0.100446
0.059340
0.057235
0.019765
0.058541
0.050771
0.000000
0.000000
0.000000
0.000000
0.087003
0.018699
0.092238
0.015777
0.073931
0.055997
0.081808
0.047639
0.067453
0.054212
0.070979
0.058439
0.082297
0.044502
0.091743
0.042713
0.083314
0.050007
0.093078
0.012211
0.104240
0.060239
0.116415
0.041103
0.000000
0.000000
0.000000
0.000000
0.105577
0.025102
0.081766
0.026612
0.070854
0.061710
0.059253
0.053750
0.065466
0.050496
0.077435
0.046918
0.079947
0.039838
0.065890
0.026657
0.045106
0.011248
0.004594
0.026783
0.046760
0.145825
0.133375
0.159300
0.000000
0.000000
0.000000
0.000000
0.099444
0.011936
0.097568
0.010218
0.058895
0.059455
0.067363
0.050260
0.058739
0.054827
0.068756
0.054121
0.074050
0.034926
0.064618
0.019048
0.027962
0.022310
0.013312
0.047055
0.046692
0.136315
0.088555
0.463620
0.000000
0.000000
0.000000
0.000000
0.105419
0.016454
0.096944
0.021657
0.048173
0.060108
0.048454
0.052540
0.057335
0.051718
0.072174
0.043175
0.088003
0.033836
0.075567
0.021789
0.045294
0.020629
0.024770
0.063007
0.086684
0.223675
0.319963
0.987044
0.000000
0.000000
0.000000
0.000000
0.116691
0.009171
0.095531
0.012258
0.043739
0.058706
0.049370
0.059878
0.049334
0.051767
0.066767
0.047810
0.078695
0.037654
0.074018
0.027432
0.067182
0.039182
0.051219
0.086153
0.083794
0.093201
0.273593
1.655922
0.000000
0.000000
0.000000
0.000000
0.103004
0.006355
0.113446
0.011541
0.023938
0.068203
0.046792
0.054817
0.045961
0.048029
0.063493
0.047591
0.091191
0.037686
0.096430
0.018108
0.051939
0.010999
0.043076
0.071250
0.063198
0.111848
0.045528
1.846600
0.000000
0.000000
0.000000
0.000000
0.126878
0.015036
0.102561
0.018658
0.020422
0.056323
0.024745
0.047326
0.034130
0.051124
0.058705
0.044501
0.083821
0.041408
0.083123
0.033176
0.082283
0.056946
0.056780
0.069997
0.067337
0.069703
0.022891
2.005324
0.000000
0.000000
0.000000
0.000000
0.097190
0.012228
0.105700
0.000875
0.007779
0.048146
0.022738
0.051977
0.022369
0.037413
0.043873
0.039793
0.077103
0.024633
0.090745
0.024913
0.079754
0.020158
0.059401
0.080274
0.087030
0.045006
0.068677
1.995607
0.000000
0.000000
0.000000
0.000000
0.107658
0.011772
0.099640
0.017400
0.007139
0.049829
0.016465
0.048698
0.017929
0.042722
0.037108
0.037800
0.066269
0.037465
0.081246
0.031858
0.079180
0.052971
0.073633
0.085277
0.074083
0.043257
0.001549
2.114195
0.000000
0.000000
0.000000
0.000000
0.098922
0.018549
0.094273
0.007175
0.013583
0.044489
0.007589
0.045028
0.023260
0.052408
0.043463
0.039817
0.060159
0.035171
0.081405
0.027301
0.072852
0.042139
0.046392
0.067453
0.059404
0.078016
0.094299
2.097332
0.000000
0.000000
0.000000
0.000000
0.092587
0.015559
0.091821
0.017772
0.022585
0.040228
0.019896
0.048485
0.024752
0.050298
0.037185
0.054980
0.076819
0.050425
0.083524
0.054933
0.080973
0.056079
0.035975
0.064456
0.064084
0.069315
0.047168
2.204014
0.000000
0.000000
0.000000
0.000000
0.095979
0.024995
0.082940
0.016471
0.021292
0.041065
0.018787
0.036884
0.017473
0.041674
0.044245
0.042921
0.053568
0.045120
0.074624
0.039896
0.053999
0.063555
0.066742
0.044659
0.051502
0.112055
0.083470
2.142683
0.000000
0.000000
0.000000
0.000000
0.087245
0.023311
0.076517
0.019465
0.031035
0.031769
0.015146
0.042238
0.035560
0.041004
0.038020
0.052074
0.060318
0.044082
0.054272
0.050178
0.038701
0.046802
0.052637
0.036446
0.054777
0.089504
0.075721
2.269889
0.000000
0.000000
0.000000
0.000000
0.090898
0.033565
0.075603
0.027421
0.028147
0.032818
0.030044
0.036576
0.037192
0.043167
0.052392
0.051082
0.053036
0.061245
0.035807
0.045465
0.040250
0.041990
0.079994
0.034707
0.049992
0.138639
0.101080
2.138071
0.000000
0.000000
0.000000
0.000000
0.083753
0.039776
0.069659
0.024716
0.029649
0.029571
0.022283
0.038155
0.041600
0.042733
0.049406
0.054613
0.046987
0.055295
0.022006
0.052901
0.057636
0.035533
0.088603
0.028352
0.084095
0.111879
0.085278
2.225273
0.000000
0.000000
0.000000
0.000000
0.084482
0.045015
0.064841
0.030234
0.035162
0.027778
0.024506
0.034405
0.046534
0.043840
0.049190
0.052387
0.046297
0.055790
0.002422
0.060304
0.061882
0.049833
0.049788
0.058870
0.046013
0.155777
0.096423
2.131803
0.000000
0.000000
0.000000
0.000000
0.078427
0.051176
0.061271
0.036344
0.036206
0.020110
0.023050
0.029386
0.037971
0.038025
0.054858
0.039930
0.030742
0.048531
0.034251
0.052329
0.074762
0.028219
0.060459
0.072440
0.059021
0.142962
0.099278
2.111156
0.000000
0.000000
0.000000
0.000000
0.076770
0.055087
0.059305
0.040438
0.038904
0.022772
0.016129
0.026084
0.043931
0.029478
0.040181
0.041916
0.017194
0.049010
0.051090
0.051547
0.066172
0.044549
0.033856
0.076314
0.047487
0.145144
0.094795
2.048132
0.000000
0.000000
0.000000
0.000000
0.074088
0.060467
0.053506
0.044566
0.039387
0.018723
0.014272
0.018010
0.031122
0.022921
0.034262
0.025775
0.021986
0.043539
0.056542
0.036212
0.051542
0.038545
0.026920
0.089578
0.038612
0.132286
0.092873