<?xml version='1.0' encoding='UTF-8'?>
<VTKFile xmlns='VTK' byte_order='LittleEndian' version='0.1' type='UnstructuredGrid'>
<UnstructuredGrid>
<Piece NumberOfCells='2512' NumberOfPoints='2512'>
<Points>
<DataArray NumberOfComponents='3' type='Float32' Name='Position' format='ascii'>
-0.075000 -0.075000 0.000000
-0.075000 -0.050000 0.000000
-0.075000 -0.025000 0.000000
-0.075000 0.000000 0.000000
-0.075000 0.025000 0.000000
-0.075000 0.050000 0.000000
-0.075000 0.075000 0.000000
-0.075000 0.100000 0.000000
-0.075000 0.125000 0.000000
-0.075000 0.150000 0.000000
-0.075000 0.175000 0.000000
-0.075000 0.200000 0.000000
-0.075000 0.225000 0.000000
-0.075000 0.250000 0.000000
-0.075000 0.275000 0.000000
-0.075000 0.300000 0.000000
-0.075000 0.325000 0.000000
-0.075000 0.350000 0.000000
-0.075000 0.375000 0.000000
-0.075000 0.400000 0.000000
-0.075000 0.425000 0.000000
-0.075000 0.450000 0.000000
-0.075000 0.475000 0.000000
-0.075000 0.500000 0.000000
-0.075000 0.525000 0.000000
-0.075000 0.550000 0.000000
-0.075000 0.575000 0.000000
-0.075000 0.600000 0.000000
-0.050000 -0.075000 0.000000
-0.050000 -0.050000 0.000000
-0.050000 -0.025000 0.000000
-0.050000 0.000000 0.000000
-0.050000 0.025000 0.000000
-0.050000 0.050000 0.000000
-0.050000 0.075000 0.000000
-0.050000 0.100000 0.000000
-0.050000 0.125000 0.000000
-0.050000 0.150000 0.000000
-0.050000 0.175000 0.000000
-0.050000 0.200000 0.000000
-0.050000 0.225000 0.000000
-0.050000 0.250000 0.000000
-0.050000 0.275000 0.000000
-0.050000 0.300000 0.000000
-0.050000 0.325000 0.000000
-0.050000 0.350000 0.000000
-0.050000 0.375000 0.000000
-0.050000 0.400000 0.000000
-0.050000 0.425000 0.000000
-0.050000 0.450000 0.000000
-0.050000 0.475000 0.000000
-0.050000 0.500000 0.000000
-0.050000 0.525000 0.000000
-0.050000 0.550000 0.000000
-0.050000 0.575000 0.000000
-0.050000 0.600000 0.000000
-0.025000 -0.075000 0.000000
-0.025000 -0.050000 0.000000
-0.025000 -0.025000 0.000000
-0.025000 0.000000 0.000000
-0.025000 0.025000 0.000000
-0.025000 0.050000 0.000000
-0.025000 0.075000 0.000000
-0.025000 0.100000 0.000000
-0.025000 0.125000 0.000000
-0.025000 0.150000 0.000000
-0.025000 0.175000 0.000000
-0.025000 0.200000 0.000000
-0.025000 0.225000 0.000000
-0.025000 0.250000 0.000000
-0.025000 0.275000 0.000000
-0.025000 0.300000 0.000000
-0.025000 0.325000 0.000000
-0.025000 0.350000 0.000000
-0.025000 0.375000 0.000000
-0.025000 0.400000 0.000000
-0.025000 0.425000 0.000000
-0.025000 0.450000 0.000000
-0.025000 0.475000 0.000000
-0.025000 0.500000 0.000000
-0.025000 0.525000 0.000000
-0.025000 0.550000 0.000000
-0.025000 0.575000 0.000000
-0.025000 0.600000 0.000000
0.000000 -0.075000 0.000000
0.000000 -0.050000 0.000000
0.000000 -0.025000 0.000000
0.000000 0.000000 0.000000
0.000000 0.025000 0.000000
0.000000 0.050000 0.000000
0.000000 0.075000 0.000000
0.000000 0.100000 0.000000
0.000000 0.125000 0.000000
0.000000 0.150000 0.000000
0.000000 0.175000 0.000000
0.000000 0.200000 0.000000
0.000000 0.225000 0.000000
0.000000 0.250000 0.000000
0.000000 0.275000 0.000000
0.000000 0.300000 0.000000
0.000000 0.325000 0.000000
0.000000 0.350000 0.000000
0.000000 0.375000 0.000000
0.000000 0.400000 0.000000
0.000000 0.425000 0.000000
0.000000 0.450000 0.000000
0.000000 0.475000 0.000000
0.000000 0.500000 0.000000
0.000000 0.525000 0.000000
0.000000 0.550000 0.000000
0.000000 0.575000 0.000000
0.000000 0.600000 0.000000
0.025000 -0.075000 0.000000
0.025000 -0.050000 0.000000
0.025000 -0.025000 0.000000
0.025000 0.000000 0.000000
0.023775 0.024281 0.000000
0.028056 0.049894 0.000000
0.023704 0.074307 0.000000
0.026924 0.096032 0.000000
0.027119 0.141801 0.000000
0.022670 0.169313 0.000000
0.026058 0.198608 0.000000
0.023787 0.223888 0.000000
0.021058 0.260481 0.000000
0.029559 0.283216 0.000000
0.026028 0.306318 0.000000
0.023916 0.329734 0.000000
0.024881 0.359911 0.000000
0.026359 0.382526 0.000000
0.027221 0.405185 0.000000
0.023139 0.429743 0.000000
0.021089 0.465689 0.000000
0.026132 0.495247 0.000000
0.024765 0.517364 0.000000
0.038390 0.533923 0.000000
0.025559 0.578266 0.000000
0.037359 0.600000 0.000000
0.054665 0.600000 0.000000
0.015500 0.600000 0.000000
0.855000 0.625000 0.000000
0.855000 0.650000 0.000000
0.855000 0.675000 0.000000
0.050000 -0.075000 0.000000
0.050000 -0.050000 0.000000
0.050000 -0.025000 0.000000
0.050000 0.000000 0.000000
0.050275 0.026551 0.000000
0.048465 0.052409 0.000000
0.053974 0.083008 0.000000
0.025091 0.118986 0.000000
0.043176 0.157519 0.000000
0.046227 0.189490 0.000000
0.047658 0.216041 0.000000
0.041296 0.243108 0.000000
0.051626 0.264155 0.000000
0.054798 0.292002 0.000000
0.050773 0.316212 0.000000
0.042679 0.345612 0.000000
0.053817 0.372339 0.000000
0.053414 0.397812 0.000000
0.050289 0.422031 0.000000
0.040242 0.446997 0.000000
0.046666 0.468196 0.000000
0.048894 0.494448 0.000000
0.061955 0.524350 0.000000
0.063793 0.548508 0.000000
0.022311 0.551684 0.000000
0.065977 0.581447 0.000000
0.105623 0.577219 0.000000
0.075852 0.600000 0.000000
0.880000 0.625000 0.000000
0.880000 0.650000 0.000000
0.880000 0.675000 0.000000
0.075000 -0.075000 0.000000
0.075000 -0.050000 0.000000
0.075000 -0.025000 0.000000
0.075000 0.000000 0.000000
0.093531 0.037510 0.000000
0.072353 0.023344 0.000000
0.057858 0.105100 0.000000
0.054159 0.125283 0.000000
0.067178 0.147813 0.000000
0.066294 0.172116 0.000000
0.074380 0.193371 0.000000
0.072650 0.216221 0.000000
0.067209 0.243000 0.000000
0.073621 0.271518 0.000000
0.078424 0.297287 0.000000
0.067569 0.330165 0.000000
0.070917 0.354238 0.000000
0.077311 0.381293 0.000000
0.078053 0.405284 0.000000
0.090865 0.434166 0.000000
0.068831 0.435452 0.000000
0.067735 0.477986 0.000000
0.074833 0.502353 0.000000
0.084972 0.531387 0.000000
0.084413 0.564905 0.000000
0.047312 0.565532 0.000000
0.094833 0.600000 0.000000
0.112877 0.600000 0.000000
0.905000 0.625000 0.000000
0.905000 0.650000 0.000000
0.905000 0.675000 0.000000
0.100000 -0.075000 0.000000
0.100000 -0.050000 0.000000
0.100000 -0.025000 0.000000
0.100000 0.000000 0.000000
0.112251 0.021931 0.000000
0.074759 0.052291 0.000000
0.086595 0.096421 0.000000
0.080160 0.125679 0.000000
0.095720 0.163715 0.000000
0.120778 0.166879 0.000000
0.097697 0.183887 0.000000
0.088162 0.234298 0.000000
0.100105 0.260474 0.000000
0.099195 0.283383 0.000000
0.091617 0.319159 0.000000
0.094893 0.342043 0.000000
0.096572 0.366375 0.000000
0.111919 0.387020 0.000000
0.100459 0.408975 0.000000
0.115939 0.437767 0.000000
0.082614 0.456915 0.000000
0.096842 0.480776 0.000000
0.119399 0.486298 0.000000
0.097845 0.507349 0.000000
0.103399 0.540422 0.000000
0.119609 0.554958 0.000000
0.134700 0.577209 0.000000
0.132056 0.600000 0.000000
0.930000 0.625000 0.000000
0.930000 0.650000 0.000000
0.930000 0.675000 0.000000
0.125000 -0.075000 0.000000
0.125000 -0.050000 0.000000
0.125000 -0.025000 0.000000
0.125000 0.000000 0.000000
0.132800 0.031058 0.000000
0.103091 0.060628 0.000000
0.073246 0.074835 0.000000
0.104948 0.114390 0.000000
0.098632 0.138116 0.000000
0.125670 0.146654 0.000000
0.120716 0.199230 0.000000
0.104919 0.216521 0.000000
0.116053 0.235989 0.000000
0.123224 0.264231 0.000000
0.113793 0.302338 0.000000
0.136733 0.311758 0.000000
0.118447 0.327033 0.000000
0.122602 0.359115 0.000000
0.136090 0.378377 0.000000
0.125792 0.406546 0.000000
0.140014 0.426184 0.000000
0.110467 0.460176 0.000000
0.142329 0.474136 0.000000
0.135692 0.530924 0.000000
0.146653 0.552425 0.000000
0.170523 0.600000 0.000000
0.191874 0.574030 0.000000
0.151464 0.600000 0.000000
0.955000 0.625000 0.000000
0.955000 0.650000 0.000000
0.955000 0.675000 0.000000
0.150000 -0.075000 0.000000
0.150000 -0.050000 0.000000
0.150000 -0.025000 0.000000
0.150000 0.000000 0.000000
0.157340 0.023536 0.000000
0.129500 0.053984 0.000000
0.107056 0.080849 0.000000
0.147269 0.103611 0.000000
0.124736 0.115157 0.000000
0.148280 0.159675 0.000000
0.141144 0.184574 0.000000
0.139713 0.211946 0.000000
0.140429 0.236329 0.000000
0.148599 0.262638 0.000000
0.135378 0.283593 0.000000
0.160000 0.314908 0.000000
0.138246 0.343557 0.000000
0.156628 0.360243 0.000000
0.151405 0.400962 0.000000
0.161852 0.438590 0.000000
0.138526 0.452492 0.000000
0.161039 0.489291 0.000000
0.122653 0.512443 0.000000
0.146194 0.506416 0.000000
0.162953 0.531767 0.000000
0.162398 0.576469 0.000000
0.206039 0.600000 0.000000
0.188553 0.600000 0.000000
0.980000 0.625000 0.000000
0.980000 0.650000 0.000000
0.980000 0.675000 0.000000
0.175000 -0.075000 0.000000
0.175000 -0.050000 0.000000
0.175000 -0.025000 0.000000
0.175000 0.000000 0.000000
0.180631 0.027061 0.000000
0.153143 0.050435 0.000000
0.128681 0.082739 0.000000
0.173201 0.110853 0.000000
0.150730 0.124677 0.000000
0.162457 0.146334 0.000000
0.172193 0.176473 0.000000
0.165965 0.195494 0.000000
0.164042 0.223427 0.000000
0.167832 0.249042 0.000000
0.162627 0.289982 0.000000
0.188143 0.327509 0.000000
0.165438 0.336517 0.000000
0.178578 0.366280 0.000000
0.170112 0.387942 0.000000
0.174173 0.417623 0.000000
0.170158 0.463443 0.000000
0.186485 0.485791 0.000000
0.177897 0.510827 0.000000
0.190887 0.532813 0.000000
0.174972 0.554304 0.000000
0.205994 0.551498 0.000000
0.219665 0.574230 0.000000
0.225698 0.600000 0.000000
1.005000 0.625000 0.000000
1.005000 0.650000 0.000000
1.005000 0.675000 0.000000
0.200000 -0.075000 0.000000
0.200000 -0.050000 0.000000
0.200000 -0.025000 0.000000
0.200000 0.000000 0.000000
0.206023 0.024676 0.000000
0.168623 0.065099 0.000000
0.153854 0.080334 0.000000
0.188507 0.092819 0.000000
0.187968 0.128610 0.000000
0.191045 0.152739 0.000000
0.192386 0.195554 0.000000
0.206805 0.239738 0.000000
0.182924 0.231519 0.000000
0.178915 0.273873 0.000000
0.186375 0.298044 0.000000
0.205927 0.308202 0.000000
0.201685 0.345776 0.000000
0.203056 0.369838 0.000000
0.189571 0.400535 0.000000
0.207235 0.423879 0.000000
0.186331 0.441984 0.000000
0.200365 0.459476 0.000000
0.203295 0.509739 0.000000
0.229184 0.501438 0.000000
0.220416 0.527199 0.000000
0.232894 0.551053 0.000000
[...]
<PointData>
<DataArray NumberOfComponents='1' type='Int32' Name='ParticleType' format='ascii'>
3
3
3
3
3
3
3
3
3
3
3
3
3
3
3
3
3
3
3
3
3
3
3
3
3
3
3
3
3
3
3
3
3
3
3
3
3
3
3
3
3
3
3
3
3
3
3
3
3
3
3
3
3
3
3
3
3
3
2
2
2
2
2
2
2
2
2
2
2
2
2
2
2
2
2
2
2
2
2
2
2
2
2
2
3
3
2
2
2
2
2
2
2
2
2
2
2
2
2
2
2
2
2
2
2
2
2
2
2
2
2
2
3
3
2
2
0
0
0
0
0
0
0
0
0
0
0
0
0
0
0
0
0
0
0
0
0
0
0
0
1
1
1
3
3
2
2
0
0
0
0
0
0
0
0
0
0
0
0
0
0
0
0
0
0
0
0
0
0
0
0
1
1
1
3
3
2
2
0
0
0
0
0
0
0
0
0
0
0
0
0
0
0
0
0
0
0
0
0
0
0
0
1
1
1
3
3
2
2
0
0
0
0
0
0
0
0
0
0
0
0
0
0
0
0
0
0
0
0
0
0
0
0
1
1
1
3
3
2
2
0
0
0
0
0
0
0
0
0
0
0
0
0
0
0
0
0
0
0
0
0
0
0
0
1
1
1
3
3
2
2
0
0
0
0
0
0
0
0
0
0
0
0
0
0
0
0
0
0
0
0
0
0
0
0
1
1
1
3
3
2
2
0
0
0
0
0
0
0
0
0
0
0
0
0
0
0
0
0
0
0
0
0
0
0
0
1
1
1
3
3
2
2
0
0
0
0
0
0
0
0
0
0
0
0
0
0
0
0
0
0
0
0
0
0
0
0
1
1
1
3
3
2
2
0
0
0
0
0
0
0
0
0
0
0
0
0
0
0
0
0
0
0
0
0
0
0
0
1
1
1
3
3
2
2
0
0
0
0
0
0
0
0
0
0
0
0
0
0
0
0
0
0
0
0
0
0
0
0
1
1
1
3
3
2
2
0
0
0
0
0
0
0
0
0
0
0
0
0
0
0
0
0
0
0
0
0
0
0
0
1
1
1
3
3
2
2
0
0
0
0
0
0
0
0
0
0
0
0
0
0
0
0
0
0
0
0
0
0
0
0
1
1
1
3
3
2
2
0
0
0
0
0
0
0
0
0
0
0
0
0
0
0
0
0
0
0
0
0
0
0
0
1
1
1
3
3
2
2
0
0
0
0
0
0
0
0
0
0
0
0
0
0
0
0
0
0
0
0
0
0
0
0
1
1
1
3
3
2
2
0
0
0
0
0
0
0
0
0
0
0
0
0
0
0
0
0
0
0
0
0
0
0
0
1
1
1
3
3
2
2
0
0
0
0
0
0
0
0
0
0
0
0
0
0
0
0
0
0
0
0
0
0
0
0
1
1
1
3
3
2
2
0
0
0
0
0
0
0
0
0
0
0
0
0
0
0
0
0
0
0
0
0
0
0
0
3
3
2
2
0
0
0
0
0
0
0
0
0
0
0
0
0
0
0
0
0
0
0
0
0
0
0
0
3
3
2
2
0
0
0
0
0
0
0
0
0
0
0
0
0
0
0
0
0
0
0
0
0
0
0
0
3
3
2
2
0
0
0
0
0
0
0
0
0
0
0
0
0
0
0
0
0
0
0
0
0
0
0
0
3
3
2
2
0
0
0
0
0
0
0
0
0
0
0
0
0
0
0
0
0
0
0
0
0
0
0
0
3
3
2
2
0
0
0
0
0
0
0
0
0
0
0
0
0
0
0
0
0
0
0
0
0
0
0
0
3
3
2
2
0
0
0
0
0
0
0
0
0
0
0
0
0
0
0
0
0
0
0
0
0
0
0
0
3
3
2
2
0
0
0
0
0
0
0
0
0
0
0
0
0
0
0
0
0
0
0
0
0
0
0
0
3
3
2
2
0
0
0
0
0
0
0
0
0
0
0
0
0
0
0
0
0
0
0
0
0
0
0
0
3
3
2
2
0
0
0
0
0
0
0
0
0
0
0
0
0
0
0
0
0
0
0
0
0
0
0
0
3
3
2
2
0
0
0
0
0
0
0
0
0
0
0
0
0
0
0
0
0
0
0
0
0
0
0
0
3
3
2
2
0
0
0
0
0
0
0
0
0
0
0
0
0
0
0
0
0
0
0
0
0
0
0
0
3
3
2
2
0
0
0
0
0
0
0
0
0
0
0
0
0
0
0
0
0
0
0
0
0
0
0
0
3
3
2
2
0
0
0
0
0
0
0
0
0
0
0
0
0
0
0
0
0
0
0
0
0
0
0
0
3
3
2
2
0
0
0
0
0
0
0
0
0
0
0
0
0
0
0
0
0
0
0
0
0
0
0
0
3
3
2
2
0
0
0
0
0
0
0
0
0
0
0
0
0
0
0
0
0
0
0
0
0
0
0
0
3
3
2
2
0
0
0
0
0
0
0
0
0
0
0
0
0
0
0
0
0
0
0
0
0
0
0
0
3
3
2
2
0
0
0
0
0
0
0
0
0
0
0
0
0
0
0
0
0
0
0
0
0
0
0
0
3
3
2
2
0
0
0
0
0
0
0
0
0
0
0
0
0
0
0
0
0
0
0
0
0
0
0
0
3
3
2
2
0
0
0
0
0
0
0
0
0
0
0
0
0
0
0
0
0
0
0
0
0
0
0
0
3
3
2
2
0
0
0
0
0
0
0
0
0
0
0
0
0
0
0
0
0
0
0
0
0
0
0
0
3
3
2
2
0
0
0
0
0
0
0
0
0
0
0
0
0
0
0
0
0
0
0
0
0
0
0
0
3
3
2
2
0
0
0
0
0
0
0
0
0
0
0
0
0
0
0
0
0
0
0
0
0
0
0
0
3
3
2
2
0
0
0
0
0
0
0
0
0
0
0
0
0
0
0
0
0
0
0
0
0
0
0
0
3
3
2
2
0
0
0
0
0
0
0
0
0
0
0
0
0
0
0
0
0
0
0
0
0
0
0
0
3
3
2
2
0
0
0
0
0
0
0
0
0
0
0
0
0
0
0
0
0
0
0
0
0
0
0
0
3
3
2
2
0
0
0
0
0
0
0
0
0
0
0
0
0
0
0
0
0
0
0
0
0
0
0
0
3
3
2
2
0
0
0
0
0
0
0
0
0
0
0
0
0
0
0
0
0
0
0
0
0
0
0
0
3
3
2
2
0
0
0
0
0
0
0
0
0
0
0
0
0
0
0
0
0
0
0
0
0
0
0
0
3
3
2
2
0
0
0
0
0
0
0
0
0
0
0
0
0
0
0
0
0
0
0
0
0
0
0
0
3
3
2
2
0
0
0
0
0
0
0
0
0
0
0
0
0
0
0
0
0
0
0
0
0
0
0
0
3
3
2
2
0
0
0
0
0
0
0
0
0
0
0
0
0
0
0
0
0
0
0
0
0
0
0
0
3
3
2
2
0
0
0
0
0
0
0
0
0
0
0
0
0
0
0
0
0
0
0
0
0
0
0
0
3
3
2
2
0
0
0
0
0
0
0
0
0
0
0
0
0
0
0
0
0
0
0
0
0
0
0
0
3
3
2
2
0
0
0
0
0
0
0
0
0
0
0
0
0
0
0
0
0
0
0
0
0
0
0
0
3
3
2
2
0
0
0
0
0
0
0
0
0
0
0
0
0
0
0
0
0
0
0
0
0
0
0
0
3
3
2
2
0
0
0
0
0
0
0
0
0
0
0
0
0
0
0
0
0
0
0
0
0
0
0
0
3
3
2
2
0
0
0
0
0
0
0
0
0
0
0
0
0
0
0
0
0
0
0
0
0
0
0
0
3
3
2
2
0
0
0
0
0
0
0
0
0
0
0
0
0
0
0
0
0
0
0
0
0
0
0
0
3
3
2
2
0
0
0
0
0
0
0
0
0
0
0
0
0
0
0
0
0
0
0
0
0
0
0
0
3
3
2
2
0
0
0
0
0
0
0
0
0
0
0
0
0
0
0
0
0
0
0
0
0
0
0
0
3
3
2
2
0
0
0
0
0
0
0
0
0
0
0
0
0
0
0
0
0
0
0
0
0
0
0
0
3
3
2
2
0
0
0
0
0
0
0
0
0
0
0
0
0
0
0
0
0
0
0
0
0
0
0
0
3
3
2
2
0
0
0
0
0
0
0
0
0
0
0
0
0
0
0
0
0
0
0
0
0
0
0
0
3
3
2
2
0
0
0
0
0
0
0
0
0
0
0
0
0
0
0
0
0
0
0
0
0
0
0
0
3
3
2
2
0
0
0
0
0
0
0
0
0
0
0
0
0
0
0
0
0
0
0
0
0
0
0
0
3
3
2
2
0
0
0
0
0
0
0
0
0
0
0
0
0
0
0
0
0
0
0
0
0
0
0
0
3
3
2
2
0
0
0
0
0
0
0
0
0
0
0
0
0
0
0
0
0
0
0
0
0
0
0
0
3
3
2
2
0
0
0
0
0
0
0
0
0
0
0
0
0
0
0
0
0
0
0
0
0
0
0
0
3
3
2
2
0
0
0
0
0
0
0
0
0
0
0
0
0
0
0
0
0
0
0
0
0
0
0
0
3
3
2
2
0
0
0
0
0
0
0
0
0
0
0
0
0
0
0
0
0
0
0
0
0
0
0
0
3
3
2
2
0
0
0
0
0
0
0
0
0
0
0
0
0
0
0
0
0
0
0
0
0
0
0
0
3
3
2
2
0
0
0
0
0
0
0
0
0
0
0
0
0
0
0
0
0
0
0
0
0
0
0
0
3
3
2
2
0
0
0
0
0
0
0
0
0
0
0
0
0
0
0
0
0
0
0
0
0
0
0
0
3
3
2
2
0
0
0
0
0
0
0
0
0
0
0
0
0
0
0
0
0
0
0
0
0
0
0
0
3
3
2
2
0
0
0
0
0
0
0
0
0
0
0
0
0
0
0
0
0
0
0
0
0
0
0
0
3
3
2
2
0
0
0
0
0
0
0
0
0
0
0
0
0
0
0
0
0
0
0
0
0
0
0
0
3
3
2
2
0
0
0
0
0
0
0
0
0
0
0
0
0
0
0
0
0
0
0
0
0
0
0
0
3
3
2
2
0
0
0
0
0
0
0
0
0
0
0
0
0
0
0
0
0
0
0
0
0
0
0
0
3
3
2
2
0
0
0
0
0
0
0
0
0
0
0
0
0
0
0
0
0
0
0
0
0
0
0
0
3
3
2
2
0
0
0
0
0
0
0
0
0
0
0
0
0
0
0
0
0
0
0
0
0
0
0
0
3
3
2
2
0
0
0
0
0
0
0
0
0
0
0
0
0
0
0
0
0
0
0
0
0
0
0
0
3
3
2
2
0
0
0
0
0
0
0
0
0
0
0
0
0
0
0
0
0
0
0
0
0
0
0
0
3
3
2
2
0
0
0
0
0
0
0
0
0
0
0
0
0
0
0
0
0
0
0
0
0
0
0
0
3
3
2
2
2
2
2
2
2
2
2
2
2
2
2
2
2
2
2
2
2
2
2
2
2
2
2
2
3
3
2
2
2
2
2
2
2
2
2
2
2
2
2
2
2
2
2
2
2
2
2
2
2
2
2
2
3
3
3
3
3
3
3
3
3
3
3
3
3
3
3
3
3
3
3
3
3
3
3
3
3
3
3
3
3
3
3
3
3
3
3
3
3
3
3
3
3
3
3
3
3
3
3
3
3
3
3
3
3
3
3
3
</DataArray>
<DataArray NumberOfComponents='1' type='Float32' Name='Velocity' format='ascii'>
0.000000
0.000000
0.000000
0.000000
0.000000
0.000000
0.000000
0.000000
0.000000
0.000000
0.000000
0.000000
0.000000
0.000000
0.000000
0.000000
0.000000
0.000000
0.000000
0.000000
0.000000
0.000000
0.000000
0.000000
0.000000
0.000000
0.000000
0.000000
0.000000
0.000000
0.000000
0.000000
0.000000
0.000000
0.000000
0.000000
0.000000
0.000000
0.000000
0.000000
0.000000
0.000000
0.000000
0.000000
0.000000
0.000000
0.000000
0.000000
0.000000
0.000000
0.000000
0.000000
0.000000
0.000000
0.000000
0.000000
0.000000
0.000000
0.000000
0.000000
0.000000
0.000000
0.000000
0.000000
0.000000
0.000000
0.000000
0.000000
0.000000
0.000000
0.000000
0.000000
0.000000
0.000000
0.000000
0.000000
0.000000
0.000000
0.000000
0.000000
0.000000
0.000000
0.000000
0.000000
0.000000
0.000000
0.000000
0.000000
0.000000
0.000000
0.000000
0.000000
0.000000
0.000000
0.000000
0.000000
0.000000
0.000000
0.000000
0.000000
0.000000
0.000000
0.000000
0.000000
0.000000
0.000000
0.000000
0.000000
0.000000
0.000000
0.000000
0.000000
0.000000
0.000000
0.000000
0.000000
0.052548
0.047249
0.137307
0.054601
0.219669
0.129871
0.011253
0.172807
0.156136
0.111645
0.095616
0.101114
0.188062
0.205364
0.175593
0.318946
0.144857
0.174750
0.027467
0.045728
0.416864
75.095528
53.964783
75.891075
1.000000
1.000000
1.000000
0.000000
0.000000
0.000000
0.000000
0.091173
0.151523
0.166877
0.168101
0.164264
0.066496
0.084896
0.072902
0.185968
0.194064
0.296012
0.095377
0.082203
0.045750
0.104791
0.174071
0.164458
0.162898
0.206847
0.176409
0.161788
1.240455
0.337884
56.785404
1.000000
1.000000
1.000000
0.000000
0.000000
0.000000
0.000000
0.147253
0.049952
0.369381
0.375165
0.313352
0.187733
0.116706
0.094990
0.178236
0.101326
0.186542
0.313406
0.119563
0.129448
0.144092
0.155222
0.089509
0.127463
0.176477
0.203474
0.469514
0.317050
42.388447
40.954258
1.000000
1.000000
1.000000
0.000000
0.000000
0.000000
0.000000
0.088601
0.033658
0.095213
0.124331
0.127775
0.068415
0.127180
0.272572
0.252212
0.209955
0.148054
0.198667
0.242903
0.158114
0.155418
0.224719
0.145368
0.146304
0.174080
0.396287
0.084646
0.718190
0.631396
49.117672
1.000000
1.000000
1.000000
0.000000
0.000000
0.000000
0.000000
0.213497
0.100456
0.232510
0.172307
0.099443
0.013382
0.148481
0.202040
0.274018
0.230629
0.083592
0.168351
0.170638
0.346398
0.138345
0.169539
0.299672
0.284987
0.271515
0.178101
0.363885
27.801579
0.237267
49.904858
1.000000
1.000000
1.000000
0.000000
0.000000
0.000000
0.000000
0.169539
0.203085
0.200384
0.069042
0.273513
0.046484
0.162184
0.057870
0.123874
0.204554
0.110686
0.123292
0.082223
0.095200
0.072454
0.129947
0.106067
0.158997
0.176097
0.285711
0.099070
0.299128
53.881603
52.434879
1.000000
1.000000
1.000000
0.000000
0.000000
0.000000
0.000000
0.096781
0.271605
0.058778
0.167780
0.288659
0.238550
0.403874
0.240680
0.183106
0.410289
0.067233
0.271184
0.155631
0.128441
0.138329
0.331070
0.155552
0.101798
0.068192
0.204912
0.182393
0.276977
0.371747
46.905979
1.000000
1.000000
1.000000
0.000000
0.000000
0.000000
0.000000
0.091339
0.186939
0.423934
0.318892
0.186324
0.041667
0.137425
0.115634
0.232333
0.240373
0.147436
0.165289
0.087526
0.266874
0.215189
0.333967
0.237332
0.237101
0.210196
0.162900
0.303962
0.198168
0.442759
47.171448
1.000000
1.000000
1.000000
0.000000
0.000000
0.000000
0.000000
0.131048
0.041015
0.102129
0.142391
0.167581
0.218148
0.272302
0.198127
0.264408
0.221054
0.241505
0.117938
0.244650
0.089908
0.072769
0.344296
0.239077
0.050398
0.166049
0.303950
0.237035
0.373704
0.464732
47.099396
1.000000
1.000000
1.000000
0.000000
0.000000
0.000000
0.000000
0.121915
0.144609
0.079815
0.013750
0.040062
0.171148
0.226117
0.144801
0.025485
0.157469
0.109067
0.177289
0.165790
0.258279
0.203692
0.294977
0.201504
0.331604
0.218871
0.410518
0.258747
0.675882
35.803127
41.828556
1.000000
1.000000
1.000000
0.000000
0.000000
0.000000
0.000000
0.067866
0.071300
0.103093
0.170363
0.114536
0.068359
0.079041
0.050840
0.150255
0.218985
0.225280
0.192913
0.077372
0.052289
0.142357
0.009893
0.202888
0.030819
0.207412
0.394311
0.426201
0.599203
0.573906
35.921097
1.000000
1.000000
1.000000
0.000000
0.000000
0.000000
0.000000
0.086548
0.058087
0.122072
0.084678
0.091490
0.096244
0.165301
0.082854
0.091056
0.251462
0.076841
0.049560
0.188292
0.026481
0.128562
0.046068
0.099860
0.181302
0.268773
0.436949
0.320533
0.580632
39.900410
42.308292
1.000000
1.000000
1.000000
0.000000
0.000000
0.000000
0.000000
0.010084
0.076445
0.261066
0.061959
0.114130
0.140703
0.162384
0.064372
0.166563
0.095687
0.172632
0.155110
0.273617
0.098798
0.022544
0.044639
0.015472
0.326073
0.146696
0.261465
0.158683
0.493339
0.103923
40.176155
1.000000
1.000000
1.000000
0.000000
0.000000
0.000000
0.000000
0.049858
0.178474
0.077980
0.176632
0.050507
0.195163
0.130051
0.069805
0.132238
0.283256
0.097468
0.161382
0.121379
0.077525
0.132572
0.067515
0.075469
0.097145
0.134095
0.344280
0.303636
0.324712
0.428216
37.614445
1.000000
1.000000
1.000000
0.000000
0.000000
0.000000
0.000000
0.041987
0.141939
0.072552
0.027393
0.170314
0.055979
0.063087
0.088476
0.119059
0.131741
0.061030
0.152178
0.167348
0.101024
0.273951
0.019425
0.299009
0.022122
0.125886
0.215629
0.183648
0.301470
32.281406
43.607990
1.000000
1.000000
1.000000
0.000000
0.000000
0.000000
0.000000
0.029750
0.146358
0.131508
0.147337
0.174603
0.040730
0.085673
0.106355
0.155361
0.036739
0.075845
0.201216
0.065229
0.181226
0.184124
0.120718
0.161374
0.140125
0.092836
0.133239
0.036327
0.094948
0.176009
43.217350
1.000000
1.000000
1.000000
0.000000
0.000000
0.000000
0.000000
0.064880
0.046998
0.071983
0.010912
0.130489
0.066924
0.073977
0.179425
0.163346
0.079905
0.069441
0.162575
0.036359
0.111417
0.301648
0.147278
0.163020
0.172826
0.085491
0.324950
0.149007
0.643903
0.219082
46.323395
0.000000
0.000000
0.000000
0.000000
0.039564
0.235062
0.087829
0.040566
0.282624
0.041455
0.033109
0.030140
0.090166
0.093166
0.149416
0.079272
0.135597
0.214293
0.104581
0.109639
0.178374
0.230720
0.389154
0.190294
0.145058
0.727324
0.347525
47.218723
0.000000
0.000000
0.000000
0.000000
0.090391
0.116566
0.075608
0.152229
0.091727
0.086121
0.084960
0.030859
0.237102
0.097765
0.102298
0.081986
0.168260
0.123575
0.159394
0.044065
0.142379
0.128493
0.262491
0.489089
0.249352
0.738579
0.699392
41.457661
0.000000
0.000000
0.000000
0.000000
0.034621
0.168917
0.030974
0.154166
0.087709
0.051390
0.185348
0.088305
0.032984
0.098619
0.105906
0.158300
0.062225
0.061122
0.029256
0.060474
0.208920
0.047101
0.459500
0.222199
0.448187
0.202603
39.779518
56.143520
0.000000
0.000000
0.000000
0.000000
0.112036
0.066310
0.199694
0.130939
0.140350
0.119881
0.080729
0.065080
0.136321
0.084512
0.143566
0.117717
0.093067
0.040826
0.165743
0.091423
0.189244
0.200993
0.134375
0.206134
0.782716
0.449639
40.315506
48.310818
0.000000
0.000000
0.000000
0.000000
0.166791
0.112893
0.082279
0.149758
0.115229
0.152602
0.048890
0.227202
0.069272
0.105708
0.080639
0.132334
0.093674
0.056837
0.034778
0.155481
0.223770
0.258208
0.312098
0.538029
0.097952
0.545840
0.181852
49.344276
0.000000
0.000000
0.000000
0.000000
0.052791
0.084562
0.148419
0.016738
0.060286
0.051466
0.033248
0.046032
0.025689
0.085494
0.028862
0.092271
0.193320
0.042309
0.126042
0.170828
0.343498
0.075031
0.191115
0.113218
0.283797
0.271152
51.985016
36.957081
0.000000
0.000000
0.000000
0.000000
0.082712
0.031510
0.046229
0.032517
0.022787
0.052866
0.019769
0.032929
0.237743
0.039853
0.095902
0.034774
0.235320
0.032257
0.126348
0.286435
0.095827
0.242572
0.279433
0.243442
0.143649
0.071953
0.216596
33.988914
0.000000
0.000000
0.000000
0.000000
0.057144
0.042869
0.046039
0.123804
0.093818
0.098334
0.058334
0.092283
0.072361
0.096896
0.053664
0.133177
0.118676
0.076873
0.219459
0.211374
0.055708
0.070777
0.022359
0.171333
0.406323
0.233784
0.300355
44.559917
0.000000
0.000000
0.000000
0.000000
0.057403
0.042188
0.064577
0.129999
0.057873
0.107643
0.081211
0.148556
0.027202
0.133761
0.103812
0.099934
0.083222
0.097199
0.121491
0.214950
0.241557
0.110552
0.034972
0.168189
0.204584
0.153678
0.524563
56.890026
0.000000
0.000000
0.000000
0.000000
0.062885
0.040184
0.118388
0.022257
0.117815
0.110298
0.029544
0.056852
0.003490
0.154273
0.114432
0.060804
0.147243
0.145512
0.165437
0.193867
0.030255
0.200828
0.213412
0.070743
0.126515
0.183049
0.192076
57.449940
0.000000
0.000000
0.000000
0.000000
0.065417
0.061958
0.099881
0.083288
0.030749
0.015931
0.076861
0.139720
0.061320
0.070127
0.189354
0.052035
0.031632
0.045513
0.033749
0.229378
0.197886
0.152466
0.068578
0.233035
0.213464
0.079063
0.159656
44.874565
0.000000
0.000000
0.000000
0.000000
0.043722
0.094078
0.074639
0.118899
0.076294
0.227955
0.069845
0.077554
0.132883
0.054496
0.060643
0.088806
0.045250
0.135684
0.149230
0.169903
0.249960
0.091610
0.080274
0.300930
0.097566
0.153920
0.318817
49.063705
0.000000
0.000000
0.000000
0.000000
0.046150
0.036436
0.056107
0.042811
0.103389
0.055540
0.056870
0.055167
0.060353
0.116928
0.097072
0.036798
0.095341
0.075354
0.091899
0.111769
0.172916
0.191953
0.118355
0.150582
0.054869
0.071076
0.507314
39.838062
0.000000
0.000000
0.000000
0.000000
0.034426
0.102756
0.066072
0.115761
0.075907
0.160427
0.105409
0.121778
0.115590
0.085402
0.121939
0.028285
0.093397
0.105171
0.106994
0.101021
0.134404
0.127853
0.139958
0.143050
0.274970
0.076217
0.515290
36.789352
0.000000
0.000000
0.000000
0.000000
0.089933
0.048647
0.040082
0.068194
0.089071
0.033035
0.019747
0.055389
0.108820
0.118984
0.112589
0.034423
0.124635
0.031111
0.200316
0.132078
0.228293
0.122138
0.247734
0.046721
0.339761
0.145866
0.425602
41.015537
0.000000
0.000000
0.000000
0.000000
0.092483
0.090393
0.064474
0.037271
0.113398
0.204742
0.086851
0.067800
0.144582
0.083173
0.124984
0.051253
0.088524
0.148415
0.091874
0.099397
0.061110
0.278101
0.188880
0.126104
0.317581
0.055978
0.095251
23.305082
0.000000
0.000000
0.000000
0.000000
0.055956
0.074875
0.025337
0.054235
0.079201
0.159864
0.046443
0.055611
0.012058
0.116651
0.084968
0.027201
0.099237
0.029890
0.091390
0.069310
0.141817
0.178948
0.143842
0.055118
0.527756
0.183585
0.404799
16.766039
0.000000
0.000000
0.000000
0.000000
0.088455
0.082369
0.128805
0.054395
0.068904
0.107544
0.098123
0.013006
0.111001
0.030274
0.116672
0.030984
0.120841
0.089735
0.172842
0.081786
0.072387
0.141430
0.076196
0.051806
0.337066
0.176966
0.436436
9.413835
0.000000
0.000000
0.000000
0.000000
0.054958
0.017976
0.033994
0.053135
0.053433
0.158379
0.050919
0.078945
0.033305
0.057479
0.128996
0.040879
0.086733
0.072987
0.124060
0.144466
0.125020
0.032097
0.212669
0.259811
0.294462
0.206521
0.085392
9.401844
0.000000
0.000000
0.000000
0.000000
0.012868
0.039218
0.035063
0.034794
0.049295
0.107584
0.064529
0.043098
0.061077
0.085126
0.137796
0.022520
0.175428
0.095049
0.153527
0.024804
0.096561
0.139134
0.053026
0.215694
0.055178
0.081562
0.435184
5.996295
0.000000
0.000000
0.000000
0.000000
0.062893
0.040075
0.041527
0.028894
0.042563
0.076233
0.094831
0.086484
0.044427
0.034319
0.077514
0.080854
0.087316
0.080346
0.107969
0.162063
0.081135
0.177651
0.159770
0.191398
0.204837
0.098708
0.654541
10.966436
0.000000
0.000000
0.000000
0.000000
0.027648
0.064423
0.038251
0.014765
0.077010
0.135585
0.055537
0.021777
0.038464
0.060804
0.144222
0.049889
0.114076
0.069566
0.058547
0.032459
0.175792
0.149149
0.119098
0.194695
0.133699
0.033746
0.036649
6.259325
0.000000
0.000000
0.000000
0.000000
0.074214
0.025045
0.041011
0.031343
0.091733
0.084876
0.108585
0.083336
0.062238
0.085582
0.042822
0.086833
0.088263
0.082845
0.138822
0.018351
0.091842
0.134571
0.103594
0.224503
0.296330
0.320823
0.546496
8.483458
0.000000
0.000000
0.000000
0.000000
0.048583
0.077384
0.072333
0.024438
0.055542
0.147370
0.041841
0.062282
0.054186
0.053099
0.050367
0.117281
0.092312
0.081069
0.202451
0.087470
0.145993
0.077796
0.139492
0.181446
0.236757
0.100096
0.282260
10.955256
0.000000
0.000000
0.000000
0.000000
0.039293
0.030548
0.076661
0.015672
0.083688
0.076996
0.173574
0.016105
0.125991
0.086701
0.069016
0.027901
0.013926
0.124885
0.017099
0.022565
0.148995
0.142193
0.162718
0.104858
0.083404
0.089282
0.275253
12.557657
0.000000
0.000000
0.000000
0.000000
0.056870
0.084164
0.100906
0.099986
0.059085
0.021794
0.017850
0.168939
0.100031
0.132382
0.060638
0.020955
0.058000
0.045686
0.151228
0.171046
0.037008
0.146426
0.109040
0.030438
0.091677
0.139488
0.182204
22.212231
0.000000
0.000000
0.000000
0.000000
0.024047
0.046799
0.078346
0.168911
0.062421
0.056071
0.076077
0.069482
0.151761
0.101928
0.079501
0.090699
0.028459
0.095363
0.073075
0.108199
0.225653
0.218507
0.150270
0.288115
0.035319
0.058900
0.386506
23.306517
0.000000
0.000000
0.000000
0.000000
0.006672
0.067187
0.106706
0.112196
0.140581
0.137024
0.046663
0.157753
0.128548
0.044903
0.044740
0.107404
0.014434
0.097561
0.049924
0.093363
0.222465
0.105770
0.162041
0.097046
0.146266
0.205858
14.578645
30.023045
0.000000
0.000000
0.000000
0.000000
0.008389
0.051693
0.037479
0.140792
0.102117
0.035016
0.003782
0.111608
0.036799
0.091302
0.175448
0.093753
0.060618
0.192538
0.026621
0.314868
0.250097
0.107441
0.062690
0.252774
0.318174
0.145738
0.191473
38.263653
0.000000
0.000000
0.000000
0.000000
0.042250
0.031001
0.085306
0.078373
0.098597
0.049045
0.082178
0.019321
0.057367
0.172731
0.019699
0.122965
0.141499
0.284315
0.136175
0.151637
0.120399
0.059593
0.183075
0.283577
0.240937
0.282378
0.207461
44.878098
0.000000
0.000000
0.000000
0.000000
0.021672
0.022449
0.038132
0.080500
0.132304
0.044358
0.094261
0.025755
0.075254
0.094755
0.106345
0.047483
0.098438
0.145666
0.159966
0.192881
0.019225
0.107717
0.179136
0.192503
0.145562
0.186785
0.274587
46.709515
0.000000
0.000000
0.000000
0.000000
0.021766
0.089655
0.059237
0.021128
0.030463
0.191589
0.084540
0.150321
0.104616
0.121521
0.058844
0.131481
0.159292
0.130196
0.051841
0.199223
0.209281
0.167012
0.092157
0.158902
0.344950
0.350805
50.147205
52.004261
0.000000
0.000000
0.000000
0.000000
0.010614
0.051179
0.036911
0.032118
0.130412
0.045205
0.046376
0.142903
0.090543
0.110198
0.072344
0.114268
0.112640
0.188933
0.111307
0.186940
0.063516
0.087279
0.219774
0.062143
0.299074
0.100215
0.215839
57.349522
0.000000
0.000000
0.000000
0.000000
0.011777
0.051721
0.102506
0.081912
0.245183
0.162999
0.222162
0.151154
0.036437
0.128901
0.121955
0.082641
0.204170
0.023003
0.126435
0.273272
0.224528
0.174088
0.204103
0.117855
0.176785
0.230258
35.284302
52.469536
0.000000
0.000000
0.000000
0.000000
0.118388
0.113868
0.148558
0.172725
0.099416
0.139236
0.093394
0.100204
0.067305
0.105508
0.059372
0.199250
0.318040
0.439207
0.039501
0.262727
0.091583
0.208513
0.222321
0.305262
0.450681
0.020664
0.319245
49.161137
0.000000
0.000000
0.000000
0.000000
0.044972
0.090549
0.110442
0.038479
0.034309
0.051292
0.144900
0.100456
0.078981
0.221069
0.198096
0.102579
0.127310
0.182099
0.152586
0.160041