<?xml version='1.0' encoding='UTF-8'?>
<VTKFile xmlns='VTK' byte_order='LittleEndian' version='0.1' type='UnstructuredGrid'>
<UnstructuredGrid>
<Piece NumberOfCells='2512' NumberOfPoints='2512'>
<Points>
<DataArray NumberOfComponents='3' type='Float32' Name='Position' format='ascii'>
-0.075000 -0.075000 0.000000
-0.075000 -0.050000 0.000000
-0.075000 -0.025000 0.000000
-0.075000 0.000000 0.000000
-0.075000 0.025000 0.000000
-0.075000 0.050000 0.000000
-0.075000 0.075000 0.000000
-0.075000 0.100000 0.000000
-0.075000 0.125000 0.000000
-0.075000 0.150000 0.000000
-0.075000 0.175000 0.000000
-0.075000 0.200000 0.000000
-0.075000 0.225000 0.000000
-0.075000 0.250000 0.000000
-0.075000 0.275000 0.000000
-0.075000 0.300000 0.000000
-0.075000 0.325000 0.000000
-0.075000 0.350000 0.000000
-0.075000 0.375000 0.000000
-0.075000 0.400000 0.000000
-0.075000 0.425000 0.000000
-0.075000 0.450000 0.000000
-0.075000 0.475000 0.000000
-0.075000 0.500000 0.000000
-0.075000 0.525000 0.000000
-0.075000 0.550000 0.000000
-0.075000 0.575000 0.000000
-0.075000 0.600000 0.000000
-0.050000 -0.075000 0.000000
-0.050000 -0.050000 0.000000
-0.050000 -0.025000 0.000000
-0.050000 0.000000 0.000000
-0.050000 0.025000 0.000000
-0.050000 0.050000 0.000000
-0.050000 0.075000 0.000000
-0.050000 0.100000 0.000000
-0.050000 0.125000 0.000000
-0.050000 0.150000 0.000000
-0.050000 0.175000 0.000000
-0.050000 0.200000 0.000000
-0.050000 0.225000 0.000000
-0.050000 0.250000 0.000000
-0.050000 0.275000 0.000000
-0.050000 0.300000 0.000000
-0.050000 0.325000 0.000000
-0.050000 0.350000 0.000000
-0.050000 0.375000 0.000000
-0.050000 0.400000 0.000000
-0.050000 0.425000 0.000000
-0.050000 0.450000 0.000000
-0.050000 0.475000 0.000000
-0.050000 0.500000 0.000000
-0.050000 0.525000 0.000000
-0.050000 0.550000 0.000000
-0.050000 0.575000 0.000000
-0.050000 0.600000 0.000000
-0.025000 -0.075000 0.000000
-0.025000 -0.050000 0.000000
-0.025000 -0.025000 0.000000
-0.025000 0.000000 0.000000
-0.025000 0.025000 0.000000
-0.025000 0.050000 0.000000
-0.025000 0.075000 0.000000
-0.025000 0.100000 0.000000
-0.025000 0.125000 0.000000
-0.025000 0.150000 0.000000
-0.025000 0.175000 0.000000
-0.025000 0.200000 0.000000
-0.025000 0.225000 0.000000
-0.025000 0.250000 0.000000
-0.025000 0.275000 0.000000
-0.025000 0.300000 0.000000
-0.025000 0.325000 0.000000
-0.025000 0.350000 0.000000
-0.025000 0.375000 0.000000
-0.025000 0.400000 0.000000
-0.025000 0.425000 0.000000
-0.025000 0.450000 0.000000
-0.025000 0.475000 0.000000
-0.025000 0.500000 0.000000
-0.025000 0.525000 0.000000
-0.025000 0.550000 0.000000
-0.025000 0.575000 0.000000
-0.025000 0.600000 0.000000
0.000000 -0.075000 0.000000
0.000000 -0.050000 0.000000
0.000000 -0.025000 0.000000
0.000000 0.000000 0.000000
0.000000 0.025000 0.000000
0.000000 0.050000 0.000000
0.000000 0.075000 0.000000
0.000000 0.100000 0.000000
0.000000 0.125000 0.000000
0.000000 0.150000 0.000000
0.000000 0.175000 0.000000
0.000000 0.200000 0.000000
0.000000 0.225000 0.000000
0.000000 0.250000 0.000000
0.000000 0.275000 0.000000
0.000000 0.300000 0.000000
0.000000 0.325000 0.000000
0.000000 0.350000 0.000000
0.000000 0.375000 0.000000
0.000000 0.400000 0.000000
0.000000 0.425000 0.000000
0.000000 0.450000 0.000000
0.000000 0.475000 0.000000
0.000000 0.500000 0.000000
0.000000 0.525000 0.000000
0.000000 0.550000 0.000000
0.000000 0.575000 0.000000
0.000000 0.600000 0.000000
0.025000 -0.075000 0.000000
0.025000 -0.050000 0.000000
0.025000 -0.025000 0.000000
0.025000 0.000000 0.000000
-3163.025016 0.600000 0.000000
80.904914 -139.783969 0.000000
-27.317700 -47.325740 0.000000
19.523938 -46.275661 0.000000
0.171334 0.025658 0.000000
-71517648.073338 0.600000 0.000000
11.921430 -86.448422 0.000000
34.869154 -64.081422 0.000000
-51.746114 -10.380923 0.000000
12.668697 -378.421132 0.000000
632.376401 -2185.845515 0.000000
41.732434 -278.090633 0.000000
57954.510964 0.600000 0.000000
-21271.040950 0.600000 0.000000
-101.627849 0.600000 0.000000
-318.374424 -612.272355 0.000000
-91.674203 -91.108462 0.000000
796.645312 -1111.940465 0.000000
81.928425 -95.675003 0.000000
-1275.785852 0.600000 0.000000
326.982950 -699.122575 0.000000
-840.265238 0.600000 0.000000
-1940.407605 0.600000 0.000000
63615973.114617 0.600000 0.000000
1.765000 0.625000 0.000000
1.765000 0.650000 0.000000
1.765000 0.675000 0.000000
0.050000 -0.075000 0.000000
0.050000 -0.050000 0.000000
0.050000 -0.025000 0.000000
0.050000 0.000000 0.000000
-104.263761 0.600000 0.000000
-93.840717 -30.014288 0.000000
1374.440411 0.600000 0.000000
71.974671 0.600000 0.000000
3984.857874 0.600000 0.000000
-25.681425 -19.708241 0.000000
-23.844225 -48.291132 0.000000
-7.453019 0.144342 0.000000
-17125.436299 -31895.397262 0.000000
16634.343754 0.600000 0.000000
7.398674 -96.974835 0.000000
82.906543 -80.293624 0.000000
-214.602145 -84.495950 0.000000
2247.322544 0.406495 0.000000
17577.125230 0.600000 0.000000
-836.138706 0.600000 0.000000
-101.381999 -51.472445 0.000000
-312.622494 0.600000 0.000000
1603.720059 0.600000 0.000000
-224.169405 -296.872546 0.000000
1101.789697 0.600000 0.000000
21121.061130 -4405.880544 0.000000
209.002307 -859.741189 0.000000
2276.705985 0.600000 0.000000
1.790000 0.625000 0.000000
1.790000 0.650000 0.000000
1.790000 0.675000 0.000000
0.075000 -0.075000 0.000000
0.075000 -0.050000 0.000000
0.075000 -0.025000 0.000000
0.075000 0.000000 0.000000
-70.156605 -71.412221 0.000000
26371.349979 0.600000 0.000000
23.541632 0.600000 0.000000
-3414.223410 0.600000 0.000000
-55.485917 -40.081094 0.000000
202.690962 0.600000 0.000000
36.769281 -176.591354 0.000000
4009.371366 0.600000 0.000000
776.284140 0.600000 0.000000
40.494636 -481.227103 0.000000
130.506444 -129.727984 0.000000
-1431.792408 0.600000 0.000000
-669.077717 0.600000 0.000000
994.687339 -659.222197 0.000000
719.722161 0.600000 0.000000
25.743393 -2.864899 0.000000
4000.553185 -1591.845745 0.000000
0.573996 0.033457 0.000000
273.126384 -216.285825 0.000000
65.110483 -94.008134 0.000000
5245.578739 0.600000 0.000000
-95.509325 -263.742131 0.000000
-7345.882641 0.600000 0.000000
-1642.302331 0.600000 0.000000
1.815000 0.625000 0.000000
1.815000 0.650000 0.000000
1.815000 0.675000 0.000000
0.100000 -0.075000 0.000000
0.100000 -0.050000 0.000000
0.100000 -0.025000 0.000000
0.100000 0.000000 0.000000
-2591.778063 0.423025 0.000000
121194320.725641 0.600000 0.000000
-873.801787 -831.401182 0.000000
100526.062237 0.600000 0.000000
-7966.067326 0.600000 0.000000
-5.267015 0.600000 0.000000
-170584.771416 0.600000 0.000000
133.832089 -3.257665 0.000000
20.692801 -31.408592 0.000000
85.592499 -39.721676 0.000000
-31.884470 -56.902066 0.000000
-2481.730696 0.600000 0.000000
-174.425559 0.600000 0.000000
272.538362 -67.386814 0.000000
-197.158536 0.600000 0.000000
-159.488731 -135.693092 0.000000
0.050771 0.023508 0.000000
-31.037687 0.600000 0.000000
80.136093 -53.795383 0.000000
-250.228362 0.600000 0.000000
1.072032 0.021261 0.000000
112.458261 -167.723206 0.000000
2531.194853 0.600000 0.000000
-31797.675635 0.600000 0.000000
1.840000 0.625000 0.000000
1.840000 0.650000 0.000000
1.840000 0.675000 0.000000
0.125000 -0.075000 0.000000
0.125000 -0.050000 0.000000
0.125000 -0.025000 0.000000
0.125000 0.000000 0.000000
-717.956316 0.600000 0.000000
2248.819082 0.600000 0.000000
-2096.516764 0.600000 0.000000
-646.442965 0.600000 0.000000
8.472659 -52.956535 0.000000
156.509800 -111.231842 0.000000
-920.188101 0.600000 0.000000
-16.062839 -106.318719 0.000000
61553.148368 0.600000 0.000000
-392.357403 -1293.770814 0.000000
-522.885684 0.600000 0.000000
-8020.562158 0.600000 0.000000
-24.662683 -3.756538 0.000000
-352.288418 0.565096 0.000000
-494.136934 0.600000 0.000000
-728.990202 0.600000 0.000000
7223.889050 0.600000 0.000000
1552.548991 0.600000 0.000000
-33.432951 -126.373061 0.000000
-268.929616 -167.959709 0.000000
-150.723430 -2.619373 0.000000
3100.475532 0.600000 0.000000
766822.591658 0.600000 0.000000
-244141.710106 0.600000 0.000000
1.865000 0.625000 0.000000
1.865000 0.650000 0.000000
1.865000 0.675000 0.000000
0.150000 -0.075000 0.000000
0.150000 -0.050000 0.000000
0.150000 -0.025000 0.000000
0.150000 0.000000 0.000000
-44.438308 -0.061802 0.000000
-1676.820062 0.600000 0.000000
-1.544382 -54.040457 0.000000
-192.009533 -119.199228 0.000000
-5728.866949 0.600000 0.000000
1.109536 0.030495 0.000000
347.864117 0.600000 0.000000
9.758106 -29.800057 0.000000
-199.666488 0.600000 0.000000
-4916.251222 0.600000 0.000000
-605.442863 -273.523937 0.000000
29.362677 -69.859053 0.000000
-101.913091 -93.384881 0.000000
-32755.162253 0.600000 0.000000
-9845.224727 0.600000 0.000000
-190.745279 -78.326286 0.000000
-252.471429 0.600000 0.000000
12.457030 -5341.665188 0.000000
10208.146032 0.600000 0.000000
7061.008094 0.600000 0.000000
-9859.806896 0.600000 0.000000
163.901614 -396.208751 0.000000
4032.401114 0.600000 0.000000
1626.848906 0.600000 0.000000
1.890000 0.625000 0.000000
1.890000 0.650000 0.000000
1.890000 0.675000 0.000000
0.175000 -0.075000 0.000000
0.175000 -0.050000 0.000000
0.175000 -0.025000 0.000000
0.175000 0.000000 0.000000
-446.558591 0.600000 0.000000
-5012.572654 0.600000 0.000000
10.990028 -46.017844 0.000000
80926.757165 0.600000 0.000000
911.646693 0.600000 0.000000
-204.624116 -157.391613 0.000000
23.470427 -198.567649 0.000000
305.894154 0.600000 0.000000
-1974.248721 0.600000 0.000000
-1153.583648 -589.792392 0.000000
23566.016658 0.600000 0.000000
-3649.435788 0.600000 0.000000
3992.676435 0.600000 0.000000
6404.206411 0.600000 0.000000
2368.894609 -1140.953054 0.000000
-606.974094 0.600000 0.000000
-5616.616802 -12539.749961 0.000000
5224.789871 0.600000 0.000000
28532304.371441 0.600000 0.000000
943.114932 0.600000 0.000000
9945.873568 0.600000 0.000000
-786.264669 -363.712684 0.000000
-114.470750 -704.722633 0.000000
2847.120933 0.600000 0.000000
1.915000 0.625000 0.000000
1.915000 0.650000 0.000000
1.915000 0.675000 0.000000
0.200000 -0.075000 0.000000
0.200000 -0.050000 0.000000
[...]
<PointData>
<DataArray NumberOfComponents='1' type='Int32' Name='ParticleType' format='ascii'>
3
3
3
3
3
3
3
3
3
3
3
3
3
3
3
3
3
3
3
3
3
3
3
3
3
3
3
3
3
3
3
3
3
3
3
3
3
3
3
3
3
3
3
3
3
3
3
3
3
3
3
3
3
3
3
3
3
3
2
2
2
2
2
2
2
2
2
2
2
2
2
2
2
2
2
2
2
2
2
2
2
2
2
2
3
3
2
2
2
2
2
2
2
2
2
2
2
2
2
2
2
2
2
2
2
2
2
2
2
2
2
2
3
3
2
2
0
0
0
0
0
0
0
0
0
0
0
0
0
0
0
0
0
0
0
0
0
0
0
0
1
1
1
3
3
2
2
0
0
0
0
0
0
0
0
0
0
0
0
0
0
0
0
0
0
0
0
0
0
0
0
1
1
1
3
3
2
2
0
0
0
0
0
0
0
0
0
0
0
0
0
0
0
0
0
0
0
0
0
0
0
0
1
1
1
3
3
2
2
0
0
0
0
0
0
0
0
0
0
0
0
0
0
0
0
0
0
0
0
0
0
0
0
1
1
1
3
3
2
2
0
0
0
0
0
0
0
0
0
0
0
0
0
0
0
0
0
0
0
0
0
0
0
0
1
1
1
3
3
2
2
0
0
0
0
0
0
0
0
0
0
0
0
0
0
0
0
0
0
0
0
0
0
0
0
1
1
1
3
3
2
2
0
0
0
0
0
0
0
0
0
0
0
0
0
0
0
0
0
0
0
0
0
0
0
0
1
1
1
3
3
2
2
0
0
0
0
0
0
0
0
0
0
0
0
0
0
0
0
0
0
0
0
0
0
0
0
1
1
1
3
3
2
2
0
0
0
0
0
0
0
0
0
0
0
0
0
0
0
0
0
0
0
0
0
0
0
0
1
1
1
3
3
2
2
0
0
0
0
0
0
0
0
0
0
0
0
0
0
0
0
0
0
0
0
0
0
0
0
1
1
1
3
3
2
2
0
0
0
0
0
0
0
0
0
0
0
0
0
0
0
0
0
0
0
0
0
0
0
0
1
1
1
3
3
2
2
0
0
0
0
0
0
0
0
0
0
0
0
0
0
0
0
0
0
0
0
0
0
0
0
1
1
1
3
3
2
2
0
0
0
0
0
0
0
0
0
0
0
0
0
0
0
0
0
0
0
0
0
0
0
0
1
1
1
3
3
2
2
0
0
0
0
0
0
0
0
0
0
0
0
0
0
0
0
0
0
0
0
0
0
0
0
1
1
1
3
3
2
2
0
0
0
0
0
0
0
0
0
0
0
0
0
0
0
0
0
0
0
0
0
0
0
0
1
1
1
3
3
2
2
0
0
0
0
0
0
0
0
0
0
0
0
0
0
0
0
0
0
0
0
0
0
0
0
1
1
1
3
3
2
2
0
0
0
0
0
0
0
0
0
0
0
0
0
0
0
0
0
0
0
0
0
0
0
0
3
3
2
2
0
0
0
0
0
0
0
0
0
0
0
0
0
0
0
0
0
0
0
0
0
0
0
0
3
3
2
2
0
0
0
0
0
0
0
0
0
0
0
0
0
0
0
0
0
0
0
0
0
0
0
0
3
3
2
2
0
0
0
0
0
0
0
0
0
0
0
0
0
0
0
0
0
0
0
0
0
0
0
0
3
3
2
2
0
0
0
0
0
0
0
0
0
0
0
0
0
0
0
0
0
0
0
0
0
0
0
0
3
3
2
2
0
0
0
0
0
0
0
0
0
0
0
0
0
0
0
0
0
0
0
0
0
0
0
0
3
3
2
2
0
0
0
0
0
0
0
0
0
0
0
0
0
0
0
0
0
0
0
0
0
0
0
0
3
3
2
2
0
0
0
0
0
0
0
0
0
0
0
0
0
0
0
0
0
0
0
0
0
0
0
0
3
3
2
2
0
0
0
0
0
0
0
0
0
0
0
0
0
0
0
0
0
0
0
0
0
0
0
0
3
3
2
2
0
0
0
0
0
0
0
0
0
0
0
0
0
0
0
0
0
0
0
0
0
0
0
0
3
3
2
2
0
0
0
0
0
0
0
0
0
0
0
0
0
0
0
0
0
0
0
0
0
0
0
0
3
3
2
2
0
0
0
0
0
0
0
0
0
0
0
0
0
0
0
0
0
0
0
0
0
0
0
0
3
3
2
2
0
0
0
0
0
0
0
0
0
0
0
0
0
0
0
0
0
0
0
0
0
0
0
0
3
3
2
2
0
0
0
0
0
0
0
0
0
0
0
0
0
0
0
0
0
0
0
0
0
0
0
0
3
3
2
2
0
0
0
0
0
0
0
0
0
0
0
0
0
0
0
0
0
0
0
0
0
0
0
0
3
3
2
2
0
0
0
0
0
0
0
0
0
0
0
0
0
0
0
0
0
0
0
0
0
0
0
0
3
3
2
2
0
0
0
0
0
0
0
0
0
0
0
0
0
0
0
0
0
0
0
0
0
0
0
0
3
3
2
2
0
0
0
0
0
0
0
0
0
0
0
0
0
0
0
0
0
0
0
0
0
0
0
0
3
3
2
2
0
0
0
0
0
0
0
0
0
0
0
0
0
0
0
0
0
0
0
0
0
0
0
0
3
3
2
2
0
0
0
0
0
0
0
0
0
0
0
0
0
0
0
0
0
0
0
0
0
0
0
0
3
3
2
2
0
0
0
0
0
0
0
0
0
0
0
0
0
0
0
0
0
0
0
0
0
0
0
0
3
3
2
2
0
0
0
0
0
0
0
0
0
0
0
0
0
0
0
0
0
0
0
0
0
0
0
0
3
3
2
2
0
0
0
0
0
0
0
0
0
0
0
0
0
0
0
0
0
0
0
0
0
0
0
0
3
3
2
2
0
0
0
0
0
0
0
0
0
0
0
0
0
0
0
0
0
0
0
0
0
0
0
0
3
3
2
2
0
0
0
0
0
0
0
0
0
0
0
0
0
0
0
0
0
0
0
0
0
0
0
0
3
3
2
2
0
0
0
0
0
0
0
0
0
0
0
0
0
0
0
0
0
0
0
0
0
0
0
0
3
3
2
2
0
0
0
0
0
0
0
0
0
0
0
0
0
0
0
0
0
0
0
0
0
0
0
0
3
3
2
2
0
0
0
0
0
0
0
0
0
0
0
0
0
0
0
0
0
0
0
0
0
0
0
0
3
3
2
2
0
0
0
0
0
0
0
0
0
0
0
0
0
0
0
0
0
0
0
0
0
0
0
0
3
3
2
2
0
0
0
0
0
0
0
0
0
0
0
0
0
0
0
0
0
0
0
0
0
0
0
0
3
3
2
2
0
0
0
0
0
0
0
0
0
0
0
0
0
0
0
0
0
0
0
0
0
0
0
0
3
3
2
2
0
0
0
0
0
0
0
0
0
0
0
0
0
0
0
0
0
0
0
0
0
0
0
0
3
3
2
2
0
0
0
0
0
0
0
0
0
0
0
0
0
0
0
0
0
0
0
0
0
0
0
0
3
3
2
2
0
0
0
0
0
0
0
0
0
0
0
0
0
0
0
0
0
0
0
0
0
0
0
0
3
3
2
2
0
0
0
0
0
0
0
0
0
0
0
0
0
0
0
0
0
0
0
0
0
0
0
0
3
3
2
2
0
0
0
0
0
0
0
0
0
0
0
0
0
0
0
0
0
0
0
0
0
0
0
0
3
3
2
2
0
0
0
0
0
0
0
0
0
0
0
0
0
0
0
0
0
0
0
0
0
0
0
0
3
3
2
2
0
0
0
0
0
0
0
0
0
0
0
0
0
0
0
0
0
0
0
0
0
0
0
0
3
3
2
2
0
0
0
0
0
0
0
0
0
0
0
0
0
0
0
0
0
0
0
0
0
0
0
0
3
3
2
2
0
0
0
0
0
0
0
0
0
0
0
0
0
0
0
0
0
0
0
0
0
0
0
0
3
3
2
2
0
0
0
0
0
0
0
0
0
0
0
0
0
0
0
0
0
0
0
0
0
0
0
0
3
3
2
2
0
0
0
0
0
0
0
0
0
0
0
0
0
0
0
0
0
0
0
0
0
0
0
0
3
3
2
2
0
0
0
0
0
0
0
0
0
0
0
0
0
0
0
0
0
0
0
0
0
0
0
0
3
3
2
2
0
0
0
0
0
0
0
0
0
0
0
0
0
0
0
0
0
0
0
0
0
0
0
0
3
3
2
2
0
0
0
0
0
0
0
0
0
0
0
0
0
0
0
0
0
0
0
0
0
0
0
0
3
3
2
2
0
0
0
0
0
0
0
0
0
0
0
0
0
0
0
0
0
0
0
0
0
0
0
0
3
3
2
2
0
0
0
0
0
0
0
0
0
0
0
0
0
0
0
0
0
0
0
0
0
0
0
0
3
3
2
2
0
0
0
0
0
0
0
0
0
0
0
0
0
0
0
0
0
0
0
0
0
0
0
0
3
3
2
2
0
0
0
0
0
0
0
0
0
0
0
0
0
0
0
0
0
0
0
0
0
0
0
0
3
3
2
2
0
0
0
0
0
0
0
0
0
0
0
0
0
0
0
0
0
0
0
0
0
0
0
0
3
3
2
2
0
0
0
0
0
0
0
0
0
0
0
0
0
0
0
0
0
0
0
0
0
0
0
0
3
3
2
2
0
0
0
0
0
0
0
0
0
0
0
0
0
0
0
0
0
0
0
0
0
0
0
0
3
3
2
2
0
0
0
0
0
0
0
0
0
0
0
0
0
0
0
0
0
0
0
0
0
0
0
0
3
3
2
2
0
0
0
0
0
0
0
0
0
0
0
0
0
0
0
0
0
0
0
0
0
0
0
0
3
3
2
2
0
0
0
0
0
0
0
0
0
0
0
0
0
0
0
0
0
0
0
0
0
0
0
0
3
3
2
2
0
0
0
0
0
0
0
0
0
0
0
0
0
0
0
0
0
0
0
0
0
0
0
0
3
3
2
2
0
0
0
0
0
0
0
0
0
0
0
0
0
0
0
0
0
0
0
0
0
0
0
0
3
3
2
2
0
0
0
0
0
0
0
0
0
0
0
0
0
0
0
0
0
0
0
0
0
0
0
0
3
3
2
2
0
0
0
0
0
0
0
0
0
0
0
0
0
0
0
0
0
0
0
0
0
0
0
0
3
3
2
2
0
0
0
0
0
0
0
0
0
0
0
0
0
0
0
0
0
0
0
0
0
0
0
0
3
3
2
2
0
0
0
0
0
0
0
0
0
0
0
0
0
0
0
0
0
0
0
0
0
0
0
0
3
3
2
2
0
0
0
0
0
0
0
0
0
0
0
0
0
0
0
0
0
0
0
0
0
0
0
0
3
3
2
2
0
0
0
0
0
0
0
0
0
0
0
0
0
0
0
0
0
0
0
0
0
0
0
0
3
3
2
2
0
0
0
0
0
0
0
0
0
0
0
0
0
0
0
0
0
0
0
0
0
0
0
0
3
3
2
2
2
2
2
2
2
2
2
2
2
2
2
2
2
2
2
2
2
2
2
2
2
2
2
2
3
3
2
2
2
2
2
2
2
2
2
2
2
2
2
2
2
2
2
2
2
2
2
2
2
2
2
2
3
3
3
3
3
3
3
3
3
3
3
3
3
3
3
3
3
3
3
3
3
3
3
3
3
3
3
3
3
3
3
3
3
3
3
3
3
3
3
3
3
3
3
3
3
3
3
3
3
3
3
3
3
3
3
3
</DataArray>
<DataArray NumberOfComponents='1' type='Float32' Name='Velocity' format='ascii'>
0.000000
0.000000
0.000000
0.000000
0.000000
0.000000
0.000000
0.000000
0.000000
0.000000
0.000000
0.000000
0.000000
0.000000
0.000000
0.000000
0.000000
0.000000
0.000000
0.000000
0.000000
0.000000
0.000000
0.000000
0.000000
0.000000
0.000000
0.000000
0.000000
0.000000
0.000000
0.000000
0.000000
0.000000
0.000000
0.000000
0.000000
0.000000
0.000000
0.000000
0.000000
0.000000
0.000000
0.000000
0.000000
0.000000
0.000000
0.000000
0.000000
0.000000
0.000000
0.000000
0.000000
0.000000
0.000000
0.000000
0.000000
0.000000
0.000000
0.000000
0.000000
0.000000
0.000000
0.000000
0.000000
0.000000
0.000000
0.000000
0.000000
0.000000
0.000000
0.000000
0.000000
0.000000
0.000000
0.000000
0.000000
0.000000
0.000000
0.000000
0.000000
0.000000
0.000000
0.000000
0.000000
0.000000
0.000000
0.000000
0.000000
0.000000
0.000000
0.000000
0.000000
0.000000
0.000000
0.000000
0.000000
0.000000
0.000000
0.000000
0.000000
0.000000
0.000000
0.000000
0.000000
0.000000
0.000000
0.000000
0.000000
0.000000
0.000000
0.000000
0.000000
0.000000
0.000000
0.000000
4401.124512
214.531021
74.884468
69.231613
0.973203
95356864.000000
118.058823
99.136131
69.850792
528.908447
2978.437500
371.252014
76158.226562
28428.808594
148.470764
904.748230
171.828110
1791.597046
170.472839
1675.692505
1009.021973
1148.896973
2536.124268
83049576.000000
1.000000
1.000000
1.000000
0.000000
0.000000
0.000000
0.000000
136.513641
131.554047
1853.148193
101.632927
5235.539062
45.372845
74.079788
51.900223
47326.734375
49280.273438
131.216187
156.168228
303.149933
3767.475342
23500.082031
1095.133911
150.325027
427.117310
2117.491943
491.789886
1533.067261
28241.296875
1156.191895
2971.940674
1.000000
1.000000
1.000000
0.000000
0.000000
0.000000
0.000000
133.867752
35737.613281
37.035046
4700.161133
91.857079
289.975250
244.834000
5296.629883
1016.825500
649.266113
243.800537
1881.036865
907.028076
1564.182251
945.321350
33.992409
5674.001465
1.728772
460.187500
153.394058
6866.497559
370.709412
9610.115234
2164.299072
1.000000
1.000000
1.000000
0.000000
0.000000
0.000000
0.000000
4556.876465
164219952.000000
1583.439697
135656.203125
10448.497070
130.054047
227129.031250
175.788422
52.616619
125.628296
89.181023
3279.286133
253.031967
368.650970
330.640411
278.281952
0.233230
430.489166
131.219635
347.021484
0.402321
268.098724
3320.184082
41519.167969
1.000000
1.000000
1.000000
0.000000
0.000000
0.000000
0.000000
1028.543945
3408.343750
2795.755371
886.917725
74.590530
252.835846
1506.673706
145.032684
81647.406250
1775.752686
885.577820
12657.912109
36.278690
470.797485
662.627747
1093.359741
10191.592773
2077.927002
176.365509
418.078125
196.359329
4130.839355
998466.625000
324624.781250
1.000000
1.000000
1.000000
0.000000
0.000000
0.000000
0.000000
44.302174
2226.771729
74.572021
299.307648
7623.875488
1.227277
466.534607
45.064102
232.276962
6514.463867
871.327209
102.709160
186.201675
42874.460938
12942.611328
271.439026
356.824493
7005.360352
13420.308594
9315.254883
12991.086914
562.257629
5252.228027
2126.036133
1.000000
1.000000
1.000000
0.000000
0.000000
0.000000
0.000000
621.966064
6834.237793
65.711723
107050.984375
1220.693115
340.021027
265.538177
437.859467
2641.780518
1697.844604
31802.392578
5007.584473
5385.382324
8406.666992
3479.881836
805.047668
17941.492188
6927.327637
37641568.000000
1239.925659
12991.560547
1131.465942
932.912231
3816.131348
1.000000
1.000000
1.000000
0.000000
0.000000
0.000000
0.000000
996.361145
2529.273926
1055.685669
942.389221
2521.456299
119.301025
27921.128906
287566.156250
1587.831299
1610.444092
101.179237
131.065598
324.483612
24645172.000000
1351.154053
15050.880859
1111.177979
1791.292847
1779.753784
4261.483887
17893.652344
2291.379883
1940.469604
2322.510498
1.000000
1.000000
1.000000
0.000000
0.000000
0.000000
0.000000
48.076492
10989698.000000
2050.956299
84.385674
769.408997
196.906830
20260.873047
485.942657
2113.604248
370.735382
6044.622559
393.798492
8532.446289
1151.578125
156.389297
0.929247
174149.406250
205.106613
266.314514
68543.257812
1493.810425
26142.474609
97.543564
191028.375000
1.000000
1.000000
1.000000
0.000000
0.000000
0.000000
0.000000
43348.941406
298.035950
131.253342
8021.443359
16063.662109
668.351379
1100.994751
12930.000977
190196.281250
590.267212
166.332962
945.535583
1673.319946
204.938141
93.334511
118.419044
266763.218750
160.770218
353.554840
289706.187500
499.884644
1109.036621
95400.984375
95085.882812
1.000000
1.000000
1.000000
0.000000
0.000000
0.000000
0.000000
609.391174
136.551712
1754.843384
38.236317
1783.036499
155.314484
95.781441
163.965286
248.784592
164.517380
860.055786
2965.939453
2010.002808
672.935059
304234.031250
60897.398438
109189544.000000
856.816895
43348.011719
5688.728516
129.023376
9136.434570
3866.499512
3979.942871
1.000000
1.000000
1.000000
0.000000
0.000000
0.000000
0.000000
295.412598
1010911488.000000
272.782440
313831.718750
43311.789062
41954936.000000
8092.930664
9932.333984
332.086243
408.905426
1308.242188
11015329.000000
864.297546
7859819520.000000
33.077160
57765.027344
117242.046875
1863.463989
622.856567
53.859627
7545.449219
6939.759277
161842336.000000
7707.908691
1.000000
1.000000
1.000000
0.000000
0.000000
0.000000
0.000000
816.612549
300.448578
103.607803
91.111870
109.131615
10577.904297
167.611115
164.205765
141.323746
2428.126709
6692.480469
1625.454468
350.314667
59.568592
2802.579834
383.698914
340.073120
64.822731
431.665894
1685.223389
695.524109
75.338554
39987.753906
4015.282471
1.000000
1.000000
1.000000
0.000000
0.000000
0.000000
0.000000
86.393837
1914.574219
188.054306
32.942146
241.202377
337.041138
2331.794678
7078.930664
854.724487
1095.265015
20025.433594
77.349648
405.055817
253.062469
249.672531
9486.152344
49153.605469
268.688904
90296.820312
277.055695
6454.146484
1132.317383
5125.125977
998081.687500
1.000000
1.000000
1.000000
0.000000
0.000000
0.000000
0.000000
118.390930
81898.585938
126.452522
0.507087
145.283051
595.835022
107.018463
2074.897705
41956152.000000
86.263634
883.939636
1016.801819
339448.062500
24146.158203
484.921387
714.448975
1161.924927
222.996170
1295.666992
54.908249
1556.780029
82941672.000000
953.949646
15229.206055
1.000000
1.000000
1.000000
0.000000
0.000000
0.000000
0.000000
1401.906982
44920.683594
323.609680
288.746857
467.390320
909.796631
143.485123
1768.259399
215.723785
2585.640625
17706.845703
452.782288
2946.385254
694.142578
216.474625
48621.312500
97.941132
12590.267578
3799.065186
1775.822144
128.155563
1779.991211
1134.201660
15809.682617
1.000000
1.000000
1.000000
0.000000
0.000000
0.000000
0.000000
243.516037
1059.924072
201.426086
517.301331
23249.568359
36.109325
1803.276245
2050.088135
4755.318848
129.709885
613.024536
4968.330078
3716.899414
182.440903
277.315216
134.996857
361.977661
384.400635
159659.750000
194.418427
5987.976562
73.978790
105.177406
4414.774414
0.000000
0.000000
0.000000
0.000000
62.597046
39281.582031
2572.574951
156.538132
2681.735840
4977.312988
2319.076416
9501.787109
2523.483643
21144.914062
6729.081055
7730.204102
195.170776
98441824.000000
1942.772705
495978.718750
6310.321289
25976.505859
422.293762
553.494019
96046.179688
27242.648438
149.379959
1061.892700
0.000000
0.000000
0.000000
0.000000
1952.442627
668.833862
136.115952
380.326447
299.327454
5030.337402
124.687897
65.618362
172.129562
8015.212402
1055.081299
3710.450928
98599.757812
236.845795
131.619568
162.641235
289.208710
530.367371
4829300.500000
19885750.000000
1419.860474
2162.994385
609.815002
15961.949219
0.000000
0.000000
0.000000
0.000000
56.771355
1297.799561
471.879852
3293.917969
3092.011719
181.796158
13265.560547
470.965637
124.892220
288258.031250
51.204216
1298.276001
528.789001
43177.464844
904.223511
1068.977417
1930363.250000
14035.926758
198.461517
55.143780
2958.158936
698.660095
1277.149536
4774220.000000
0.000000
0.000000
0.000000
0.000000
1512.731689
1345.390259
163.487991
4139.386719
43065.175781
605.820007
410.032013
352.452942
688.305786
302.878143
1742.359131
271.127960
580.320557
170.017059
118.676346
101.120232
5530499.500000
211.596863
1230.782959
353.074371
4797.616699
2164.338135
1856.290894
2571.265869
0.000000
0.000000
0.000000
0.000000
129.822220
732.655518
58.728970
1666460.000000
23588.001953
280.973846
65.419586
74.284073
1927.904663
6806.806641
203547328.000000
139.973175
2088.048584
817.873474
278.743927
118.581703
736.751099
196.913467
188.265457
331.332275
1228.373413
307293.531250
348.702301
1176.029053
0.000000
0.000000
0.000000
0.000000
416.544067
1507.765503
266.852478
1459.032593
125.857239
2293.081787
466.888855
39930.300781
97.998978
30677.166016
1211.181396
226.671448
3374.424561
65.458237
3205.591064
102359.640625
1635.418213
153.904892
3966.568359
255.252487
38518.191406
122.530182
708.911682
2748.287842
0.000000
0.000000
0.000000
0.000000
70.893593
2.037352
9624.393555
367294.187500
354.580902
210.682388
57535692.000000
21693.322266
798.951782
892.699280
6318.445801
1935943.625000
143.795578
102.362549
1904.932983
985.517883
1161.706909
1434.375366
4917.645508
1235.606567
203547792.000000
40052.699219
4401.746094
9517.315430
0.000000
0.000000
0.000000
0.000000
65.589104
420902.468750
290.400299
1.008407
139926.000000
87.773270
15248.604492
1198.195679
371.526855
335.850189
795.474915
2211.706299
17535.960938
28250.259766
1566.142212
192.092361
260.026367
312.561035
1241.951660
2.571769
15372175.000000
92.757126
418.094055
1086.258423
0.000000
0.000000
0.000000
0.000000
622.843079
50.323662
3202.717529
901.373535
2151.217773
297.730469
709960.875000
352.527130
448.373901
9596.961914
678.029846
127.301781
43.991783
49.580227
444.710571
4.114051
1020.509888
853.705811
3773.855713
300.663818
3792.077637
12455.854492
5500.574219
4545.045898
0.000000
0.000000
0.000000
0.000000
1069.099976
163.174881
10160.011719
24003.605469
0.439046
79958.921875
81155.093750
140153.046875
2076.637207
92.862732
107.808372
331.045380
1349.011353
0.778732
885.626587
615.511414
72.015846
58.701981
937.112305
1078.735962
2232.738281
996.133667
159.020020
1799.766968
0.000000
0.000000
0.000000
0.000000
16078.472656
69402.562500
862.898254
102.167198
205149.765625
798.773743
166.239182
4412.469727
1246.761108
91.186516
24622.738281
22168.763672
260.830048
10533.919922
372.821594
289.659332
1438.949707
2014.656860
539.918091
27196.535156
235.843536
6550.505859
87.773331
8849.783203
0.000000
0.000000
0.000000
0.000000
16155.047852
112181.312500
709.978455
1526.020142
126.935150
94768.734375
305.670685
3324.237549
3163.517578
479.593628
455.105042
218.928986
1100.651245
5126.430664
12372.815430
82307.070312
81594.234375
25816.574219
580.306580
967.314636
163329.265625
107688.367188
1087.650269
2166.423340
0.000000
0.000000
0.000000
0.000000
474.986816
79.115303
68.161613
85.512878
107776.609375
3961.647705
1711.948975
336.614075
697.867737
663460.062500
2239.336182
1530.217041
1049.693848
23744.453125
53.938576
155.877518
106.396950
112.222939
960.759399
228.445770
228.482285
2351.625732
370.551208
2051.708008
0.000000
0.000000
0.000000
0.000000
12854.518555
64.994812
786193.125000
725.410583
261.458374
310.917908
358.792358
1898.092285
9.737556
22491.865234
29818181648384.000000
500.564301
623.676331
804.128784
176.877060
813.267456
302.452271
141.944000
297.525543
65.919472
716.536560
32273.294922
7112.504883
6859.319824
0.000000
0.000000
0.000000
0.000000
2045.180054
11138.292969
1783.916992
155.668961
1586.473145
4642.036133
336.597778
12982.975586
19754.939453
346.014099
3009.599121
49007.937500
865.591553
252.283585
6126.142578
616.208069
1226.823242
545.359192
82.474770
3512.565186
90958.132812
380.114014
1720.531982
20951.580078
0.000000
0.000000
0.000000
0.000000
85.031883
72.035294
3367.992676
210.244781
19582.388672
1957.182739
801.580933
483.012939
550.075012
126.122215
45.681026
71.909683
112.799492
1251777920.000000
3622.019043
158.269196
240.014725
205.294647
132.791367
39098.710938
279.572510
5787.411621
22682.439453
5684.326660
0.000000
0.000000
0.000000
0.000000
109266000.000000
4917.506836
1119.454590
94.387085
297.136078
1107.460815
1.866842
95356440.000000
1633.689087
16802.507812
1750.974609
148.377441
24.771967
83.441353
24338.173828
251.480209
3994.004639
835.160706
1149.495605
166.644089
305.373444
2319.867920
11944.691406
5083.633789
0.000000
0.000000
0.000000
0.000000
128181.062500
2.442917
215609.859375
535.692017
122.471642
5.212577
152.944702
386.433319
551.193481
13220.528320
46276.191406
185422.359375
1102.902710
29612.626953
1146.776733
2676.348389
6082527.000000
246.497147
579.483765
48.926014
14900.020508
374.187744
2857.874023
23664962.000000
0.000000
0.000000
0.000000
0.000000
190374.984375
105.173820
550.235718
229.374084
22320.701172
3954.804932
9132.126953
117335.429688
1644.276245
545.377197
76.679451
687.274048
36312.179688
162.721603
47.098701
169.902847
202056.750000
4900.936523
1322.948975
118.627266
1745.677368
454.041229
714.617432
3153.928467
0.000000
0.000000
0.000000
0.000000
68.388481
1.225169
19159504.000000
961.256409
133.128937
500.831421
356.861359
3015.636230
369.491455
15210.061523
348.379608
344.471649
2974.655273
287.645538
412.995850
113043.054688
1574.986084
3447.198730
2708.848389
3056.183838
905.565552
761.600952
39001.453125
11095.350586
0.000000
0.000000
0.000000
0.000000
59.524673
401.978485
489.144623
7979.299316
698.267273
831.798828
2776.501953
172.903214
15609.684570
13.323393
1801.350830
285.447479
114.156471
77766.054688
1173.629517
2781.530518
653.150330
309.142487
3431.912109
1632.867676
536.035339
174262.000000
451.397095
79955.390625
0.000000
0.000000
0.000000
0.000000
33.924541
125.081787
118.495544
810.370361
105.382629
206.202087
78.901154
45.311577
15372272.000000
125.160301
80961.031250
448975.000000
1671.859497
158.739563
289.494873
98099.492188
2749.250977
944355.062500
363.599365
129.638611
21631.326172
70.783218
138.006851
4928.841309
0.000000
0.000000
0.000000
0.000000
83570.039062
172.947784
2605.935303
2181.276367
1034.868774
173770.468750
78.720200
644.283508
585.083252
56.837982
211.679565
484.265106
1.920033
4054.997803
3390.405762
587638.875000
262.041809
314.319702
221.005188
795.461609
696.619385
111.939949
207.956528
954.322021
0.000000
0.000000
0.000000
0.000000
111.864372
106.784416
176.227005
319320.937500
2216.994873
3.240576
222.362473
3293.484375
570.467896
6088.357910
27423.613281
21588.619141
43.227837
432.729980
8697.521484
173.878006
30.525747
128166.570312
17507.953125
4537.113770
7346.223633
196823.906250
148.478592
8062.218750
0.000000
0.000000
0.000000
0.000000
339.295197
2884.244385
397.385590
94.719414
10510.974609
2768.812744
3398.293701
8100.891113
68835.500000
171.799850
215246224.000000
4244.195801
877.026611
229.350006
102.301941
488973.312500
38.309460
112331.820312
2133.378906
119.551056
2612.483643
2150.492920
91.720169