<?xml version='1.0' encoding='UTF-8'?>
<VTKFile xmlns='VTK' byte_order='LittleEndian' version='0.1' type='UnstructuredGrid'>
<UnstructuredGrid>
<Piece NumberOfCells='2512' NumberOfPoints='2512'>
<Points>
<DataArray NumberOfComponents='3' type='Float32' Name='Position' format='ascii'>
-0.075000 -0.075000 0.000000
-0.075000 -0.050000 0.000000
-0.075000 -0.025000 0.000000
-0.075000 0.000000 0.000000
-0.075000 0.025000 0.000000
-0.075000 0.050000 0.000000
-0.075000 0.075000 0.000000
-0.075000 0.100000 0.000000
-0.075000 0.125000 0.000000
-0.075000 0.150000 0.000000
-0.075000 0.175000 0.000000
-0.075000 0.200000 0.000000
-0.075000 0.225000 0.000000
-0.075000 0.250000 0.000000
-0.075000 0.275000 0.000000
-0.075000 0.300000 0.000000
-0.075000 0.325000 0.000000
-0.075000 0.350000 0.000000
-0.075000 0.375000 0.000000
-0.075000 0.400000 0.000000
-0.075000 0.425000 0.000000
-0.075000 0.450000 0.000000
-0.075000 0.475000 0.000000
-0.075000 0.500000 0.000000
-0.075000 0.525000 0.000000
-0.075000 0.550000 0.000000
-0.075000 0.575000 0.000000
-0.075000 0.600000 0.000000
-0.050000 -0.075000 0.000000
-0.050000 -0.050000 0.000000
-0.050000 -0.025000 0.000000
-0.050000 0.000000 0.000000
-0.050000 0.025000 0.000000
-0.050000 0.050000 0.000000
-0.050000 0.075000 0.000000
-0.050000 0.100000 0.000000
-0.050000 0.125000 0.000000
-0.050000 0.150000 0.000000
-0.050000 0.175000 0.000000
-0.050000 0.200000 0.000000
-0.050000 0.225000 0.000000
-0.050000 0.250000 0.000000
-0.050000 0.275000 0.000000
-0.050000 0.300000 0.000000
-0.050000 0.325000 0.000000
-0.050000 0.350000 0.000000
-0.050000 0.375000 0.000000
-0.050000 0.400000 0.000000
-0.050000 0.425000 0.000000
-0.050000 0.450000 0.000000
-0.050000 0.475000 0.000000
-0.050000 0.500000 0.000000
-0.050000 0.525000 0.000000
-0.050000 0.550000 0.000000
-0.050000 0.575000 0.000000
-0.050000 0.600000 0.000000
-0.025000 -0.075000 0.000000
-0.025000 -0.050000 0.000000
-0.025000 -0.025000 0.000000
-0.025000 0.000000 0.000000
-0.025000 0.025000 0.000000
-0.025000 0.050000 0.000000
-0.025000 0.075000 0.000000
-0.025000 0.100000 0.000000
-0.025000 0.125000 0.000000
-0.025000 0.150000 0.000000
-0.025000 0.175000 0.000000
-0.025000 0.200000 0.000000
-0.025000 0.225000 0.000000
-0.025000 0.250000 0.000000
-0.025000 0.275000 0.000000
-0.025000 0.300000 0.000000
-0.025000 0.325000 0.000000
-0.025000 0.350000 0.000000
-0.025000 0.375000 0.000000
-0.025000 0.400000 0.000000
-0.025000 0.425000 0.000000
-0.025000 0.450000 0.000000
-0.025000 0.475000 0.000000
-0.025000 0.500000 0.000000
-0.025000 0.525000 0.000000
-0.025000 0.550000 0.000000
-0.025000 0.575000 0.000000
-0.025000 0.600000 0.000000
0.000000 -0.075000 0.000000
0.000000 -0.050000 0.000000
0.000000 -0.025000 0.000000
0.000000 0.000000 0.000000
0.000000 0.025000 0.000000
0.000000 0.050000 0.000000
0.000000 0.075000 0.000000
0.000000 0.100000 0.000000
0.000000 0.125000 0.000000
0.000000 0.150000 0.000000
0.000000 0.175000 0.000000
0.000000 0.200000 0.000000
0.000000 0.225000 0.000000
0.000000 0.250000 0.000000
0.000000 0.275000 0.000000
0.000000 0.300000 0.000000
0.000000 0.325000 0.000000
0.000000 0.350000 0.000000
0.000000 0.375000 0.000000
0.000000 0.400000 0.000000
0.000000 0.425000 0.000000
0.000000 0.450000 0.000000
0.000000 0.475000 0.000000
0.000000 0.500000 0.000000
0.000000 0.525000 0.000000
0.000000 0.550000 0.000000
0.000000 0.575000 0.000000
0.000000 0.600000 0.000000
0.025000 -0.075000 0.000000
0.025000 -0.050000 0.000000
0.025000 -0.025000 0.000000
0.025000 0.000000 0.000000
0.024905 0.024901 0.000000
0.025045 0.049968 0.000000
0.024980 0.074901 0.000000
0.025023 0.099888 0.000000
0.024968 0.124930 0.000000
0.025028 0.149840 0.000000
0.024982 0.174964 0.000000
0.025003 0.199832 0.000000
0.024983 0.224975 0.000000
0.025037 0.249864 0.000000
0.024931 0.275023 0.000000
0.025058 0.299881 0.000000
0.024937 0.325125 0.000000
0.025058 0.349954 0.000000
0.024906 0.375245 0.000000
0.025102 0.400064 0.000000
0.024881 0.425452 0.000000
0.025024 0.450263 0.000000
0.025009 0.475633 0.000000
0.024975 0.500513 0.000000
0.024788 0.526003 0.000000
0.025216 0.550527 0.000000
0.024649 0.576046 0.000000
0.024130 0.600000 0.000000
0.185000 0.625000 0.000000
0.185000 0.650000 0.000000
0.185000 0.675000 0.000000
0.050000 -0.075000 0.000000
0.050000 -0.050000 0.000000
0.050000 -0.025000 0.000000
0.050000 0.000000 0.000000
0.050004 0.025000 0.000000
0.050050 0.049934 0.000000
0.050003 0.074984 0.000000
0.050035 0.099915 0.000000
0.049981 0.124983 0.000000
0.050025 0.149897 0.000000
0.049966 0.174978 0.000000
0.050014 0.199875 0.000000
0.049964 0.225015 0.000000
0.049971 0.249842 0.000000
0.049954 0.275034 0.000000
0.049962 0.299859 0.000000
0.049885 0.325067 0.000000
0.049929 0.349828 0.000000
0.049871 0.375135 0.000000
0.049838 0.399928 0.000000
0.049809 0.425168 0.000000
0.049853 0.449954 0.000000
0.049722 0.475440 0.000000
0.049783 0.500036 0.000000
0.049848 0.525702 0.000000
0.050148 0.550176 0.000000
0.050079 0.575636 0.000000
0.049203 0.599949 0.000000
0.210000 0.625000 0.000000
0.210000 0.650000 0.000000
0.210000 0.675000 0.000000
0.075000 -0.075000 0.000000
0.075000 -0.050000 0.000000
0.075000 -0.025000 0.000000
0.075000 0.000000 0.000000
0.074942 0.024919 0.000000
0.075071 0.050018 0.000000
0.075008 0.074950 0.000000
0.075009 0.099980 0.000000
0.075014 0.124973 0.000000
0.075005 0.149924 0.000000
0.075005 0.174988 0.000000
0.075004 0.199890 0.000000
0.074980 0.224952 0.000000
0.075015 0.249856 0.000000
0.074968 0.274969 0.000000
0.074990 0.299750 0.000000
0.074969 0.324925 0.000000
0.074990 0.349746 0.000000
0.074903 0.374843 0.000000
0.074992 0.399571 0.000000
0.074860 0.424851 0.000000
0.074880 0.449468 0.000000
0.074854 0.474611 0.000000
0.074728 0.499369 0.000000
0.074737 0.524602 0.000000
0.075099 0.549242 0.000000
0.075085 0.575119 0.000000
0.073106 0.599068 0.000000
0.235000 0.625000 0.000000
0.235000 0.650000 0.000000
0.235000 0.675000 0.000000
0.100000 -0.075000 0.000000
0.100000 -0.050000 0.000000
0.100000 -0.025000 0.000000
0.100000 0.000000 0.000000
0.100000 0.024910 0.000000
0.100036 0.049970 0.000000
0.100016 0.074889 0.000000
0.100043 0.099944 0.000000
0.099991 0.124897 0.000000
0.100053 0.149905 0.000000
0.099984 0.174913 0.000000
0.100029 0.199847 0.000000
0.099991 0.224963 0.000000
0.100012 0.249808 0.000000
0.099957 0.274947 0.000000
0.100039 0.299837 0.000000
0.099896 0.324988 0.000000
0.100030 0.349763 0.000000
0.099841 0.375055 0.000000
0.099999 0.399878 0.000000
0.099833 0.424996 0.000000
0.099981 0.449866 0.000000
0.099832 0.475170 0.000000
0.099878 0.499726 0.000000
0.099700 0.525088 0.000000
0.100026 0.549710 0.000000
0.099621 0.575287 0.000000
0.099464 0.599079 0.000000
0.260000 0.625000 0.000000
0.260000 0.650000 0.000000
0.260000 0.675000 0.000000
0.125000 -0.075000 0.000000
0.125000 -0.050000 0.000000
0.125000 -0.025000 0.000000
0.125000 0.000000 0.000000
0.125010 0.024963 0.000000
0.125066 0.049974 0.000000
0.125030 0.074962 0.000000
0.125034 0.099946 0.000000
0.125005 0.124966 0.000000
0.125053 0.149917 0.000000
0.124971 0.174946 0.000000
0.125066 0.199909 0.000000
0.124953 0.224916 0.000000
0.125034 0.249848 0.000000
0.124976 0.274995 0.000000
0.124995 0.299735 0.000000
0.124945 0.324971 0.000000
0.125003 0.349793 0.000000
0.124901 0.374849 0.000000
0.124964 0.399682 0.000000
0.124859 0.424860 0.000000
0.124913 0.449620 0.000000
0.124848 0.474739 0.000000
0.124843 0.499578 0.000000
0.124822 0.524775 0.000000
0.125012 0.549349 0.000000
0.124949 0.574842 0.000000
0.124275 0.598971 0.000000
0.285000 0.625000 0.000000
0.285000 0.650000 0.000000
0.285000 0.675000 0.000000
0.150000 -0.075000 0.000000
0.150000 -0.050000 0.000000
0.150000 -0.025000 0.000000
0.150000 0.000000 0.000000
0.150013 0.024941 0.000000
0.150067 0.049981 0.000000
0.150018 0.074938 0.000000
0.150042 0.099953 0.000000
0.150037 0.124930 0.000000
0.150040 0.149910 0.000000
0.150039 0.174922 0.000000
0.150025 0.199861 0.000000
0.150017 0.224911 0.000000
0.150040 0.249842 0.000000
0.149972 0.274845 0.000000
0.150032 0.299793 0.000000
0.150002 0.324892 0.000000
0.149982 0.349647 0.000000
0.149955 0.374881 0.000000
0.150008 0.399711 0.000000
0.149931 0.424755 0.000000
0.149961 0.449651 0.000000
0.149930 0.474822 0.000000
0.149938 0.499520 0.000000
0.149791 0.524736 0.000000
0.149961 0.549482 0.000000
0.149853 0.575005 0.000000
0.149612 0.598755 0.000000
0.310000 0.625000 0.000000
0.310000 0.650000 0.000000
0.310000 0.675000 0.000000
0.175000 -0.075000 0.000000
0.175000 -0.050000 0.000000
0.175000 -0.025000 0.000000
0.175000 0.000000 0.000000
0.175041 0.024911 0.000000
0.175073 0.049985 0.000000
0.175049 0.074900 0.000000
0.175053 0.099929 0.000000
0.175047 0.124891 0.000000
0.175054 0.149883 0.000000
0.175023 0.174875 0.000000
0.175062 0.199867 0.000000
0.175016 0.224870 0.000000
0.175046 0.249780 0.000000
0.175006 0.274912 0.000000
0.175076 0.299714 0.000000
0.174912 0.324855 0.000000
0.175117 0.349733 0.000000
0.174903 0.374812 0.000000
0.175034 0.399647 0.000000
0.174869 0.424811 0.000000
0.175010 0.449605 0.000000
0.174854 0.474760 0.000000
0.174974 0.499544 0.000000
0.174803 0.524757 0.000000
0.175061 0.549338 0.000000
0.174901 0.574729 0.000000
0.174670 0.599051 0.000000
0.335000 0.625000 0.000000
0.335000 0.650000 0.000000
0.335000 0.675000 0.000000
0.200000 -0.075000 0.000000
0.200000 -0.050000 0.000000
0.200000 -0.025000 0.000000
0.200000 0.000000 0.000000
0.200060 0.024938 0.000000
0.200072 0.049969 0.000000
0.200053 0.074924 0.000000
0.200081 0.099927 0.000000
0.200046 0.124923 0.000000
0.200087 0.149880 0.000000
0.200024 0.174917 0.000000
0.200097 0.199826 0.000000
0.199994 0.224885 0.000000
0.200117 0.249807 0.000000
0.199975 0.274864 0.000000
0.200085 0.299715 0.000000
0.200011 0.324909 0.000000
0.200039 0.349655 0.000000
0.199955 0.374801 0.000000
0.200072 0.399735 0.000000
0.199947 0.424719 0.000000
0.200024 0.449614 0.000000
0.199941 0.474741 0.000000
0.200055 0.499506 0.000000
0.199884 0.524730 0.000000
0.199890 0.549456 0.000000
[...]
<PointData>
<DataArray NumberOfComponents='1' type='Int32' Name='ParticleType' format='ascii'>
3
3
3
3
3
3
3
3
3
3
3
3
3
3
3
3
3
3
3
3
3
3
3
3
3
3
3
3
3
3
3
3
3
3
3
3
3
3
3
3
3
3
3
3
3
3
3
3
3
3
3
3
3
3
3
3
3
3
2
2
2
2
2
2
2
2
2
2
2
2
2
2
2
2
2
2
2
2
2
2
2
2
2
2
3
3
2
2
2
2
2
2
2
2
2
2
2
2
2
2
2
2
2
2
2
2
2
2
2
2
2
2
3
3
2
2
0
0
0
0
0
0
0
0
0
0
0
0
0
0
0
0
0
0
0
0
0
0
0
0
1
1
1
3
3
2
2
0
0
0
0
0
0
0
0
0
0
0
0
0
0
0
0
0
0
0
0
0
0
0
0
1
1
1
3
3
2
2
0
0
0
0
0
0
0
0
0
0
0
0
0
0
0
0
0
0
0
0
0
0
0
0
1
1
1
3
3
2
2
0
0
0
0
0
0
0
0
0
0
0
0
0
0
0
0
0
0
0
0
0
0
0
0
1
1
1
3
3
2
2
0
0
0
0
0
0
0
0
0
0
0
0
0
0
0
0
0
0
0
0
0
0
0
0
1
1
1
3
3
2
2
0
0
0
0
0
0
0
0
0
0
0
0
0
0
0
0
0
0
0
0
0
0
0
0
1
1
1
3
3
2
2
0
0
0
0
0
0
0
0
0
0
0
0
0
0
0
0
0
0
0
0
0
0
0
0
1
1
1
3
3
2
2
0
0
0
0
0
0
0
0
0
0
0
0
0
0
0
0
0
0
0
0
0
0
0
0
1
1
1
3
3
2
2
0
0
0
0
0
0
0
0
0
0
0
0
0
0
0
0
0
0
0
0
0
0
0
0
1
1
1
3
3
2
2
0
0
0
0
0
0
0
0
0
0
0
0
0
0
0
0
0
0
0
0
0
0
0
0
1
1
1
3
3
2
2
0
0
0
0
0
0
0
0
0
0
0
0
0
0
0
0
0
0
0
0
0
0
0
0
1
1
1
3
3
2
2
0
0
0
0
0
0
0
0
0
0
0
0
0
0
0
0
0
0
0
0
0
0
0
0
1
1
1
3
3
2
2
0
0
0
0
0
0
0
0
0
0
0
0
0
0
0
0
0
0
0
0
0
0
0
0
1
1
1
3
3
2
2
0
0
0
0
0
0
0
0
0
0
0
0
0
0
0
0
0
0
0
0
0
0
0
0
1
1
1
3
3
2
2
0
0
0
0
0
0
0
0
0
0
0
0
0
0
0
0
0
0
0
0
0
0
0
0
1
1
1
3
3
2
2
0
0
0
0
0
0
0
0
0
0
0
0
0
0
0
0
0
0
0
0
0
0
0
0
1
1
1
3
3
2
2
0
0
0
0
0
0
0
0
0
0
0
0
0
0
0
0
0
0
0
0
0
0
0
0
3
3
2
2
0
0
0
0
0
0
0
0
0
0
0
0
0
0
0
0
0
0
0
0
0
0
0
0
3
3
2
2
0
0
0
0
0
0
0
0
0
0
0
0
0
0
0
0
0
0
0
0
0
0
0
0
3
3
2
2
0
0
0
0
0
0
0
0
0
0
0
0
0
0
0
0
0
0
0
0
0
0
0
0
3
3
2
2
0
0
0
0
0
0
0
0
0
0
0
0
0
0
0
0
0
0
0
0
0
0
0
0
3
3
2
2
0
0
0
0
0
0
0
0
0
0
0
0
0
0
0
0
0
0
0
0
0
0
0
0
3
3
2
2
0
0
0
0
0
0
0
0
0
0
0
0
0
0
0
0
0
0
0
0
0
0
0
0
3
3
2
2
0
0
0
0
0
0
0
0
0
0
0
0
0
0
0
0
0
0
0
0
0
0
0
0
3
3
2
2
0
0
0
0
0
0
0
0
0
0
0
0
0
0
0
0
0
0
0
0
0
0
0
0
3
3
2
2
0
0
0
0
0
0
0
0
0
0
0
0
0
0
0
0
0
0
0
0
0
0
0
0
3
3
2
2
0
0
0
0
0
0
0
0
0
0
0
0
0
0
0
0
0
0
0
0
0
0
0
0
3
3
2
2
0
0
0
0
0
0
0
0
0
0
0
0
0
0
0
0
0
0
0
0
0
0
0
0
3
3
2
2
0
0
0
0
0
0
0
0
0
0
0
0
0
0
0
0
0
0
0
0
0
0
0
0
3
3
2
2
0
0
0
0
0
0
0
0
0
0
0
0
0
0
0
0
0
0
0
0
0
0
0
0
3
3
2
2
0
0
0
0
0
0
0
0
0
0
0
0
0
0
0
0
0
0
0
0
0
0
0
0
3
3
2
2
0
0
0
0
0
0
0
0
0
0
0
0
0
0
0
0
0
0
0
0
0
0
0
0
3
3
2
2
0
0
0
0
0
0
0
0
0
0
0
0
0
0
0
0
0
0
0
0
0
0
0
0
3
3
2
2
0
0
0
0
0
0
0
0
0
0
0
0
0
0
0
0
0
0
0
0
0
0
0
0
3
3
2
2
0
0
0
0
0
0
0
0
0
0
0
0
0
0
0
0
0
0
0
0
0
0
0
0
3
3
2
2
0
0
0
0
0
0
0
0
0
0
0
0
0
0
0
0
0
0
0
0
0
0
0
0
3
3
2
2
0
0
0
0
0
0
0
0
0
0
0
0
0
0
0
0
0
0
0
0
0
0
0
0
3
3
2
2
0
0
0
0
0
0
0
0
0
0
0
0
0
0
0
0
0
0
0
0
0
0
0
0
3
3
2
2
0
0
0
0
0
0
0
0
0
0
0
0
0
0
0
0
0
0
0
0
0
0
0
0
3
3
2
2
0
0
0
0
0
0
0
0
0
0
0
0
0
0
0
0
0
0
0
0
0
0
0
0
3
3
2
2
0
0
0
0
0
0
0
0
0
0
0
0
0
0
0
0
0
0
0
0
0
0
0
0
3
3
2
2
0
0
0
0
0
0
0
0
0
0
0
0
0
0
0
0
0
0
0
0
0
0
0
0
3
3
2
2
0
0
0
0
0
0
0
0
0
0
0
0
0
0
0
0
0
0
0
0
0
0
0
0
3
3
2
2
0
0
0
0
0
0
0
0
0
0
0
0
0
0
0
0
0
0
0
0
0
0
0
0
3
3
2
2
0
0
0
0
0
0
0
0
0
0
0
0
0
0
0
0
0
0
0
0
0
0
0
0
3
3
2
2
0
0
0
0
0
0
0
0
0
0
0
0
0
0
0
0
0
0
0
0
0
0
0
0
3
3
2
2
0
0
0
0
0
0
0
0
0
0
0
0
0
0
0
0
0
0
0
0
0
0
0
0
3
3
2
2
0
0
0
0
0
0
0
0
0
0
0
0
0
0
0
0
0
0
0
0
0
0
0
0
3
3
2
2
0
0
0
0
0
0
0
0
0
0
0
0
0
0
0
0
0
0
0
0
0
0
0
0
3
3
2
2
0
0
0
0
0
0
0
0
0
0
0
0
0
0
0
0
0
0
0
0
0
0
0
0
3
3
2
2
0
0
0
0
0
0
0
0
0
0
0
0
0
0
0
0
0
0
0
0
0
0
0
0
3
3
2
2
0
0
0
0
0
0
0
0
0
0
0
0
0
0
0
0
0
0
0
0
0
0
0
0
3
3
2
2
0
0
0
0
0
0
0
0
0
0
0
0
0
0
0
0
0
0
0
0
0
0
0
0
3
3
2
2
0
0
0
0
0
0
0
0
0
0
0
0
0
0
0
0
0
0
0
0
0
0
0
0
3
3
2
2
0
0
0
0
0
0
0
0
0
0
0
0
0
0
0
0
0
0
0
0
0
0
0
0
3
3
2
2
0
0
0
0
0
0
0
0
0
0
0
0
0
0
0
0
0
0
0
0
0
0
0
0
3
3
2
2
0
0
0
0
0
0
0
0
0
0
0
0
0
0
0
0
0
0
0
0
0
0
0
0
3
3
2
2
0
0
0
0
0
0
0
0
0
0
0
0
0
0
0
0
0
0
0
0
0
0
0
0
3
3
2
2
0
0
0
0
0
0
0
0
0
0
0
0
0
0
0
0
0
0
0
0
0
0
0
0
3
3
2
2
0
0
0
0
0
0
0
0
0
0
0
0
0
0
0
0
0
0
0
0
0
0
0
0
3
3
2
2
0
0
0
0
0
0
0
0
0
0
0
0
0
0
0
0
0
0
0
0
0
0
0
0
3
3
2
2
0
0
0
0
0
0
0
0
0
0
0
0
0
0
0
0
0
0
0
0
0
0
0
0
3
3
2
2
0
0
0
0
0
0
0
0
0
0
0
0
0
0
0
0
0
0
0
0
0
0
0
0
3
3
2
2
0
0
0
0
0
0
0
0
0
0
0
0
0
0
0
0
0
0
0
0
0
0
0
0
3
3
2
2
0
0
0
0
0
0
0
0
0
0
0
0
0
0
0
0
0
0
0
0
0
0
0
0
3
3
2
2
0
0
0
0
0
0
0
0
0
0
0
0
0
0
0
0
0
0
0
0
0
0
0
0
3
3
2
2
0
0
0
0
0
0
0
0
0
0
0
0
0
0
0
0
0
0
0
0
0
0
0
0
3
3
2
2
0
0
0
0
0
0
0
0
0
0
0
0
0
0
0
0
0
0
0
0
0
0
0
0
3
3
2
2
0
0
0
0
0
0
0
0
0
0
0
0
0
0
0
0
0
0
0
0
0
0
0
0
3
3
2
2
0
0
0
0
0
0
0
0
0
0
0
0
0
0
0
0
0
0
0
0
0
0
0
0
3
3
2
2
0
0
0
0
0
0
0
0
0
0
0
0
0
0
0
0
0
0
0
0
0
0
0
0
3
3
2
2
0
0
0
0
0
0
0
0
0
0
0
0
0
0
0
0
0
0
0
0
0
0
0
0
3
3
2
2
0
0
0
0
0
0
0
0
0
0
0
0
0
0
0
0
0
0
0
0
0
0
0
0
3
3
2
2
0
0
0
0
0
0
0
0
0
0
0
0
0
0
0
0
0
0
0
0
0
0
0
0
3
3
2
2
0
0
0
0
0
0
0
0
0
0
0
0
0
0
0
0
0
0
0
0
0
0
0
0
3
3
2
2
0
0
0
0
0
0
0
0
0
0
0
0
0
0
0
0
0
0
0
0
0
0
0
0
3
3
2
2
0
0
0
0
0
0
0
0
0
0
0
0
0
0
0
0
0
0
0
0
0
0
0
0
3
3
2
2
0
0
0
0
0
0
0
0
0
0
0
0
0
0
0
0
0
0
0
0
0
0
0
0
3
3
2
2
0
0
0
0
0
0
0
0
0
0
0
0
0
0
0
0
0
0
0
0
0
0
0
0
3
3
2
2
0
0
0
0
0
0
0
0
0
0
0
0
0
0
0
0
0
0
0
0
0
0
0
0
3
3
2
2
2
2
2
2
2
2
2
2
2
2
2
2
2
2
2
2
2
2
2
2
2
2
2
2
3
3
2
2
2
2
2
2
2
2
2
2
2
2
2
2
2
2
2
2
2
2
2
2
2
2
2
2
3
3
3
3
3
3
3
3
3
3
3
3
3
3
3
3
3
3
3
3
3
3
3
3
3
3
3
3
3
3
3
3
3
3
3
3
3
3
3
3
3
3
3
3
3
3
3
3
3
3
3
3
3
3
3
3
</DataArray>
<DataArray NumberOfComponents='1' type='Float32' Name='Velocity' format='ascii'>
0.000000
0.000000
0.000000
0.000000
0.000000
0.000000
0.000000
0.000000
0.000000
0.000000
0.000000
0.000000
0.000000
0.000000
0.000000
0.000000
0.000000
0.000000
0.000000
0.000000
0.000000
0.000000
0.000000
0.000000
0.000000
0.000000
0.000000
0.000000
0.000000
0.000000
0.000000
0.000000
0.000000
0.000000
0.000000
0.000000
0.000000
0.000000
0.000000
0.000000
0.000000
0.000000
0.000000
0.000000
0.000000
0.000000
0.000000
0.000000
0.000000
0.000000
0.000000
0.000000
0.000000
0.000000
0.000000
0.000000
0.000000
0.000000
0.000000
0.000000
0.000000
0.000000
0.000000
0.000000
0.000000
0.000000
0.000000
0.000000
0.000000
0.000000
0.000000
0.000000
0.000000
0.000000
0.000000
0.000000
0.000000
0.000000
0.000000
0.000000
0.000000
0.000000
0.000000
0.000000
0.000000
0.000000
0.000000
0.000000
0.000000
0.000000
0.000000
0.000000
0.000000
0.000000
0.000000
0.000000
0.000000
0.000000
0.000000
0.000000
0.000000
0.000000
0.000000
0.000000
0.000000
0.000000
0.000000
0.000000
0.000000
0.000000
0.000000
0.000000
0.000000
0.000000
0.000000
0.000000
0.003684
0.004439
0.004549
0.004684
0.003611
0.004335
0.002928
0.003069
0.002130
0.003704
0.005643
0.007694
0.007832
0.003432
0.003982
0.001379
0.007049
0.010263
0.000745
0.014000
0.010088
0.001594
0.004243
0.040697
1.000000
1.000000
1.000000
0.000000
0.000000
0.000000
0.000000
0.001652
0.002189
0.000491
0.000961
0.000636
0.001907
0.001848
0.000443
0.001738
0.003255
0.000719
0.002905
0.005711
0.008800
0.004872
0.004579
0.003703
0.002495
0.002076
0.006571
0.006131
0.004595
0.007625
0.006145
1.000000
1.000000
1.000000
0.000000
0.000000
0.000000
0.000000
0.002890
0.002527
0.002676
0.001056
0.000748
0.001174
0.001844
0.004879
0.005410
0.002568
0.000093
0.000892
0.003743
0.003075
0.003201
0.010439
0.003986
0.002663
0.013691
0.007090
0.009255
0.009392
0.015969
0.015320
1.000000
1.000000
1.000000
0.000000
0.000000
0.000000
0.000000
0.000960
0.000573
0.000368
0.002262
0.002445
0.002199
0.001675
0.000622
0.002836
0.003950
0.005836
0.003135
0.003900
0.001824
0.002025
0.006798
0.002756
0.004455
0.003976
0.003505
0.006791
0.008911
0.001629
0.004479
1.000000
1.000000
1.000000
0.000000
0.000000
0.000000
0.000000
0.000530
0.002431
0.000393
0.001265
0.000547
0.001908
0.005002
0.006760
0.006126
0.004150
0.004132
0.001983
0.006111
0.004296
0.003356
0.005277
0.002418
0.001230
0.002863
0.006264
0.007062
0.009601
0.014346
0.004866
1.000000
1.000000
1.000000
0.000000
0.000000
0.000000
0.000000
0.003766
0.002863
0.002216
0.001638
0.001435
0.001970
0.005187
0.005944
0.009457
0.006864
0.004822
0.004787
0.005364
0.002605
0.005837
0.004431
0.002003
0.008532
0.004269
0.003860
0.006813
0.006700
0.006672
0.011002
1.000000
1.000000
1.000000
0.000000
0.000000
0.000000
0.000000
0.002040
0.001717
0.001600
0.001564
0.002186
0.003401
0.006313
0.005800
0.007002
0.003634
0.004985
0.004651
0.004796
0.000679
0.003789
0.002343
0.003979
0.004671
0.000080
0.005107
0.003013
0.016416
0.021826
0.013845
1.000000
1.000000
1.000000
0.000000
0.000000
0.000000
0.000000
0.000829
0.000447
0.000626
0.002391
0.001312
0.002794
0.006963
0.008477
0.010549
0.006251
0.005341
0.004537
0.004771
0.003921
0.006796
0.002091
0.003861
0.007954
0.005992
0.005130
0.003402
0.013952
0.014457
0.025452
1.000000
1.000000
1.000000
0.000000
0.000000
0.000000
0.000000
0.002292
0.002060
0.001642
0.002701
0.001740
0.001738
0.007891
0.009789
0.012367
0.008725
0.010671
0.003948
0.002578
0.006837
0.002113
0.004783
0.005878
0.006125
0.002593
0.007257
0.007427
0.003682
0.014468
0.017473
1.000000
1.000000
1.000000
0.000000
0.000000
0.000000
0.000000
0.005159
0.003498
0.001939
0.002281
0.002484
0.000366
0.006266
0.008626
0.011432
0.007447
0.006937
0.005145
0.007727
0.006504
0.003996
0.006550
0.004610
0.004056
0.002811
0.003828
0.008572
0.013582
0.016204
0.024926
1.000000
1.000000
1.000000
0.000000
0.000000
0.000000
0.000000
0.003519
0.003355
0.001447
0.003499
0.002589
0.001522
0.005287
0.007822
0.009510
0.006651
0.008690
0.004090
0.004691
0.002538
0.006114
0.005384
0.005582
0.008119
0.006216
0.000295
0.008984
0.006267
0.009741
0.018612
1.000000
1.000000
1.000000
0.000000
0.000000
0.000000
0.000000
0.001328
0.003380
0.001289
0.002362
0.001682
0.000674
0.005951
0.008159
0.012066
0.009357
0.009675
0.004133
0.004120
0.001986
0.006045
0.007136
0.004287
0.006012
0.004970
0.002476
0.010681
0.012416
0.007364
0.021226
1.000000
1.000000
1.000000
0.000000
0.000000
0.000000
0.000000
0.003043
0.004144
0.003000
0.000574
0.002545
0.003128
0.008108
0.007766
0.008126
0.004252
0.004578
0.002713
0.007255
0.005458
0.009091
0.004240
0.004700
0.011994
0.000520
0.000711
0.006075
0.011270
0.009268
0.013634
1.000000
1.000000
1.000000
0.000000
0.000000
0.000000
0.000000
0.004944
0.005060
0.004445
0.002180
0.002503
0.002086
0.004271
0.004622
0.006234
0.005724
0.007638
0.001293
0.002212
0.003527
0.003323
0.006808
0.009681
0.007024
0.003364
0.003476
0.013314
0.007680
0.004523
0.024897
1.000000
1.000000
1.000000
0.000000
0.000000
0.000000
0.000000
0.004269
0.004876
0.004327
0.003418
0.001773
0.002415
0.005784
0.007664
0.010703
0.004921
0.002723
0.004793
0.002099
0.002448
0.004875
0.006362
0.003747
0.003256
0.010055
0.012968
0.007757
0.010435
0.017052
0.017689
1.000000
1.000000
1.000000
0.000000
0.000000
0.000000
0.000000
0.002217
0.004089
0.003630
0.003999
0.005522
0.006680
0.009331
0.004631
0.003002
0.004386
0.002505
0.002734
0.003977
0.003088
0.004020
0.003237
0.002910
0.006262
0.001537
0.005657
0.015725
0.010478
0.016741
0.007071
1.000000
1.000000
1.000000
0.000000
0.000000
0.000000
0.000000
0.002644
0.003861
0.005542
0.006023
0.007325
0.004954
0.003732
0.003011
0.002888
0.002030
0.002732
0.004572
0.004522
0.004150
0.006959
0.004342
0.006809
0.010479
0.021657
0.009941
0.010892
0.015032
0.006466
0.008012
0.000000
0.000000
0.000000
0.000000
0.003946
0.004106
0.004646
0.005206
0.004853
0.005592
0.006842
0.004915
0.003558
0.003536
0.003642
0.004068
0.004354
0.006583
0.005026
0.002948
0.008495
0.006432
0.006607
0.018275
0.027367
0.004177
0.005168
0.023882
0.000000
0.000000
0.000000
0.000000
0.001744
0.003320
0.003203
0.005576
0.008096
0.008525
0.007712
0.002271
0.001147
0.004738
0.002369
0.001950
0.004672
0.003900
0.006756
0.006098
0.002124
0.007467
0.010947
0.020937
0.010203
0.014843
0.010628
0.026141
0.000000
0.000000
0.000000
0.000000
0.002244
0.002862
0.005211
0.006940
0.007683
0.006504
0.005038
0.003307
0.001178
0.002630
0.003560
0.000660
0.004265
0.004269
0.004744
0.003109
0.001860
0.006092
0.017595
0.013081
0.022671
0.040193
0.035702
0.054394
0.000000
0.000000
0.000000
0.000000
0.004324
0.003290
0.004479
0.004898
0.005493
0.006276
0.005931
0.003411
0.001822
0.001418
0.002869
0.001533
0.004120
0.001911
0.003352
0.007195
0.000397
0.007418
0.028333
0.022563
0.044859
0.040829
0.022140
0.093440
0.000000
0.000000
0.000000
0.000000
0.003145
0.002523
0.003494
0.004755
0.005654
0.005395
0.004698
0.004063
0.003070
0.001480
0.002236
0.000439
0.003375
0.002855
0.001899
0.005780
0.003987
0.009861
0.015500
0.021650
0.018355
0.033980
0.044832
0.074783
0.000000
0.000000
0.000000
0.000000
0.002934
0.002668
0.004009
0.003988
0.003841
0.004448
0.004561
0.004162
0.003319
0.001833
0.002983
0.001861
0.001749
0.004339
0.000935
0.004418
0.001887
0.005128
0.007513
0.011998
0.007807
0.015081
0.005151
0.002758
0.000000
0.000000
0.000000
0.000000
0.003456
0.001995
0.002375
0.003147
0.003503
0.004453
0.004609
0.004362
0.004314
0.002488
0.001128
0.002874
0.001831
0.001812
0.002441
0.002108
0.006730
0.005280
0.003394
0.009821
0.005647
0.006129
0.002649
0.003164
0.000000
0.000000
0.000000
0.000000
0.002033
0.001593
0.002102
0.003179
0.004035
0.004273
0.004805
0.003992
0.003466
0.002379
0.001702
0.001794
0.001507
0.002684
0.002748
0.002853
0.001476
0.007037
0.003085
0.006951
0.003596
0.010462
0.004517
0.004478
0.000000
0.000000
0.000000
0.000000
0.002309
0.001857
0.002809
0.003284
0.003929
0.004019
0.004287
0.003722
0.002694
0.002893
0.001084
0.002612
0.001155
0.002463
0.001899
0.005112
0.001286
0.004458
0.002302
0.007386
0.006433
0.003716
0.003605
0.005242
0.000000
0.000000
0.000000
0.000000
0.002748
0.001975
0.002641
0.003210
0.003699
0.003784
0.003169
0.003389
0.002642
0.002495
0.002545
0.001654
0.001375
0.002869
0.001328
0.002308
0.001080
0.002121
0.005011
0.004232
0.005249
0.006121
0.003902
0.001807
0.000000
0.000000
0.000000
0.000000
0.002339
0.002223
0.002571
0.003174
0.002902
0.003485
0.003330
0.003911
0.004343
0.003052
0.002051
0.002198
0.000871
0.002762
0.001721
0.003531
0.001806
0.004040
0.003634
0.004370
0.005199
0.004880
0.003439
0.004507
0.000000
0.000000
0.000000
0.000000
0.002074
0.002207
0.002169
0.003105
0.003147
0.004132
0.004917
0.004002
0.003244
0.002544
0.000935
0.002719
0.001205
0.003107
0.001672
0.002476
0.001220
0.004522
0.002854
0.006998
0.000373
0.003999
0.005574
0.004186
0.000000
0.000000
0.000000
0.000000
0.001966
0.002149
0.002345
0.003534
0.004302
0.004186
0.003704
0.003541
0.002441
0.002969
0.000892
0.001842
0.001978
0.001184
0.001252
0.004276
0.001141
0.004654
0.001589
0.002888
0.002011
0.006846
0.003063
0.001694
0.000000
0.000000
0.000000
0.000000
0.002095
0.002182
0.002954
0.003524
0.003449
0.003811
0.003342
0.003718
0.002906
0.002380
0.002833
0.001552
0.000851
0.004130
0.002558
0.001949
0.002321
0.002669
0.001127
0.004947
0.003257
0.003479
0.002433
0.005249
0.000000
0.000000
0.000000
0.000000
0.002469
0.002248
0.002578
0.003283
0.003181
0.003907
0.003696
0.003733
0.003912
0.003143
0.001136
0.003072
0.001869
0.001016
0.002259
0.001737
0.002467
0.002806
0.003256
0.002741
0.001817
0.005450
0.003077
0.001103
0.000000
0.000000
0.000000
0.000000
0.002173
0.002103
0.002302
0.003255
0.003408
0.004027
0.004371
0.004147
0.002907
0.002493
0.000233
0.001243
0.002467
0.001280
0.003035
0.001973
0.002295
0.001761
0.001197
0.002585
0.003678
0.002661
0.001196
0.004932
0.000000
0.000000
0.000000
0.000000
0.001898
0.002030
0.002479
0.003414
0.003971
0.004247
0.003645
0.003316
0.002059
0.002748
0.003199
0.001222
0.002020
0.002667
0.001674
0.000903
0.001345
0.002154
0.002742
0.004354
0.000818
0.003883
0.003901
0.001657
0.000000
0.000000
0.000000
0.000000
0.002124
0.002074
0.002888
0.003512
0.003370
0.003613
0.003003
0.003821
0.004256
0.002742
0.000314
0.002146
0.001279
0.000611
0.001903
0.002270
0.000977
0.002829
0.000761
0.001375
0.003340
0.003554
0.002008
0.004060
0.000000
0.000000
0.000000
0.000000
0.002371
0.002088
0.002429
0.003049
0.002965
0.003996
0.004568
0.004047
0.002354
0.002228
0.001456
0.001483
0.001342
0.002431
0.001461
0.000862
0.000883
0.001633
0.001673
0.004676
0.001599
0.003531
0.003943
0.002510
0.000000
0.000000
0.000000
0.000000
0.001900
0.001905
0.002195
0.003312
0.003998
0.004220
0.003347
0.003204
0.002716
0.002896
0.001971
0.001348
0.001192
0.000473
0.001734
0.001497
0.000880
0.002661
0.001436
0.001552
0.002952
0.004170
0.002725
0.003039
0.000000
0.000000
0.000000
0.000000
0.001776
0.002006
0.002841
0.003455
0.003269
0.003529
0.003350
0.003968
0.003521
0.002170
0.000547
0.000998
0.001494
0.001196
0.001810
0.000300
0.001110
0.000967
0.001070
0.003789
0.002580
0.003424
0.003223
0.003217
0.000000
0.000000
0.000000
0.000000
0.002189
0.002036
0.002419
0.003059
0.003123
0.004068
0.004117
0.003572
0.002374
0.002226
0.001911
0.000664
0.001158
0.001314
0.001532
0.000733
0.000980
0.002143
0.001958
0.002460
0.002440
0.003723
0.003194
0.002349
0.000000
0.000000
0.000000
0.000000
0.001825
0.001859
0.002259
0.003280
0.003729
0.003906
0.003312
0.003395
0.003140
0.002518
0.001017
0.001047
0.001109
0.000462
0.001613
0.000824
0.000637
0.001260
0.001284
0.002692
0.002842
0.003159
0.002588
0.003402
0.000000
0.000000
0.000000
0.000000
0.001633
0.001961
0.002647
0.003291
0.003211
0.003696
0.003643
0.003794
0.002875
0.002065
0.001266
0.000636
0.000971
0.001528
0.001248
0.000437
0.000854
0.001888
0.001842
0.003152
0.002163
0.003092
0.003494
0.002219
0.000000
0.000000
0.000000
0.000000
0.001891
0.001957
0.002384
0.003115
0.003319
0.003949
0.003722
0.003404
0.002741
0.002359
0.001434
0.000806
0.001010
0.000606
0.001411
0.000787
0.000174
0.001421
0.001578
0.002090
0.002871
0.003204
0.002615
0.003147
0.000000
0.000000
0.000000
0.000000
0.001669
0.001851
0.002359
0.003239
0.003478
0.003795
0.003452
0.003567
0.003018
0.002184
0.001075
0.000602
0.000884
0.001167
0.001231
0.000349
0.000699
0.001569
0.001487
0.003272
0.002332
0.002876
0.003514
0.002365
0.000000
0.000000
0.000000
0.000000
0.001558
0.001915
0.002490
0.003189
0.003267
0.003770
0.003679
0.003542
0.002785
0.002149
0.001358
0.000591
0.000959
0.000997
0.001344
0.000587
0.000350
0.001306
0.001749
0.002038
0.002863
0.003184
0.002885
0.002808
0.000000
0.000000
0.000000
0.000000
0.001636
0.001886
0.002383
0.003146
0.003363
0.003845
0.003578
0.003459
0.002895
0.002231
0.001228
0.000617
0.000768
0.000929
0.001146
0.000479
0.000302
0.001327
0.001406
0.002972
0.002557
0.002873
0.003382
0.002484
0.000000
0.000000
0.000000
0.000000
0.001511
0.001849
0.002385
0.003182
0.003379
0.003752
0.003562
0.003522
0.002891
0.002091
0.001197
0.000527
0.000859
0.001111
0.001258
0.000621
0.000645
0.001375
0.001764
0.002261
0.002804
0.002983
0.003147
0.002571
0.000000
0.000000
0.000000
0.000000
0.001464
0.001868
0.002419
0.003140
0.003300
0.003788
0.003637
0.003443
0.002862
0.002179
0.001307
0.000501
0.000711
0.000936
0.001107
0.000403
0.000091
0.001230
0.001602
0.002532
0.002726
0.002908
0.003265
0.002511
0.000000
0.000000
0.000000
0.000000
0.001460
0.001826
0.002381
0.003151
0.003370
0.003758
0.003562
0.003493
0.002873
0.002086
0.001199
0.000467
0.000811
0.001090
0.001131
0.000715
0.000721
0.001410
0.001707
0.002546
0.002701
0.002755
0.003358
0.002428
0.000000
0.000000
0.000000
0.000000
0.001349
0.001847
0.002371
0.003119
0.003342
0.003746
0.003611
0.003418
0.002926
0.002094
0.001284
0.000489
0.000661
0.000983
0.001112
0.000284
0.000020
0.001153
0.001779
0.002148
0.002904
0.002897
0.003211
0.002480
0.000000
0.000000
0.000000
0.000000
0.001410
0.001824
0.002421
0.003122
0.003312
0.003775
0.003598
0.003441
0.002838
0.002148
0.001220
0.000292
0.000711
0.001113
0.001091
0.000729
0.000531
0.001244
0.001658
0.002717
0.002618
0.002632
0.003492
0.002325
0.000000
0.000000
0.000000
0.000000
0.001292
0.001757
0.002325
0.003141
0.003391
0.003655
0.003613
0.003464
0.002933
0.001933
0.001323
0.000573
0.000764
0.000985
0.001013
0.000326
0.000236
0.001162
0.001851
0.001961
0.003023
0.002767
0.003250
0.002447
0.000000
0.000000
0.000000
0.000000
0.001252
0.001883
0.002414
0.003039
0.003312
0.003846
0.003558
0.003344
0.002904
0.002225
0.001143
0.000199
0.000451
0.001188
0.001185
0.000658
0.000411
0.001015
0.001652
0.002670
0.002684
0.002663
0.003506
0.002208
0.000000
0.000000
0.000000
0.000000
0.001334
0.001756
0.002417
0.003163
0.003326
0.003578
0.003708
0.003460
0.002877
0.001903
0.001424
0.000388
0.000963
0.000863
0.000908
0.000480
0.000351
0.001257
0.001887
0.001955
0.002996
0.002588
0.003372