<?xml version='1.0' encoding='UTF-8'?>
<VTKFile xmlns='VTK' byte_order='LittleEndian' version='0.1' type='UnstructuredGrid'>
<UnstructuredGrid>
<Piece NumberOfCells='2512' NumberOfPoints='2512'>
<Points>
<DataArray NumberOfComponents='3' type='Float32' Name='Position' format='ascii'>
-0.075000 -0.075000 0.000000
-0.075000 -0.050000 0.000000
-0.075000 -0.025000 0.000000
-0.075000 0.000000 0.000000
-0.075000 0.025000 0.000000
-0.075000 0.050000 0.000000
-0.075000 0.075000 0.000000
-0.075000 0.100000 0.000000
-0.075000 0.125000 0.000000
-0.075000 0.150000 0.000000
-0.075000 0.175000 0.000000
-0.075000 0.200000 0.000000
-0.075000 0.225000 0.000000
-0.075000 0.250000 0.000000
-0.075000 0.275000 0.000000
-0.075000 0.300000 0.000000
-0.075000 0.325000 0.000000
-0.075000 0.350000 0.000000
-0.075000 0.375000 0.000000
-0.075000 0.400000 0.000000
-0.075000 0.425000 0.000000
-0.075000 0.450000 0.000000
-0.075000 0.475000 0.000000
-0.075000 0.500000 0.000000
-0.075000 0.525000 0.000000
-0.075000 0.550000 0.000000
-0.075000 0.575000 0.000000
-0.075000 0.600000 0.000000
-0.050000 -0.075000 0.000000
-0.050000 -0.050000 0.000000
-0.050000 -0.025000 0.000000
-0.050000 0.000000 0.000000
-0.050000 0.025000 0.000000
-0.050000 0.050000 0.000000
-0.050000 0.075000 0.000000
-0.050000 0.100000 0.000000
-0.050000 0.125000 0.000000
-0.050000 0.150000 0.000000
-0.050000 0.175000 0.000000
-0.050000 0.200000 0.000000
-0.050000 0.225000 0.000000
-0.050000 0.250000 0.000000
-0.050000 0.275000 0.000000
-0.050000 0.300000 0.000000
-0.050000 0.325000 0.000000
-0.050000 0.350000 0.000000
-0.050000 0.375000 0.000000
-0.050000 0.400000 0.000000
-0.050000 0.425000 0.000000
-0.050000 0.450000 0.000000
-0.050000 0.475000 0.000000
-0.050000 0.500000 0.000000
-0.050000 0.525000 0.000000
-0.050000 0.550000 0.000000
-0.050000 0.575000 0.000000
-0.050000 0.600000 0.000000
-0.025000 -0.075000 0.000000
-0.025000 -0.050000 0.000000
-0.025000 -0.025000 0.000000
-0.025000 0.000000 0.000000
-0.025000 0.025000 0.000000
-0.025000 0.050000 0.000000
-0.025000 0.075000 0.000000
-0.025000 0.100000 0.000000
-0.025000 0.125000 0.000000
-0.025000 0.150000 0.000000
-0.025000 0.175000 0.000000
-0.025000 0.200000 0.000000
-0.025000 0.225000 0.000000
-0.025000 0.250000 0.000000
-0.025000 0.275000 0.000000
-0.025000 0.300000 0.000000
-0.025000 0.325000 0.000000
-0.025000 0.350000 0.000000
-0.025000 0.375000 0.000000
-0.025000 0.400000 0.000000
-0.025000 0.425000 0.000000
-0.025000 0.450000 0.000000
-0.025000 0.475000 0.000000
-0.025000 0.500000 0.000000
-0.025000 0.525000 0.000000
-0.025000 0.550000 0.000000
-0.025000 0.575000 0.000000
-0.025000 0.600000 0.000000
0.000000 -0.075000 0.000000
0.000000 -0.050000 0.000000
0.000000 -0.025000 0.000000
0.000000 0.000000 0.000000
0.000000 0.025000 0.000000
0.000000 0.050000 0.000000
0.000000 0.075000 0.000000
0.000000 0.100000 0.000000
0.000000 0.125000 0.000000
0.000000 0.150000 0.000000
0.000000 0.175000 0.000000
0.000000 0.200000 0.000000
0.000000 0.225000 0.000000
0.000000 0.250000 0.000000
0.000000 0.275000 0.000000
0.000000 0.300000 0.000000
0.000000 0.325000 0.000000
0.000000 0.350000 0.000000
0.000000 0.375000 0.000000
0.000000 0.400000 0.000000
0.000000 0.425000 0.000000
0.000000 0.450000 0.000000
0.000000 0.475000 0.000000
0.000000 0.500000 0.000000
0.000000 0.525000 0.000000
0.000000 0.550000 0.000000
0.000000 0.575000 0.000000
0.000000 0.600000 0.000000
0.025000 -0.075000 0.000000
0.025000 -0.050000 0.000000
0.025000 -0.025000 0.000000
0.025000 0.000000 0.000000
-566.401716 0.600000 0.000000
18.617394 -31.300261 0.000000
-6.197443 -10.221720 0.000000
4.491622 -9.998485 0.000000
0.185661 0.118506 0.000000
-15257098.200853 0.600000 0.000000
2.748597 -19.103143 0.000000
7.888129 -13.888733 0.000000
-11.870970 -1.672225 0.000000
3.245106 -68.210256 0.000000
144.679527 -499.301179 0.000000
9.608138 -63.123226 0.000000
13021.371658 0.600000 0.000000
-4844.512100 0.600000 0.000000
-12.474925 0.600000 0.000000
-73.142029 -139.839019 0.000000
-21.055760 -20.074384 0.000000
182.240274 -253.500990 0.000000
17.864414 -19.841148 0.000000
-287.247154 0.600000 0.000000
75.794753 -161.090345 0.000000
-186.977534 0.600000 0.000000
-445.677365 0.600000 0.000000
14616725.165310 0.600000 0.000000
1.175000 0.625000 0.000000
1.175000 0.650000 0.000000
1.175000 0.675000 0.000000
0.050000 -0.075000 0.000000
0.050000 -0.050000 0.000000
0.050000 -0.025000 0.000000
0.050000 0.000000 0.000000
-23.723355 0.600000 0.000000
-20.679078 -5.798824 0.000000
289.319024 0.600000 0.000000
12.488607 0.600000 0.000000
897.659523 0.600000 0.000000
-5.567022 -3.746313 0.000000
-5.433611 -10.353577 0.000000
-10.629859 0.600000 0.000000
-3917.554473 -7295.614377 0.000000
3805.268652 0.600000 0.000000
1.717930 -21.468783 0.000000
18.064985 -16.534878 0.000000
-49.046029 -18.511830 0.000000
204.290516 0.600000 0.000000
3712.082774 0.600000 0.000000
-190.385590 0.600000 0.000000
-23.360592 -10.998364 0.000000
-63.750988 0.600000 0.000000
354.902949 0.600000 0.000000
-50.474950 -66.151676 0.000000
238.932595 0.600000 0.000000
4810.322024 -1002.560033 0.000000
48.527268 -198.435143 0.000000
523.834078 0.600000 0.000000
1.200000 0.625000 0.000000
1.200000 0.650000 0.000000
1.200000 0.675000 0.000000
0.075000 -0.075000 0.000000
0.075000 -0.050000 0.000000
0.075000 -0.025000 0.000000
0.075000 0.000000 0.000000
-15.910489 -15.708476 0.000000
5286.178164 0.600000 0.000000
4.660159 0.600000 0.000000
-727.864357 0.600000 0.000000
-12.665366 -8.563842 0.000000
37.087430 0.600000 0.000000
8.086566 -36.718377 0.000000
898.982839 0.600000 0.000000
181.686795 0.600000 0.000000
8.918861 -101.166488 0.000000
29.756489 -28.765999 0.000000
-322.359507 0.600000 0.000000
-149.283297 0.600000 0.000000
226.594507 -149.341252 0.000000
160.140350 0.600000 0.000000
6.180762 -0.148715 0.000000
890.859505 -353.936700 0.000000
0.032041 0.020563 0.000000
61.507636 -47.884172 0.000000
14.841853 -20.452936 0.000000
1194.663307 0.600000 0.000000
-21.865888 -59.497239 0.000000
-1676.202645 0.600000 0.000000
-366.989711 0.600000 0.000000
1.225000 0.625000 0.000000
1.225000 0.650000 0.000000
1.225000 0.675000 0.000000
0.100000 -0.075000 0.000000
0.100000 -0.050000 0.000000
0.100000 -0.025000 0.000000
0.100000 0.000000 0.000000
1.068574 0.600000 0.000000
24304551.049365 0.600000 0.000000
-198.103671 -187.955413 0.000000
20488.994707 0.600000 0.000000
-1801.551404 0.600000 0.000000
-2.425685 0.600000 0.000000
-36578.653238 0.600000 0.000000
30.234477 -0.023836 0.000000
4.826403 -6.428526 0.000000
19.570166 -7.735764 0.000000
-7.104789 -12.188323 0.000000
-557.502638 0.600000 0.000000
-17.089219 0.600000 0.000000
62.022126 -14.400133 0.000000
-35.891054 0.600000 0.000000
-35.488072 -29.780870 0.000000
0.114683 0.051221 0.000000
-6.940371 0.600000 0.000000
17.422461 -10.102228 0.000000
-37.227365 0.600000 0.000000
1.018847 0.092917 0.000000
25.644108 -37.200217 0.000000
576.738414 0.600000 0.000000
-7305.137755 0.600000 0.000000
1.250000 0.625000 0.000000
1.250000 0.650000 0.000000
1.250000 0.675000 0.000000
0.125000 -0.075000 0.000000
0.125000 -0.050000 0.000000
0.125000 -0.025000 0.000000
0.125000 0.000000 0.000000
-158.993612 0.600000 0.000000
508.134273 0.600000 0.000000
-451.390531 0.600000 0.000000
-138.067427 0.600000 0.000000
2.119878 -11.111858 0.000000
36.053919 -24.940270 0.000000
-212.628207 0.600000 0.000000
-3.514634 -23.377288 0.000000
13384.703937 0.600000 0.000000
-88.873768 -292.697157 0.000000
-112.272993 0.600000 0.000000
-552.875332 0.600000 0.000000
-4.017210 0.189910 0.000000
-75.339404 0.600000 0.000000
-106.905698 0.600000 0.000000
-120.625374 0.600000 0.000000
1638.058988 0.600000 0.000000
350.270961 0.600000 0.000000
-7.485013 -27.307395 0.000000
-60.855717 -37.188297 0.000000
-34.965126 0.336436 0.000000
612.151850 0.600000 0.000000
177727.277663 0.600000 0.000000
-52613.096582 0.600000 0.000000
1.275000 0.625000 0.000000
1.275000 0.650000 0.000000
1.275000 0.675000 0.000000
0.150000 -0.075000 0.000000
0.150000 -0.050000 0.000000
0.150000 -0.025000 0.000000
0.150000 0.000000 0.000000
-19.332061 0.600000 0.000000
-372.164704 0.600000 0.000000
-0.317756 -11.762864 0.000000
-42.999039 -26.136866 0.000000
-1131.221601 0.600000 0.000000
1.975572 0.378415 0.000000
71.738207 0.600000 0.000000
2.198454 -6.012390 0.000000
-33.592599 0.600000 0.000000
-1072.844599 0.600000 0.000000
-137.859129 -61.575487 0.000000
6.865413 -15.294278 0.000000
-21.979136 -19.724826 0.000000
-7459.667551 0.600000 0.000000
-2209.370957 0.600000 0.000000
-43.492087 -17.067127 0.000000
-43.517486 0.600000 0.000000
2.944646 -1210.216415 0.000000
2294.077701 0.600000 0.000000
1565.161936 0.600000 0.000000
-2195.098730 0.600000 0.000000
38.314426 -90.870855 0.000000
934.804649 0.600000 0.000000
374.329299 0.600000 0.000000
1.300000 0.625000 0.000000
1.300000 0.650000 0.000000
1.300000 0.675000 0.000000
0.175000 -0.075000 0.000000
0.175000 -0.050000 0.000000
0.175000 -0.025000 0.000000
0.175000 0.000000 0.000000
-95.863387 0.600000 0.000000
-1021.396294 0.600000 0.000000
2.628870 -9.863047 0.000000
17766.798086 0.600000 0.000000
203.581191 0.600000 0.000000
-46.688023 -35.395065 0.000000
5.474051 -44.639977 0.000000
65.688066 0.600000 0.000000
-429.297750 0.600000 0.000000
-262.541212 -133.780153 0.000000
4802.606017 0.600000 0.000000
-650.523746 0.600000 0.000000
901.866190 0.600000 0.000000
1444.378068 0.600000 0.000000
520.145002 -249.644577 0.000000
-130.716456 0.600000 0.000000
-1290.381318 -2880.392924 0.000000
1138.587351 0.600000 0.000000
6323778.721118 0.600000 0.000000
211.582787 0.600000 0.000000
2285.770899 0.600000 0.000000
-181.371137 -83.020810 0.000000
-26.466817 -163.088028 0.000000
553.748137 0.600000 0.000000
1.325000 0.625000 0.000000
1.325000 0.650000 0.000000
1.325000 0.675000 0.000000
0.200000 -0.075000 0.000000
0.200000 -0.050000 0.000000
0.200000 -0.025000 0.000000
0.200000 0.000000 0.000000
-152.688401 0.600000 0.000000
-329.688657 0.600000 0.000000
171.873268 -9.080693 0.000000
[...]
<PointData>
<DataArray NumberOfComponents='1' type='Int32' Name='ParticleType' format='ascii'>
3
3
3
3
3
3
3
3
3
3
3
3
3
3
3
3
3
3
3
3
3
3
3
3
3
3
3
3
3
3
3
3
3
3
3
3
3
3
3
3
3
3
3
3
3
3
3
3
3
3
3
3
3
3
3
3
3
3
2
2
2
2
2
2
2
2
2
2
2
2
2
2
2
2
2
2
2
2
2
2
2
2
2
2
3
3
2
2
2
2
2
2
2
2
2
2
2
2
2
2
2
2
2
2
2
2
2
2
2
2
2
2
3
3
2
2
0
0
0
0
0
0
0
0
0
0
0
0
0
0
0
0
0
0
0
0
0
0
0
0
1
1
1
3
3
2
2
0
0
0
0
0
0
0
0
0
0
0
0
0
0
0
0
0
0
0
0
0
0
0
0
1
1
1
3
3
2
2
0
0
0
0
0
0
0
0
0
0
0
0
0
0
0
0
0
0
0
0
0
0
0
0
1
1
1
3
3
2
2
0
0
0
0
0
0
0
0
0
0
0
0
0
0
0
0
0
0
0
0
0
0
0
0
1
1
1
3
3
2
2
0
0
0
0
0
0
0
0
0
0
0
0
0
0
0
0
0
0
0
0
0
0
0
0
1
1
1
3
3
2
2
0
0
0
0
0
0
0
0
0
0
0
0
0
0
0
0
0
0
0
0
0
0
0
0
1
1
1
3
3
2
2
0
0
0
0
0
0
0
0
0
0
0
0
0
0
0
0
0
0
0
0
0
0
0
0
1
1
1
3
3
2
2
0
0
0
0
0
0
0
0
0
0
0
0
0
0
0
0
0
0
0
0
0
0
0
0
1
1
1
3
3
2
2
0
0
0
0
0
0
0
0
0
0
0
0
0
0
0
0
0
0
0
0
0
0
0
0
1
1
1
3
3
2
2
0
0
0
0
0
0
0
0
0
0
0
0
0
0
0
0
0
0
0
0
0
0
0
0
1
1
1
3
3
2
2
0
0
0
0
0
0
0
0
0
0
0
0
0
0
0
0
0
0
0
0
0
0
0
0
1
1
1
3
3
2
2
0
0
0
0
0
0
0
0
0
0
0
0
0
0
0
0
0
0
0
0
0
0
0
0
1
1
1
3
3
2
2
0
0
0
0
0
0
0
0
0
0
0
0
0
0
0
0
0
0
0
0
0
0
0
0
1
1
1
3
3
2
2
0
0
0
0
0
0
0
0
0
0
0
0
0
0
0
0
0
0
0
0
0
0
0
0
1
1
1
3
3
2
2
0
0
0
0
0
0
0
0
0
0
0
0
0
0
0
0
0
0
0
0
0
0
0
0
1
1
1
3
3
2
2
0
0
0
0
0
0
0
0
0
0
0
0
0
0
0
0
0
0
0
0
0
0
0
0
1
1
1
3
3
2
2
0
0
0
0
0
0
0
0
0
0
0
0
0
0
0
0
0
0
0
0
0
0
0
0
3
3
2
2
0
0
0
0
0
0
0
0
0
0
0
0
0
0
0
0
0
0
0
0
0
0
0
0
3
3
2
2
0
0
0
0
0
0
0
0
0
0
0
0
0
0
0
0
0
0
0
0
0
0
0
0
3
3
2
2
0
0
0
0
0
0
0
0
0
0
0
0
0
0
0
0
0
0
0
0
0
0
0
0
3
3
2
2
0
0
0
0
0
0
0
0
0
0
0
0
0
0
0
0
0
0
0
0
0
0
0
0
3
3
2
2
0
0
0
0
0
0
0
0
0
0
0
0
0
0
0
0
0
0
0
0
0
0
0
0
3
3
2
2
0
0
0
0
0
0
0
0
0
0
0
0
0
0
0
0
0
0
0
0
0
0
0
0
3
3
2
2
0
0
0
0
0
0
0
0
0
0
0
0
0
0
0
0
0
0
0
0
0
0
0
0
3
3
2
2
0
0
0
0
0
0
0
0
0
0
0
0
0
0
0
0
0
0
0
0
0
0
0
0
3
3
2
2
0
0
0
0
0
0
0
0
0
0
0
0
0
0
0
0
0
0
0
0
0
0
0
0
3
3
2
2
0
0
0
0
0
0
0
0
0
0
0
0
0
0
0
0
0
0
0
0
0
0
0
0
3
3
2
2
0
0
0
0
0
0
0
0
0
0
0
0
0
0
0
0
0
0
0
0
0
0
0
0
3
3
2
2
0
0
0
0
0
0
0
0
0
0
0
0
0
0
0
0
0
0
0
0
0
0
0
0
3
3
2
2
0
0
0
0
0
0
0
0
0
0
0
0
0
0
0
0
0
0
0
0
0
0
0
0
3
3
2
2
0
0
0
0
0
0
0
0
0
0
0
0
0
0
0
0
0
0
0
0
0
0
0
0
3
3
2
2
0
0
0
0
0
0
0
0
0
0
0
0
0
0
0
0
0
0
0
0
0
0
0
0
3
3
2
2
0
0
0
0
0
0
0
0
0
0
0
0
0
0
0
0
0
0
0
0
0
0
0
0
3
3
2
2
0
0
0
0
0
0
0
0
0
0
0
0
0
0
0
0
0
0
0
0
0
0
0
0
3
3
2
2
0
0
0
0
0
0
0
0
0
0
0
0
0
0
0
0
0
0
0
0
0
0
0
0
3
3
2
2
0
0
0
0
0
0
0
0
0
0
0
0
0
0
0
0
0
0
0
0
0
0
0
0
3
3
2
2
0
0
0
0
0
0
0
0
0
0
0
0
0
0
0
0
0
0
0
0
0
0
0
0
3
3
2
2
0
0
0
0
0
0
0
0
0
0
0
0
0
0
0
0
0
0
0
0
0
0
0
0
3
3
2
2
0
0
0
0
0
0
0
0
0
0
0
0
0
0
0
0
0
0
0
0
0
0
0
0
3
3
2
2
0
0
0
0
0
0
0
0
0
0
0
0
0
0
0
0
0
0
0
0
0
0
0
0
3
3
2
2
0
0
0
0
0
0
0
0
0
0
0
0
0
0
0
0
0
0
0
0
0
0
0
0
3
3
2
2
0
0
0
0
0
0
0
0
0
0
0
0
0
0
0
0
0
0
0
0
0
0
0
0
3
3
2
2
0
0
0
0
0
0
0
0
0
0
0
0
0
0
0
0
0
0
0
0
0
0
0
0
3
3
2
2
0
0
0
0
0
0
0
0
0
0
0
0
0
0
0
0
0
0
0
0
0
0
0
0
3
3
2
2
0
0
0
0
0
0
0
0
0
0
0
0
0
0
0
0
0
0
0
0
0
0
0
0
3
3
2
2
0
0
0
0
0
0
0
0
0
0
0
0
0
0
0
0
0
0
0
0
0
0
0
0
3
3
2
2
0
0
0
0
0
0
0
0
0
0
0
0
0
0
0
0
0
0
0
0
0
0
0
0
3
3
2
2
0
0
0
0
0
0
0
0
0
0
0
0
0
0
0
0
0
0
0
0
0
0
0
0
3
3
2
2
0
0
0
0
0
0
0
0
0
0
0
0
0
0
0
0
0
0
0
0
0
0
0
0
3
3
2
2
0
0
0
0
0
0
0
0
0
0
0
0
0
0
0
0
0
0
0
0
0
0
0
0
3
3
2
2
0
0
0
0
0
0
0
0
0
0
0
0
0
0
0
0
0
0
0
0
0
0
0
0
3
3
2
2
0
0
0
0
0
0
0
0
0
0
0
0
0
0
0
0
0
0
0
0
0
0
0
0
3
3
2
2
0
0
0
0
0
0
0
0
0
0
0
0
0
0
0
0
0
0
0
0
0
0
0
0
3
3
2
2
0
0
0
0
0
0
0
0
0
0
0
0
0
0
0
0
0
0
0
0
0
0
0
0
3
3
2
2
0
0
0
0
0
0
0
0
0
0
0
0
0
0
0
0
0
0
0
0
0
0
0
0
3
3
2
2
0
0
0
0
0
0
0
0
0
0
0
0
0
0
0
0
0
0
0
0
0
0
0
0
3
3
2
2
0
0
0
0
0
0
0
0
0
0
0
0
0
0
0
0
0
0
0
0
0
0
0
0
3
3
2
2
0
0
0
0
0
0
0
0
0
0
0
0
0
0
0
0
0
0
0
0
0
0
0
0
3
3
2
2
0
0
0
0
0
0
0
0
0
0
0
0
0
0
0
0
0
0
0
0
0
0
0
0
3
3
2
2
0
0
0
0
0
0
0
0
0
0
0
0
0
0
0
0
0
0
0
0
0
0
0
0
3
3
2
2
0
0
0
0
0
0
0
0
0
0
0
0
0
0
0
0
0
0
0
0
0
0
0
0
3
3
2
2
0
0
0
0
0
0
0
0
0
0
0
0
0
0
0
0
0
0
0
0
0
0
0
0
3
3
2
2
0
0
0
0
0
0
0
0
0
0
0
0
0
0
0
0
0
0
0
0
0
0
0
0
3
3
2
2
0
0
0
0
0
0
0
0
0
0
0
0
0
0
0
0
0
0
0
0
0
0
0
0
3
3
2
2
0
0
0
0
0
0
0
0
0
0
0
0
0
0
0
0
0
0
0
0
0
0
0
0
3
3
2
2
0
0
0
0
0
0
0
0
0
0
0
0
0
0
0
0
0
0
0
0
0
0
0
0
3
3
2
2
0
0
0
0
0
0
0
0
0
0
0
0
0
0
0
0
0
0
0
0
0
0
0
0
3
3
2
2
0
0
0
0
0
0
0
0
0
0
0
0
0
0
0
0
0
0
0
0
0
0
0
0
3
3
2
2
0
0
0
0
0
0
0
0
0
0
0
0
0
0
0
0
0
0
0
0
0
0
0
0
3
3
2
2
0
0
0
0
0
0
0
0
0
0
0
0
0
0
0
0
0
0
0
0
0
0
0
0
3
3
2
2
0
0
0
0
0
0
0
0
0
0
0
0
0
0
0
0
0
0
0
0
0
0
0
0
3
3
2
2
0
0
0
0
0
0
0
0
0
0
0
0
0
0
0
0
0
0
0
0
0
0
0
0
3
3
2
2
0
0
0
0
0
0
0
0
0
0
0
0
0
0
0
0
0
0
0
0
0
0
0
0
3
3
2
2
0
0
0
0
0
0
0
0
0
0
0
0
0
0
0
0
0
0
0
0
0
0
0
0
3
3
2
2
0
0
0
0
0
0
0
0
0
0
0
0
0
0
0
0
0
0
0
0
0
0
0
0
3
3
2
2
0
0
0
0
0
0
0
0
0
0
0
0
0
0
0
0
0
0
0
0
0
0
0
0
3
3
2
2
0
0
0
0
0
0
0
0
0
0
0
0
0
0
0
0
0
0
0
0
0
0
0
0
3
3
2
2
0
0
0
0
0
0
0
0
0
0
0
0
0
0
0
0
0
0
0
0
0
0
0
0
3
3
2
2
0
0
0
0
0
0
0
0
0
0
0
0
0
0
0
0
0
0
0
0
0
0
0
0
3
3
2
2
0
0
0
0
0
0
0
0
0
0
0
0
0
0
0
0
0
0
0
0
0
0
0
0
3
3
2
2
2
2
2
2
2
2
2
2
2
2
2
2
2
2
2
2
2
2
2
2
2
2
2
2
3
3
2
2
2
2
2
2
2
2
2
2
2
2
2
2
2
2
2
2
2
2
2
2
2
2
2
2
3
3
3
3
3
3
3
3
3
3
3
3
3
3
3
3
3
3
3
3
3
3
3
3
3
3
3
3
3
3
3
3
3
3
3
3
3
3
3
3
3
3
3
3
3
3
3
3
3
3
3
3
3
3
3
3
</DataArray>
<DataArray NumberOfComponents='1' type='Float32' Name='Velocity' format='ascii'>
0.000000
0.000000
0.000000
0.000000
0.000000
0.000000
0.000000
0.000000
0.000000
0.000000
0.000000
0.000000
0.000000
0.000000
0.000000
0.000000
0.000000
0.000000
0.000000
0.000000
0.000000
0.000000
0.000000
0.000000
0.000000
0.000000
0.000000
0.000000
0.000000
0.000000
0.000000
0.000000
0.000000
0.000000
0.000000
0.000000
0.000000
0.000000
0.000000
0.000000
0.000000
0.000000
0.000000
0.000000
0.000000
0.000000
0.000000
0.000000
0.000000
0.000000
0.000000
0.000000
0.000000
0.000000
0.000000
0.000000
0.000000
0.000000
0.000000
0.000000
0.000000
0.000000
0.000000
0.000000
0.000000
0.000000
0.000000
0.000000
0.000000
0.000000
0.000000
0.000000
0.000000
0.000000
0.000000
0.000000
0.000000
0.000000
0.000000
0.000000
0.000000
0.000000
0.000000
0.000000
0.000000
0.000000
0.000000
0.000000
0.000000
0.000000
0.000000
0.000000
0.000000
0.000000
0.000000
0.000000
0.000000
0.000000
0.000000
0.000000
0.000000
0.000000
0.000000
0.000000
0.000000
0.000000
0.000000
0.000000
0.000000
0.000000
0.000000
0.000000
0.000000
0.000000
0.000000
0.000000
4401.161133
209.516907
69.860580
63.890846
0.663813
95356864.000000
112.329758
94.043892
68.618507
523.129150
2972.883057
365.533539
76158.250000
28429.976562
111.344795
899.616455
167.728027
1786.895264
166.056320
1675.792114
1003.782776
1089.560547
2536.396484
83049576.000000
1.000000
1.000000
1.000000
0.000000
0.000000
0.000000
0.000000
136.682831
129.737823
1797.813110
96.871742
5235.737793
41.783943
68.878845
63.831882
47321.640625
49285.484375
125.450493
152.114761
301.009369
2373.848145
23500.087891
1095.346313
147.663055
434.074921
2117.663818
487.170624
1443.837280
28240.115234
1150.572876
2972.093750
1.000000
1.000000
1.000000
0.000000
0.000000
0.000000
0.000000
129.726013
35737.621094
40.256325
4535.082031
88.431000
240.503525
239.169891
5320.180664
1053.858154
643.503967
239.707947
1881.196777
908.420410
1560.984497
959.046082
33.200954
5671.862793
1.955565
456.587250
148.620697
6866.572266
365.270203
9610.174805
2141.196777
1.000000
1.000000
1.000000
0.000000
0.000000
0.000000
0.000000
7.034814
164219952.000000
1579.452393
135656.203125
10448.531250
136.064957
227129.031250
175.608200
47.738411
123.108093
84.124443
3279.894287
124.825165
367.239807
222.502213
274.526886
2.907544
434.160553
127.915062
424.257355
4.027426
263.284485
3320.578613
41519.269531
1.000000
1.000000
1.000000
0.000000
0.000000
0.000000
0.000000
1029.091187
3411.243164
2796.181885
907.570923
68.874153
249.468857
1510.180908
139.315781
81647.476562
1770.219360
888.306702
12657.979492
35.197300
465.041016
666.687134
696.539551
10193.734375
2079.065918
170.772263
415.001526
196.211899
3741.490967
998466.625000
324624.781250
1.000000
1.000000
1.000000
0.000000
0.000000
0.000000
0.000000
118.350525
2240.536133
68.792458
296.244995
7866.756348
1.783217
452.874695
39.554920
387.673828
6514.513184
868.940186
97.364052
182.283798
42874.496094
12942.662109
269.218353
300.442505
6999.578125
13420.491211
9315.299805
12991.104492
556.910339
5252.393066
2126.357178
1.000000
1.000000
1.000000
0.000000
0.000000
0.000000
0.000000
623.693054
6835.062988
60.078728
107050.992188
1225.736328
336.486603
259.795288
440.020050
2507.999268
1695.210571
31802.394531
5951.672363
5386.725098
8406.707031
3477.370850
815.701965
17936.214844
6927.440430
37641568.000000
1239.985962
12991.769531
1129.032227
927.205078
4005.549561
1.000000
1.000000
1.000000
0.000000
0.000000
0.000000
0.000000
981.149658
2538.477295
1055.341553
936.613098
2479.666016
116.190773
27921.140625
287566.156250
1582.176880
1611.271484
97.213463
125.296265
318.751709
24645172.000000
1351.575806
15052.125977
1059.271240
1785.542969
1779.947388
4261.539551
17893.675781
2291.453125
1933.395020
2322.773193
1.000000
1.000000
1.000000
0.000000
0.000000
0.000000
0.000000
115.499359
10989698.000000
2051.608154
80.187706
754.604614
191.763870
20260.886719
484.550598
2113.037842
365.318359
6044.656738
389.254761
8532.682617
986.681458
153.318604
1.649317
174154.890625
199.549789
262.904541
68543.257812
1488.434814
26142.681641
92.071327
191028.375000
1.000000
1.000000
1.000000
0.000000
0.000000
0.000000
0.000000
43348.953125
292.745911
127.911247
8021.473633
16063.673828
668.299072
1457.653320
12930.061523
190196.296875
585.648621
162.266342
939.753723
1674.053589
199.328217
91.805229
133.743851
266763.218750
155.034729
350.147705
289706.187500
494.790253
1085.175537
95400.992188
95085.890625
1.000000
1.000000
1.000000
0.000000
0.000000
0.000000
0.000000
617.451172
130.834488
1761.371826
37.938988
1826.213989
195.232986
90.002945
158.371262
244.207626
163.272858
857.682861
2962.102539
2022.270142
667.742310
304234.031250
60897.406250
109189544.000000
855.557556
43347.984375
5692.239746
124.572693
9136.525391
3759.830811
3982.393066
1.000000
1.000000
1.000000
0.000000
0.000000
0.000000
0.000000
290.198212
1010911488.000000
272.344910
313831.718750
43311.804688
41954936.000000
8036.552734
9932.417969
327.604279
411.291229
1308.508423
11015329.000000
862.047058
7859819520.000000
27.584881
57765.035156
117242.046875
1863.522949
680.882568
50.948795
7545.496094
6939.789551
161842336.000000
7707.991699
1.000000
1.000000
1.000000
0.000000
0.000000
0.000000
0.000000
819.645020
297.113892
99.755920
88.956085
103.509209
10577.982422
156.635162
163.136688
138.719498
2391.244873
6692.501953
1621.000854
344.974823
58.948036
2805.587402
377.950439
241.994507
116.164795
426.001862
1686.551514
650.055481
69.603447
39987.769531
3991.764160
1.000000
1.000000
1.000000
0.000000
0.000000
0.000000
0.000000
81.673355
1941.648315
182.338547
32.634315
236.341980
332.171326
2332.257812
7073.171387
914.786926
1092.578979
20030.332031
71.831017
400.749237
251.481018
244.997726
9488.354492
49153.625000
262.926025
90296.828125
274.883667
6454.411133
1076.927856
5125.907715
998081.687500
1.000000
1.000000
1.000000
0.000000
0.000000
0.000000
0.000000
134.986267
81898.593750
121.785683
8.283750
140.500565
594.490662
104.774208
1772.151611
41956152.000000
80.653244
898.610840
1017.831177
339448.062500
24146.230469
482.710846
708.677490
1170.131104
221.840317
1296.473022
49.577152
1560.345459
82941672.000000
956.412842
15229.263672
1.000000
1.000000
1.000000
0.000000
0.000000
0.000000
0.000000
1402.012939
44920.699219
318.851776
282.972504
514.166504
909.175232
140.745346
1764.694580
215.392471
2619.424316
17710.621094
447.318115
2946.468750
662.113953
316.604950
48621.332031
94.610397
12590.302734
3793.608398
1772.110474
125.886108
1776.799683
1128.597046
15809.723633
1.000000
1.000000
1.000000
0.000000
0.000000
0.000000
0.000000
239.433578
1067.933838
196.807114
512.376526
23249.576172
52.116486
1826.416016
2046.659058
4755.596191
123.987968
612.728699
4968.300781
3887.473389
181.137100
276.505096
129.495117
361.827484
385.537659
159659.765625
189.059525
5939.152832
69.112076
99.633583
4415.173340
0.000000
0.000000
0.000000
0.000000
57.610748
39281.593750
2573.792725
150.757874
2676.048340
4871.244141
2316.607422
10128.708984
2525.503418
21141.736328
6729.307617
7730.251465
193.648712
98441824.000000
1950.297974
495978.718750
6310.383301
25976.554688
417.712769
552.859985
96046.179688
27242.650391
144.707443
1062.552368
0.000000
0.000000
0.000000
0.000000
1975.030518
607.601196
131.601776
374.893982
296.079987
5026.006836
119.076462
60.902493
150.482330
7906.480957
898.069702
3710.586914
98599.781250
231.087952
128.981583
157.607513
286.152802
528.276184
4829300.500000
19885750.000000
1371.306519
2165.129639
608.349976
15961.989258
0.000000
0.000000
0.000000
0.000000
50.992943
1298.001343
474.441162
3207.410156
3088.214600
286.539825
13265.638672
466.781860
123.447365
288258.031250
46.008297
1295.027222
523.751282
43177.652344
898.710144
1040.859131
1930363.250000
14036.082031
196.406082
50.350021
2958.450195
693.424561
1278.647827
4774220.000000
0.000000
0.000000
0.000000
0.000000
1512.899658
1346.845947
158.332687
4118.881836
43065.179688
615.274414
405.250916
351.404816
682.753845
301.382141
1742.149902
268.977295
584.976196
164.277969
117.933533
119.185287
5530499.500000
209.845566
1231.310913
347.818817
4797.759766
2200.874756
1835.726807
2450.394043
0.000000
0.000000
0.000000
0.000000
124.145203
729.381348
53.132549
1666460.000000
23588.011719
278.683533
60.868210
70.452835
1763.360352
6721.965332
203547328.000000
135.090271
2136.167480
812.430359
273.842865
112.893578
735.000122
198.364532
186.083740
325.611176
1228.523193
307293.531250
342.945496
1176.808472
0.000000
0.000000
0.000000
0.000000
463.665283
1507.942261
263.471405
1453.730713
120.083649
2300.584717
467.329285
39930.312500
94.064285
30677.169922
1209.926147
224.285553
3375.614014
60.304646
3205.811768
102359.648438
1629.652710
151.612961
3974.385010
249.658798
38518.199219
118.112488
745.601562
2748.643066
0.000000
0.000000
0.000000
0.000000
66.171288
3.243185
9624.409180
367294.187500
350.671997
207.823959
57535692.000000
21698.617188
793.502258
886.946106
6320.144043
1935943.625000
138.106979
97.896378
1905.123779
987.978210
1158.322144
1433.941406
4917.812012
1235.815552
203547792.000000
40052.703125
4401.853516
9517.461914
0.000000
0.000000
0.000000
0.000000
145.867233
598.782654
284.658356
5.585354
139930.125000
82.378632
13827.786133
1193.438843
401.025177
335.652863
795.575134
2150.667969
16375.456055
28250.339844
1570.544189
186.547455
254.248505
306.861572
1241.037231
6.171070
15372175.000000
117.603828
416.126556
1096.527466
0.000000
0.000000
0.000000
0.000000
617.721375
44.769493
3190.236572
904.093750
2151.290283
292.221771
709960.875000
349.329559
445.847107
9597.203125
672.504028
126.973701
41.299831
47.269138
440.451019
4.231389
1015.058655
850.001282
3603.697021
300.456207
3786.758301
12455.860352
5500.653320
4545.272461
0.000000
0.000000
0.000000
0.000000
1066.464966
133.346405
10160.062500
24003.652344
2.608047
79958.921875
81155.101562
140148.921875
2028.258911
91.175819
106.415192
325.525055
1349.534424
3.221168
879.964050
617.319641
66.401794
58.266937
950.512329
1053.586060
2232.998535
991.767761
155.608597
1799.587158
0.000000
0.000000
0.000000
0.000000
16074.795898
69402.578125
859.005310
102.420692
205149.765625
798.604736
161.434372
5018.193848
1243.799316
85.972115
24622.826172
22169.044922
255.063690
10534.141602
367.097107
285.735260
1437.517944
2015.600586
626.149963
27196.605469
234.538193
2188.270752
86.511208
8849.940430
0.000000
0.000000
0.000000
0.000000
16158.682617
112181.335938
699.984009
1520.420044
123.462090
94768.734375
303.726074
3356.244629
3158.494141
473.857880
450.853760
219.206192
1065.869507
4890.005371
12373.557617
82307.070312
81594.234375
25816.582031
577.519165
961.976562
163329.281250
107688.375000
1084.694824
2093.890381
0.000000
0.000000
0.000000
0.000000
466.823700
73.423264
66.458183
82.441208
107776.679688
3959.829102
1706.569336
234.401642
735.365234
663460.062500
2242.311035
1524.955200
1064.704834
23744.486328
49.220356
150.127762
100.858788
106.462685
1358.028076
228.212448
223.642044
2354.910156
370.197815
2052.839355
0.000000
0.000000
0.000000
0.000000
12854.911133
59.279663
786193.125000
729.824158
258.563232
305.145508
530.235352
1898.116089
6.892806
22493.464844
29818181648384.000000
494.783722
620.360168
779.495422
171.357559
811.881104
300.442291
138.618332
295.049957
63.603077
713.535522
32273.304688
7106.724121
6863.062012
0.000000
0.000000
0.000000
0.000000
1983.326904
11138.537109
1778.667236
152.751038
1581.370972
4642.675293
331.567932
12981.982422
19754.941406
343.063690
2985.933594
49007.941406
800.883972
248.896957
6126.155273
610.897888
1221.254272
541.108765
81.498169
3514.153320
90958.132812
376.303009
1714.148193
20956.558594
0.000000
0.000000
0.000000
0.000000
79.254036
66.670502
3365.640381
204.963760
19577.505859
2000.169678
801.614990
478.391022
550.349670
122.170982
41.242043
69.147682
107.052399
1251777920.000000
3622.965576
153.160309
237.539810
203.138290
127.085861
39097.062500
274.965179
5787.475586
22677.806641
5687.166504
0.000000
0.000000
0.000000
0.000000
109266000.000000
4917.512695
1114.583862
91.137199
153.692459
1108.004639
1.931351
95356440.000000
1635.068359
16807.951172
1745.782227
143.340927
24.076199
82.716766
24338.189453
246.022858
3994.066162
829.378723
1145.168213
151.026718
300.542084
2316.499512
11944.706055
5083.783691
0.000000
0.000000
0.000000
0.000000
128181.062500
4.466935
215609.859375
542.542664
122.309700
13.025705
151.537109
386.356232
546.032593
13220.922852
46276.214844
185422.375000
1084.970825
29612.689453
1152.098511
2769.666748
6082527.000000
240.762619
577.965759
46.754692
14900.022461
371.805511
2764.374512
23664962.000000
0.000000
0.000000
0.000000
0.000000
190375.000000
102.268822
551.752686
225.122055
22319.089844
3954.982178
9132.302734
117335.429688
1648.859741
535.067810
71.034782
685.014282
36312.191406
159.563736
41.576191
169.398331
202056.750000
4897.068359
1319.130859
105.293678
1744.177246
448.606812
708.839417
3154.192871
0.000000
0.000000
0.000000
0.000000
67.138496
2.115230
19159504.000000
964.960938
128.952728
501.563141
314.820679
2769.633545
363.923523
15206.813477
343.155609
295.041595
2974.764404
282.617249
399.963867
113043.070312
1572.994629
3447.416748
2615.984619
3026.799561
901.914978
756.447327
39003.082031
11095.407227
0.000000
0.000000
0.000000
0.000000
57.109165
408.234253
484.318573
8088.181641
657.574951
865.883545
2773.933350
168.330429
15409.529297
95.840805
1703.657959
279.779480
113.093369
77766.070312
1183.331055
2776.010742
650.884216
305.135956
3431.990234
1633.078613
530.358215
174256.515625
449.583374
79955.398438
0.000000
0.000000
0.000000
0.000000
33.358734
119.626167
113.847481
810.234436
100.371864
206.024261
75.347832
49.065739
15372272.000000
124.255539
80961.046875
448975.000000
1671.818115
153.418503
284.137421
98099.492188
2749.776855
944355.062500
362.580292
126.712372
21626.060547
66.985748
132.619843
4928.992676
0.000000
0.000000
0.000000
0.000000
83570.062500
170.627563
2840.991455
2176.780029
1036.267578
173768.765625
73.758926
644.933472
582.147156
37.641346
206.564178
479.519562
2.274796
3997.495117
3339.862793
587638.875000
256.372314
308.712433
215.629898
791.927673
695.003540
111.349983
204.283249
961.139954
0.000000
0.000000
0.000000
0.000000
107.611015
104.286629
171.018417
319320.937500
2212.997803
4.060360
217.963318
3245.329590
583.516785
6084.961426
27423.626953
21588.783203
37.634007
427.269745
8697.588867
168.268951
28.737171
128166.570312
17502.195312
4531.424316
7180.391113
196818.328125
142.723892
8119.065918
0.000000
0.000000
0.000000
0.000000
334.098602
2919.916504
400.643982
90.174477
10511.024414
2768.975098
3062.882812
8100.865234
68835.500000
166.119370
215246224.000000
4244.363770
871.250427
226.215210
98.446022
488973.312500
35.929485
112331.835938
2101.884033
114.212273
2609.194824
2110.465332
86.752464
1156.559937