<?xml version='1.0' encoding='UTF-8'?>
<VTKFile xmlns='VTK' byte_order='LittleEndian' version='0.1' type='UnstructuredGrid'>
<UnstructuredGrid>
<Piece NumberOfCells='2512' NumberOfPoints='2512'>
<Points>
<DataArray NumberOfComponents='3' type='Float32' Name='Position' format='ascii'>
-0.075000 -0.075000 0.000000
-0.075000 -0.050000 0.000000
-0.075000 -0.025000 0.000000
-0.075000 0.000000 0.000000
-0.075000 0.025000 0.000000
-0.075000 0.050000 0.000000
-0.075000 0.075000 0.000000
-0.075000 0.100000 0.000000
-0.075000 0.125000 0.000000
-0.075000 0.150000 0.000000
-0.075000 0.175000 0.000000
-0.075000 0.200000 0.000000
-0.075000 0.225000 0.000000
-0.075000 0.250000 0.000000
-0.075000 0.275000 0.000000
-0.075000 0.300000 0.000000
-0.075000 0.325000 0.000000
-0.075000 0.350000 0.000000
-0.075000 0.375000 0.000000
-0.075000 0.400000 0.000000
-0.075000 0.425000 0.000000
-0.075000 0.450000 0.000000
-0.075000 0.475000 0.000000
-0.075000 0.500000 0.000000
-0.075000 0.525000 0.000000
-0.075000 0.550000 0.000000
-0.075000 0.575000 0.000000
-0.075000 0.600000 0.000000
-0.050000 -0.075000 0.000000
-0.050000 -0.050000 0.000000
-0.050000 -0.025000 0.000000
-0.050000 0.000000 0.000000
-0.050000 0.025000 0.000000
-0.050000 0.050000 0.000000
-0.050000 0.075000 0.000000
-0.050000 0.100000 0.000000
-0.050000 0.125000 0.000000
-0.050000 0.150000 0.000000
-0.050000 0.175000 0.000000
-0.050000 0.200000 0.000000
-0.050000 0.225000 0.000000
-0.050000 0.250000 0.000000
-0.050000 0.275000 0.000000
-0.050000 0.300000 0.000000
-0.050000 0.325000 0.000000
-0.050000 0.350000 0.000000
-0.050000 0.375000 0.000000
-0.050000 0.400000 0.000000
-0.050000 0.425000 0.000000
-0.050000 0.450000 0.000000
-0.050000 0.475000 0.000000
-0.050000 0.500000 0.000000
-0.050000 0.525000 0.000000
-0.050000 0.550000 0.000000
-0.050000 0.575000 0.000000
-0.050000 0.600000 0.000000
-0.025000 -0.075000 0.000000
-0.025000 -0.050000 0.000000
-0.025000 -0.025000 0.000000
-0.025000 0.000000 0.000000
-0.025000 0.025000 0.000000
-0.025000 0.050000 0.000000
-0.025000 0.075000 0.000000
-0.025000 0.100000 0.000000
-0.025000 0.125000 0.000000
-0.025000 0.150000 0.000000
-0.025000 0.175000 0.000000
-0.025000 0.200000 0.000000
-0.025000 0.225000 0.000000
-0.025000 0.250000 0.000000
-0.025000 0.275000 0.000000
-0.025000 0.300000 0.000000
-0.025000 0.325000 0.000000
-0.025000 0.350000 0.000000
-0.025000 0.375000 0.000000
-0.025000 0.400000 0.000000
-0.025000 0.425000 0.000000
-0.025000 0.450000 0.000000
-0.025000 0.475000 0.000000
-0.025000 0.500000 0.000000
-0.025000 0.525000 0.000000
-0.025000 0.550000 0.000000
-0.025000 0.575000 0.000000
-0.025000 0.600000 0.000000
0.000000 -0.075000 0.000000
0.000000 -0.050000 0.000000
0.000000 -0.025000 0.000000
0.000000 0.000000 0.000000
0.000000 0.025000 0.000000
0.000000 0.050000 0.000000
0.000000 0.075000 0.000000
0.000000 0.100000 0.000000
0.000000 0.125000 0.000000
0.000000 0.150000 0.000000
0.000000 0.175000 0.000000
0.000000 0.200000 0.000000
0.000000 0.225000 0.000000
0.000000 0.250000 0.000000
0.000000 0.275000 0.000000
0.000000 0.300000 0.000000
0.000000 0.325000 0.000000
0.000000 0.350000 0.000000
0.000000 0.375000 0.000000
0.000000 0.400000 0.000000
0.000000 0.425000 0.000000
0.000000 0.450000 0.000000
0.000000 0.475000 0.000000
0.000000 0.500000 0.000000
0.000000 0.525000 0.000000
0.000000 0.550000 0.000000
0.000000 0.575000 0.000000
0.000000 0.600000 0.000000
0.025000 -0.075000 0.000000
0.025000 -0.050000 0.000000
0.025000 -0.025000 0.000000
0.025000 0.000000 0.000000
-38.274771 0.600000 0.000000
5.948746 -9.653258 0.000000
-1.901797 -3.092620 0.000000
1.434202 -3.037556 0.000000
0.114989 0.011854 0.000000
-3814274.497975 0.600000 0.000000
0.882936 -5.823278 0.000000
2.400463 -4.097531 0.000000
-3.760772 -0.318444 0.000000
1.328443 -5.533998 0.000000
45.486943 -156.692692 0.000000
3.074383 -19.818522 0.000000
3882.428070 0.600000 0.000000
-1503.523181 0.600000 0.000000
1.917474 0.600000 0.000000
-23.264254 -44.168363 0.000000
-6.692687 -6.044255 0.000000
57.276538 -79.320610 0.000000
4.834446 -4.834793 0.000000
-86.188499 0.600000 0.000000
24.705628 -52.077541 0.000000
-59.842798 0.600000 0.000000
-141.664443 0.600000 0.000000
4650776.429858 0.600000 0.000000
1.055000 0.625000 0.000000
1.055000 0.650000 0.000000
1.055000 0.675000 0.000000
0.050000 -0.075000 0.000000
0.050000 -0.050000 0.000000
0.050000 -0.025000 0.000000
0.050000 0.000000 0.000000
-7.342274 0.499983 0.000000
-5.798745 -1.291125 0.000000
74.809459 0.600000 0.000000
0.991521 0.600000 0.000000
252.200233 0.600000 0.000000
-1.475957 -0.917299 0.000000
-1.689079 -3.054944 0.000000
-2.734071 0.491583 0.000000
-1231.205627 -2292.686186 0.000000
1195.965243 0.600000 0.000000
0.562524 -6.529100 0.000000
4.876871 -3.984477 0.000000
-15.373599 -5.508812 0.000000
6.072749 0.575675 0.000000
892.074161 0.600000 0.000000
-57.353559 0.600000 0.000000
-7.491831 -3.183827 0.000000
-15.115305 0.600000 0.000000
100.906316 0.600000 0.000000
-15.147264 -19.642877 0.000000
71.782612 0.600000 0.000000
1492.883562 -310.776731 0.000000
15.888277 -64.349698 0.000000
167.317773 0.600000 0.000000
1.080000 0.625000 0.000000
1.080000 0.650000 0.000000
1.080000 0.675000 0.000000
0.075000 -0.075000 0.000000
0.075000 -0.050000 0.000000
0.075000 -0.025000 0.000000
0.075000 0.000000 0.000000
-4.877381 -4.796381 0.000000
816.433595 0.600000 0.000000
1.171473 0.113236 0.000000
-187.213404 0.600000 0.000000
-3.956101 -2.571034 0.000000
5.688651 0.600000 0.000000
2.252794 -8.687116 0.000000
281.748501 0.600000 0.000000
56.072754 0.600000 0.000000
2.496669 -24.283504 0.000000
9.264973 -8.648837 0.000000
-93.845476 0.600000 0.000000
-41.388045 0.600000 0.000000
70.372237 -46.054133 0.000000
45.331592 0.600000 0.000000
2.201921 -0.013751 0.000000
258.379435 -102.576070 0.000000
0.272120 0.367275 0.000000
18.466535 -14.050469 0.000000
4.617724 -5.910036 0.000000
370.748304 0.600000 0.000000
-6.872709 -18.346751 0.000000
-523.047392 0.600000 0.000000
-110.391446 0.600000 0.000000
1.105000 0.625000 0.000000
1.105000 0.650000 0.000000
1.105000 0.675000 0.000000
0.100000 -0.075000 0.000000
0.100000 -0.050000 0.000000
0.100000 -0.025000 0.000000
0.100000 0.000000 0.000000
0.298928 0.597207 0.000000
4598157.216902 0.600000 0.000000
-60.673546 -57.502567 0.000000
4210.269108 0.600000 0.000000
-547.751563 0.600000 0.000000
-10.567458 0.600000 0.000000
-9323.171575 0.600000 0.000000
9.163777 0.216412 0.000000
1.599338 -1.765315 0.000000
6.141896 -1.647635 0.000000
-2.064854 -3.511482 0.000000
-158.425786 0.600000 0.000000
-2.952091 0.600000 0.000000
19.205264 -4.040661 0.000000
-9.207137 0.600000 0.000000
-10.267599 -8.656881 0.000000
0.356049 0.122274 0.000000
-10.193077 0.600000 0.000000
4.667147 -1.632964 0.000000
1.801159 0.600000 0.000000
0.574357 0.089141 0.000000
7.986992 -11.070648 0.000000
179.221868 0.600000 0.000000
-2323.604710 0.600000 0.000000
1.130000 0.625000 0.000000
1.130000 0.650000 0.000000
1.130000 0.675000 0.000000
0.125000 -0.075000 0.000000
0.125000 -0.050000 0.000000
0.125000 -0.025000 0.000000
0.125000 0.000000 0.000000
-43.546966 0.600000 0.000000
154.096803 0.600000 0.000000
-116.788577 0.600000 0.000000
-33.301911 0.600000 0.000000
0.827787 -3.018556 0.000000
11.554418 -7.806921 0.000000
-65.303018 0.600000 0.000000
-0.962457 -6.925325 0.000000
3587.732189 0.600000 0.000000
-27.148283 -89.506435 0.000000
-28.883805 0.600000 0.000000
-15.037098 0.600000 0.000000
0.073330 0.562158 0.000000
-18.219035 0.241472 0.000000
-31.835120 0.600000 0.000000
-36.930334 0.600000 0.000000
501.957961 0.600000 0.000000
101.829809 0.600000 0.000000
-2.207467 -7.575926 0.000000
-18.535602 -11.008201 0.000000
-11.421064 0.520137 0.000000
163.403898 0.600000 0.000000
57911.281597 0.600000 0.000000
-13658.124340 0.600000 0.000000
1.155000 0.625000 0.000000
1.155000 0.650000 0.000000
1.155000 0.675000 0.000000
0.150000 -0.075000 0.000000
0.150000 -0.050000 0.000000
0.150000 -0.025000 0.000000
0.150000 0.000000 0.000000
-5.789407 0.319456 0.000000
-106.055758 0.600000 0.000000
-0.068273 -3.581511 0.000000
-12.691820 -7.626407 0.000000
-187.215960 0.600000 0.000000
0.921654 0.388297 0.000000
17.197202 0.600000 0.000000
0.660898 -1.591702 0.000000
5.006946 0.600000 0.000000
-291.134782 0.600000 0.000000
-42.757353 -18.884808 0.000000
2.289698 -4.613837 0.000000
-5.721382 -5.160600 0.000000
-2314.821171 0.600000 0.000000
-657.814798 0.600000 0.000000
-13.542285 -5.025117 0.000000
-5.855772 0.600000 0.000000
1.009923 -370.339229 0.000000
684.436684 0.600000 0.000000
447.362722 0.600000 0.000000
-636.175072 0.600000 0.000000
12.771269 -29.185712 0.000000
304.785030 0.600000 0.000000
119.579661 0.600000 0.000000
1.180000 0.625000 0.000000
1.180000 0.650000 0.000000
1.180000 0.675000 0.000000
0.175000 -0.075000 0.000000
0.175000 -0.050000 0.000000
0.175000 -0.025000 0.000000
0.175000 0.000000 0.000000
-24.078995 0.600000 0.000000
-209.631584 0.600000 0.000000
0.928296 -2.927009 0.000000
4920.704714 0.600000 0.000000
59.013385 0.600000 0.000000
-14.565428 -10.999687 0.000000
1.813771 -13.750133 0.000000
16.341825 0.600000 0.000000
-128.418674 0.600000 0.000000
-81.312242 -41.449381 0.000000
986.319034 0.600000 0.000000
-90.394866 0.600000 0.000000
273.226856 0.600000 0.000000
435.599425 0.600000 0.000000
144.128132 -68.778977 0.000000
-25.598604 0.600000 0.000000
-410.469016 -916.195413 0.000000
307.496627 0.600000 0.000000
1806790.453256 0.600000 0.000000
64.486835 0.600000 0.000000
727.783939 0.600000 0.000000
-58.341944 -26.348418 0.000000
-8.567712 -53.342538 0.000000
159.208154 0.600000 0.000000
1.205000 0.625000 0.000000
1.205000 0.650000 0.000000
1.205000 0.675000 0.000000
0.200000 -0.075000 0.000000
0.200000 -0.050000 0.000000
0.200000 -0.025000 0.000000
0.200000 0.000000 0.000000
-45.188498 0.600000 0.000000
-97.384257 0.600000 0.000000
45.436557 -1.960510 0.000000
2.501360 -51.313343 0.000000
-124.150266 0.600000 0.000000
-5.320811 -3.090436 0.000000
1200.710806 0.600000 0.000000
[...]
<PointData>
<DataArray NumberOfComponents='1' type='Int32' Name='ParticleType' format='ascii'>
3
3
3
3
3
3
3
3
3
3
3
3
3
3
3
3
3
3
3
3
3
3
3
3
3
3
3
3
3
3
3
3
3
3
3
3
3
3
3
3
3
3
3
3
3
3
3
3
3
3
3
3
3
3
3
3
3
3
2
2
2
2
2
2
2
2
2
2
2
2
2
2
2
2
2
2
2
2
2
2
2
2
2
2
3
3
2
2
2
2
2
2
2
2
2
2
2
2
2
2
2
2
2
2
2
2
2
2
2
2
2
2
3
3
2
2
0
0
0
0
0
0
0
0
0
0
0
0
0
0
0
0
0
0
0
0
0
0
0
0
1
1
1
3
3
2
2
0
0
0
0
0
0
0
0
0
0
0
0
0
0
0
0
0
0
0
0
0
0
0
0
1
1
1
3
3
2
2
0
0
0
0
0
0
0
0
0
0
0
0
0
0
0
0
0
0
0
0
0
0
0
0
1
1
1
3
3
2
2
0
0
0
0
0
0
0
0
0
0
0
0
0
0
0
0
0
0
0
0
0
0
0
0
1
1
1
3
3
2
2
0
0
0
0
0
0
0
0
0
0
0
0
0
0
0
0
0
0
0
0
0
0
0
0
1
1
1
3
3
2
2
0
0
0
0
0
0
0
0
0
0
0
0
0
0
0
0
0
0
0
0
0
0
0
0
1
1
1
3
3
2
2
0
0
0
0
0
0
0
0
0
0
0
0
0
0
0
0
0
0
0
0
0
0
0
0
1
1
1
3
3
2
2
0
0
0
0
0
0
0
0
0
0
0
0
0
0
0
0
0
0
0
0
0
0
0
0
1
1
1
3
3
2
2
0
0
0
0
0
0
0
0
0
0
0
0
0
0
0
0
0
0
0
0
0
0
0
0
1
1
1
3
3
2
2
0
0
0
0
0
0
0
0
0
0
0
0
0
0
0
0
0
0
0
0
0
0
0
0
1
1
1
3
3
2
2
0
0
0
0
0
0
0
0
0
0
0
0
0
0
0
0
0
0
0
0
0
0
0
0
1
1
1
3
3
2
2
0
0
0
0
0
0
0
0
0
0
0
0
0
0
0
0
0
0
0
0
0
0
0
0
1
1
1
3
3
2
2
0
0
0
0
0
0
0
0
0
0
0
0
0
0
0
0
0
0
0
0
0
0
0
0
1
1
1
3
3
2
2
0
0
0
0
0
0
0
0
0
0
0
0
0
0
0
0
0
0
0
0
0
0
0
0
1
1
1
3
3
2
2
0
0
0
0
0
0
0
0
0
0
0
0
0
0
0
0
0
0
0
0
0
0
0
0
1
1
1
3
3
2
2
0
0
0
0
0
0
0
0
0
0
0
0
0
0
0
0
0
0
0
0
0
0
0
0
1
1
1
3
3
2
2
0
0
0
0
0
0
0
0
0
0
0
0
0
0
0
0
0
0
0
0
0
0
0
0
3
3
2
2
0
0
0
0
0
0
0
0
0
0
0
0
0
0
0
0
0
0
0
0
0
0
0
0
3
3
2
2
0
0
0
0
0
0
0
0
0
0
0
0
0
0
0
0
0
0
0
0
0
0
0
0
3
3
2
2
0
0
0
0
0
0
0
0
0
0
0
0
0
0
0
0
0
0
0
0
0
0
0
0
3
3
2
2
0
0
0
0
0
0
0
0
0
0
0
0
0
0
0
0
0
0
0
0
0
0
0
0
3
3
2
2
0
0
0
0
0
0
0
0
0
0
0
0
0
0
0
0
0
0
0
0
0
0
0
0
3
3
2
2
0
0
0
0
0
0
0
0
0
0
0
0
0
0
0
0
0
0
0
0
0
0
0
0
3
3
2
2
0
0
0
0
0
0
0
0
0
0
0
0
0
0
0
0
0
0
0
0
0
0
0
0
3
3
2
2
0
0
0
0
0
0
0
0
0
0
0
0
0
0
0
0
0
0
0
0
0
0
0
0
3
3
2
2
0
0
0
0
0
0
0
0
0
0
0
0
0
0
0
0
0
0
0
0
0
0
0
0
3
3
2
2
0
0
0
0
0
0
0
0
0
0
0
0
0
0
0
0
0
0
0
0
0
0
0
0
3
3
2
2
0
0
0
0
0
0
0
0
0
0
0
0
0
0
0
0
0
0
0
0
0
0
0
0
3
3
2
2
0
0
0
0
0
0
0
0
0
0
0
0
0
0
0
0
0
0
0
0
0
0
0
0
3
3
2
2
0
0
0
0
0
0
0
0
0
0
0
0
0
0
0
0
0
0
0
0
0
0
0
0
3
3
2
2
0
0
0
0
0
0
0
0
0
0
0
0
0
0
0
0
0
0
0
0
0
0
0
0
3
3
2
2
0
0
0
0
0
0
0
0
0
0
0
0
0
0
0
0
0
0
0
0
0
0
0
0
3
3
2
2
0
0
0
0
0
0
0
0
0
0
0
0
0
0
0
0
0
0
0
0
0
0
0
0
3
3
2
2
0
0
0
0
0
0
0
0
0
0
0
0
0
0
0
0
0
0
0
0
0
0
0
0
3
3
2
2
0
0
0
0
0
0
0
0
0
0
0
0
0
0
0
0
0
0
0
0
0
0
0
0
3
3
2
2
0
0
0
0
0
0
0
0
0
0
0
0
0
0
0
0
0
0
0
0
0
0
0
0
3
3
2
2
0
0
0
0
0
0
0
0
0
0
0
0
0
0
0
0
0
0
0
0
0
0
0
0
3
3
2
2
0
0
0
0
0
0
0
0
0
0
0
0
0
0
0
0
0
0
0
0
0
0
0
0
3
3
2
2
0
0
0
0
0
0
0
0
0
0
0
0
0
0
0
0
0
0
0
0
0
0
0
0
3
3
2
2
0
0
0
0
0
0
0
0
0
0
0
0
0
0
0
0
0
0
0
0
0
0
0
0
3
3
2
2
0
0
0
0
0
0
0
0
0
0
0
0
0
0
0
0
0
0
0
0
0
0
0
0
3
3
2
2
0
0
0
0
0
0
0
0
0
0
0
0
0
0
0
0
0
0
0
0
0
0
0
0
3
3
2
2
0
0
0
0
0
0
0
0
0
0
0
0
0
0
0
0
0
0
0
0
0
0
0
0
3
3
2
2
0
0
0
0
0
0
0
0
0
0
0
0
0
0
0
0
0
0
0
0
0
0
0
0
3
3
2
2
0
0
0
0
0
0
0
0
0
0
0
0
0
0
0
0
0
0
0
0
0
0
0
0
3
3
2
2
0
0
0
0
0
0
0
0
0
0
0
0
0
0
0
0
0
0
0
0
0
0
0
0
3
3
2
2
0
0
0
0
0
0
0
0
0
0
0
0
0
0
0
0
0
0
0
0
0
0
0
0
3
3
2
2
0
0
0
0
0
0
0
0
0
0
0
0
0
0
0
0
0
0
0
0
0
0
0
0
3
3
2
2
0
0
0
0
0
0
0
0
0
0
0
0
0
0
0
0
0
0
0
0
0
0
0
0
3
3
2
2
0
0
0
0
0
0
0
0
0
0
0
0
0
0
0
0
0
0
0
0
0
0
0
0
3
3
2
2
0
0
0
0
0
0
0
0
0
0
0
0
0
0
0
0
0
0
0
0
0
0
0
0
3
3
2
2
0
0
0
0
0
0
0
0
0
0
0
0
0
0
0
0
0
0
0
0
0
0
0
0
3
3
2
2
0
0
0
0
0
0
0
0
0
0
0
0
0
0
0
0
0
0
0
0
0
0
0
0
3
3
2
2
0
0
0
0
0
0
0
0
0
0
0
0
0
0
0
0
0
0
0
0
0
0
0
0
3
3
2
2
0
0
0
0
0
0
0
0
0
0
0
0
0
0
0
0
0
0
0
0
0
0
0
0
3
3
2
2
0
0
0
0
0
0
0
0
0
0
0
0
0
0
0
0
0
0
0
0
0
0
0
0
3
3
2
2
0
0
0
0
0
0
0
0
0
0
0
0
0
0
0
0
0
0
0
0
0
0
0
0
3
3
2
2
0
0
0
0
0
0
0
0
0
0
0
0
0
0
0
0
0
0
0
0
0
0
0
0
3
3
2
2
0
0
0
0
0
0
0
0
0
0
0
0
0
0
0
0
0
0
0
0
0
0
0
0
3
3
2
2
0
0
0
0
0
0
0
0
0
0
0
0
0
0
0
0
0
0
0
0
0
0
0
0
3
3
2
2
0
0
0
0
0
0
0
0
0
0
0
0
0
0
0
0
0
0
0
0
0
0
0
0
3
3
2
2
0
0
0
0
0
0
0
0
0
0
0
0
0
0
0
0
0
0
0
0
0
0
0
0
3
3
2
2
0
0
0
0
0
0
0
0
0
0
0
0
0
0
0
0
0
0
0
0
0
0
0
0
3
3
2
2
0
0
0
0
0
0
0
0
0
0
0
0
0
0
0
0
0
0
0
0
0
0
0
0
3
3
2
2
0
0
0
0
0
0
0
0
0
0
0
0
0
0
0
0
0
0
0
0
0
0
0
0
3
3
2
2
0
0
0
0
0
0
0
0
0
0
0
0
0
0
0
0
0
0
0
0
0
0
0
0
3
3
2
2
0
0
0
0
0
0
0
0
0
0
0
0
0
0
0
0
0
0
0
0
0
0
0
0
3
3
2
2
0
0
0
0
0
0
0
0
0
0
0
0
0
0
0
0
0
0
0
0
0
0
0
0
3
3
2
2
0
0
0
0
0
0
0
0
0
0
0
0
0
0
0
0
0
0
0
0
0
0
0
0
3
3
2
2
0
0
0
0
0
0
0
0
0
0
0
0
0
0
0
0
0
0
0
0
0
0
0
0
3
3
2
2
0
0
0
0
0
0
0
0
0
0
0
0
0
0
0
0
0
0
0
0
0
0
0
0
3
3
2
2
0
0
0
0
0
0
0
0
0
0
0
0
0
0
0
0
0
0
0
0
0
0
0
0
3
3
2
2
0
0
0
0
0
0
0
0
0
0
0
0
0
0
0
0
0
0
0
0
0
0
0
0
3
3
2
2
0
0
0
0
0
0
0
0
0
0
0
0
0
0
0
0
0
0
0
0
0
0
0
0
3
3
2
2
0
0
0
0
0
0
0
0
0
0
0
0
0
0
0
0
0
0
0
0
0
0
0
0
3
3
2
2
0
0
0
0
0
0
0
0
0
0
0
0
0
0
0
0
0
0
0
0
0
0
0
0
3
3
2
2
0
0
0
0
0
0
0
0
0
0
0
0
0
0
0
0
0
0
0
0
0
0
0
0
3
3
2
2
0
0
0
0
0
0
0
0
0
0
0
0
0
0
0
0
0
0
0
0
0
0
0
0
3
3
2
2
0
0
0
0
0
0
0
0
0
0
0
0
0
0
0
0
0
0
0
0
0
0
0
0
3
3
2
2
0
0
0
0
0
0
0
0
0
0
0
0
0
0
0
0
0
0
0
0
0
0
0
0
3
3
2
2
2
2
2
2
2
2
2
2
2
2
2
2
2
2
2
2
2
2
2
2
2
2
2
2
3
3
2
2
2
2
2
2
2
2
2
2
2
2
2
2
2
2
2
2
2
2
2
2
2
2
2
2
3
3
3
3
3
3
3
3
3
3
3
3
3
3
3
3
3
3
3
3
3
3
3
3
3
3
3
3
3
3
3
3
3
3
3
3
3
3
3
3
3
3
3
3
3
3
3
3
3
3
3
3
3
3
3
3
</DataArray>
<DataArray NumberOfComponents='1' type='Float32' Name='Velocity' format='ascii'>
0.000000
0.000000
0.000000
0.000000
0.000000
0.000000
0.000000
0.000000
0.000000
0.000000
0.000000
0.000000
0.000000
0.000000
0.000000
0.000000
0.000000
0.000000
0.000000
0.000000
0.000000
0.000000
0.000000
0.000000
0.000000
0.000000
0.000000
0.000000
0.000000
0.000000
0.000000
0.000000
0.000000
0.000000
0.000000
0.000000
0.000000
0.000000
0.000000
0.000000
0.000000
0.000000
0.000000
0.000000
0.000000
0.000000
0.000000
0.000000
0.000000
0.000000
0.000000
0.000000
0.000000
0.000000
0.000000
0.000000
0.000000
0.000000
0.000000
0.000000
0.000000
0.000000
0.000000
0.000000
0.000000
0.000000
0.000000
0.000000
0.000000
0.000000
0.000000
0.000000
0.000000
0.000000
0.000000
0.000000
0.000000
0.000000
0.000000
0.000000
0.000000
0.000000
0.000000
0.000000
0.000000
0.000000
0.000000
0.000000
0.000000
0.000000
0.000000
0.000000
0.000000
0.000000
0.000000
0.000000
0.000000
0.000000
0.000000
0.000000
0.000000
0.000000
0.000000
0.000000
0.000000
0.000000
0.000000
0.000000
0.000000
0.000000
0.000000
0.000000
0.000000
0.000000
0.000000
0.000000
4401.173340
208.501953
68.853340
62.814152
1.428769
95356864.000000
111.165199
93.018051
68.424973
521.953674
2971.753662
364.370697
76158.250000
28430.214844
56.954540
898.573669
166.906296
1785.939697
165.168396
1675.814575
1002.717957
1062.921021
2536.453613
83049576.000000
1.000000
1.000000
1.000000
0.000000
0.000000
0.000000
0.000000
136.746811
129.396896
2063.289062
19.886322
5407.777832
41.115215
67.832542
50.186157
47320.601562
49286.539062
124.278000
151.304092
300.585754
117.513535
23500.089844
1137.541992
147.143555
394.272156
2117.699707
486.234161
1467.771362
28239.875000
1149.430298
2972.126221
1.000000
1.000000
1.000000
0.000000
0.000000
0.000000
0.000000
128.899078
48682.972656
22.694014
4535.203125
87.764427
130.649963
238.018555
5149.218750
1065.438110
642.332031
238.884109
2216.031006
1004.821533
1560.335938
959.128296
33.161266
5671.428223
3.635267
455.860504
147.658661
6866.588379
366.172821
9610.187500
2141.257812
1.000000
1.000000
1.000000
0.000000
0.000000
0.000000
0.000000
8.800729
164219952.000000
1578.642700
135656.203125
10448.538086
259.575958
227129.031250
175.594833
46.771450
122.622536
83.107567
3403.669434
88.690010
366.963257
222.546051
273.771790
1.072216
452.733337
127.264595
29.551758
14.440742
262.310120
3320.659912
41519.292969
1.000000
1.000000
1.000000
0.000000
0.000000
0.000000
0.000000
972.528870
3411.833984
2796.270264
907.893433
67.712860
248.794907
1546.204224
138.153687
81647.492188
1769.094238
885.170837
380.143555
13.878084
480.210297
619.538513
712.726013
10194.170898
2119.650391
169.636200
414.382843
196.202759
3741.528809
998466.625000
324624.781250
1.000000
1.000000
1.000000
0.000000
0.000000
0.000000
0.000000
109.852631
2240.703613
67.617004
295.632050
7866.774414
11.369831
638.812744
38.444180
100.894287
6514.523926
868.458557
96.283096
181.499130
42874.503906
12904.243164
268.779663
347.793976
6998.402344
13420.528320
9315.309570
12991.108398
555.823792
5252.427246
2126.422363
1.000000
1.000000
1.000000
0.000000
0.000000
0.000000
0.000000
635.815125
6835.231445
58.936565
107051.000000
1225.953125
335.775360
258.627472
492.044037
2508.026855
1694.676636
31802.394531
3953.635010
5386.999023
8406.715820
3476.861328
880.475708
17935.142578
6927.466797
37641568.000000
1225.044922
12991.811523
1128.540161
926.044434
3024.843994
1.000000
1.000000
1.000000
0.000000
0.000000
0.000000
0.000000
890.282837
2407.556885
1055.275513
935.438354
2479.796875
115.583336
27921.142578
287566.156250
1581.026978
1611.444824
96.429337
124.122986
317.586121
156.574203
1299.794800
15052.379883
1064.448608
1784.373535
2132.479980
4261.551758
17893.679688
2262.998535
2017.769409
2421.539307
1.000000
1.000000
1.000000
0.000000
0.000000
0.000000
0.000000
74.958138
10989698.000000
2048.706055
79.358269
755.616943
190.722336
20260.888672
484.275421
2112.924561
362.207153
6485.923828
388.334625
8532.730469
924.283569
152.713287
0.922588
174156.015625
198.421158
262.221161
68543.257812
1487.341919
26142.722656
92.741234
191028.375000
1.000000
1.000000
1.000000
0.000000
0.000000
0.000000
0.000000
43348.957031
291.672241
127.252914
9029.447266
16063.675781
668.294556
635.970520
12968.503906
190196.296875
584.711792
161.452042
938.577759
1674.205200
198.188416
91.535774
54.007668
266763.218750
153.868607
349.462372
289706.187500
493.755951
1085.372559
95400.992188
95085.890625
1.000000
1.000000
1.000000
0.000000
0.000000
0.000000
0.000000
787.224976
129.672363
1759.007690
37.986088
1826.246094
12.987020
88.827721
157.235168
243.283005
163.043671
857.204163
2961.322998
2174.544678
666.687378
304234.031250
60897.406250
109189544.000000
855.305969
43347.976562
5692.956543
123.680954
9136.548828
3759.839844
3982.891357
1.000000
1.000000
1.000000
0.000000
0.000000
0.000000
0.000000
289.140320
1010911488.000000
272.270874
313831.718750
43311.808594
41954936.000000
8036.619141
9932.435547
326.697693
420.573151
1293.147339
11015329.000000
861.593384
7859819520.000000
26.482904
57765.035156
117242.046875
2048.732178
373.154785
17.523983
7545.506348
6939.796387
161842336.000000
7708.009277
1.000000
1.000000
1.000000
0.000000
0.000000
0.000000
0.000000
820.265442
296.444855
98.995476
88.557404
102.367844
10577.999023
146.053604
162.943497
138.213409
2392.181152
6692.507324
1620.096191
343.890503
58.890533
2914.845947
376.781403
242.023514
17.610270
424.850250
1686.818848
672.267212
68.437950
39987.773438
3991.798584
1.000000
1.000000
1.000000
0.000000
0.000000
0.000000
0.000000
80.730156
1941.667847
181.176544
31.607944
235.358521
331.184448
2289.532471
7072.000000
914.831726
1092.035522
20031.335938
70.713730
399.877869
251.174438
244.052734
7657.621582
49153.628906
261.754028
90296.835938
274.454712
6454.465820
1098.893921
4566.407227
998081.687500
1.000000
1.000000
1.000000
0.000000
0.000000
0.000000
0.000000
84.251213
81898.601562
120.848297
20.595686
139.537109
594.223694
24.017382
1772.752930
41956152.000000
79.515152
837.571655
1784.191284
339448.062500
24146.248047
482.268494
707.503662
1120.270874
221.622955
1296.637451
48.505505
1561.072876
82941672.000000
1054.037231
15229.275391
1.000000
1.000000
1.000000
0.000000
0.000000
0.000000
0.000000
1402.038940
44920.703125
317.888214
281.798096
405.813629
909.053284
140.210739
1764.734497
215.344025
2619.683350
17711.388672
446.207733
2870.201172
669.007019
8.429511
48621.335938
93.962059
12590.310547
3792.498535
1771.356934
125.452110
1776.152100
1127.457275
15809.731445
1.000000
1.000000
1.000000
0.000000
0.000000
0.000000
0.000000
238.611847
1096.431274
195.875214
511.377075
25509.533203
94.249023
1655.061035
2045.963013
4755.652832
122.824844
612.675171
4968.295410
3887.515869
180.893387
276.354828
128.379135
361.808228
314.247437
159659.765625
187.972641
5939.166504
68.139740
98.509377
4415.255371
0.000000
0.000000
0.000000
0.000000
56.615108
39281.597656
2574.041748
149.582245
2674.891602
4871.323730
2316.106689
10128.725586
2525.916016
21141.089844
6729.353516
7730.264648
193.358841
98441824.000000
1950.382812
495978.718750
6310.398926
46.894062
416.784698
552.738281
96046.179688
27242.652344
143.766968
1062.690308
0.000000
0.000000
0.000000
0.000000
1911.818726
743.846191
130.695862
373.790375
295.428955
5025.126465
117.937164
59.966175
376.031769
7906.495117
1303.023804
3710.626221
98599.781250
229.917007
128.470276
156.590027
285.541595
527.857544
4829300.500000
19885750.000000
1329.139526
2053.817383
608.058289
15961.998047
0.000000
0.000000
0.000000
0.000000
49.817776
1362.148315
583.541138
3207.463379
3087.443115
286.835327
13265.658203
465.935120
123.184639
288258.031250
44.969006
1294.368652
522.728516
43177.687500
897.589233
1041.310669
1930.499390
14036.113281
196.006271
49.400917
2958.507812
692.360779
1213.758423
4774220.000000
0.000000
0.000000
0.000000
0.000000
1676.401245
1330.779541
157.289474
4118.930664
43065.179688
674.707214
404.281708
351.202911
681.625122
301.090546
1742.109741
268.553009
460.171783
163.111069
117.816612
98.174614
5530499.500000
209.507111
1001.508362
346.751953
4797.791016
1860.169556
1829.272705
2164.740479
0.000000
0.000000
0.000000
0.000000
122.991760
728.719177
51.999298
1666460.000000
23588.013672
278.230103
59.968452
69.706535
1763.431763
6722.608398
203547328.000000
134.105881
1585.137451
811.323853
272.850281
111.737846
734.649048
294.271881
185.658905
324.447845
1252.078247
307293.531250
341.774719
1176.970337
0.000000
0.000000
0.000000
0.000000
422.701599
1327.486084
262.793976
1452.652832
118.909454
2300.708252
331.879669
39930.316406
93.287560
30677.171875
1209.674072
223.815460
3254.317871
59.270649
3205.856934
102359.648438
1628.480103
151.169617
3975.377930
248.522156
38518.199219
117.228500
517.177551
2748.716797
0.000000
0.000000
0.000000
0.000000
65.231705
1.479919
9624.417969
367294.187500
349.883331
207.257492
57535692.000000
21699.695312
792.394409
885.776062
6320.495605
1935943.625000
136.950928
97.005020
1829.547607
840.644287
1157.635986
1433.855957
4917.845215
1291.296509
203547792.000000
27107.343750
4328.610840
9517.487305
0.000000
0.000000
0.000000
0.000000
139.804337
596.643982
283.490692
10.500163
139930.953125
81.287933
13827.883789
1192.472534
475.041565
335.624908
795.598267
1854.794067
16375.470703
28250.355469
1557.106567
185.421448
253.073380
305.702728
1240.854492
8.156201
15372175.000000
108.078804
415.735077
1056.220337
0.000000
0.000000
0.000000
0.000000
616.681091
41.643162
3190.312744
904.650452
2167.955322
291.102631
709960.875000
348.687347
445.340607
9597.251953
671.380676
126.939110
40.830875
46.872467
439.588898
6.399510
1013.950378
849.250671
3540.916260
300.427582
3785.676514
12455.862305
5613.184570
4545.319336
0.000000
0.000000
0.000000
0.000000
1065.932129
188.054092
10160.073242
21743.787109
15.021242
79958.921875
81155.101562
140148.093750
2028.690796
90.873917
106.168343
324.403412
1270.251221
11.954581
878.812500
686.753540
65.263542
58.248337
950.646973
1054.513794
2068.525391
990.881531
154.931976
1799.552856
0.000000
0.000000
0.000000
0.000000
16074.048828
69402.585938
858.216187
68.502602
205149.765625
798.575500
160.465012
1550.185303
1243.199341
84.920555
24622.843750
22169.101562
253.890945
10534.187500
365.933044
284.944885
1437.229370
1408.598267
9.660353
27196.621094
234.289276
2823.381592
86.299644
8849.972656
0.000000
0.000000
0.000000
0.000000
16159.446289
112181.335938
700.054626
1519.281250
122.777008
94768.734375
303.342529
3350.575928
3157.472656
498.519043
449.993256
26.198128
1065.945679
5455.565430
12373.708984
69.486847
81594.234375
6.113495
576.957703
960.891479
163329.281250
107688.375000
1084.096558
2094.031494
0.000000
0.000000
0.000000
0.000000
426.689026
72.267311
66.168221
81.852348
107776.695312
3882.225586
1705.475464
234.407318
745.180115
663460.062500
2112.946533
1523.885498
922.138062
23744.494141
48.289032
148.958633
99.735771
105.291397
150.632370
228.182892
222.663086
2275.274902
370.136963
1859.445312
0.000000
0.000000
0.000000
0.000000
12854.990234
58.118881
786193.125000
751.421692
257.986267
303.971497
203.375870
796.897705
6.787574
22493.791016
29818181648384.000000
493.608032
722.321594
868.598450
170.237076
811.603821
300.045471
137.961761
294.557800
63.186344
712.929321
32273.306641
7105.548340
6863.823730
0.000000
0.000000
0.000000
0.000000
1983.689453
11138.586914
1777.599976
152.177597
1582.189819
4642.806152
330.547943
12981.781250
19754.941406
342.472443
2985.986816
49007.941406
800.895203
248.218979
6126.160156
609.818909
1220.121826
540.247742
81.348289
3668.848633
90958.132812
375.534027
1805.649048
20957.570312
0.000000
0.000000
0.000000
0.000000
78.078949
65.588036
3365.163086
203.892975
19576.511719
1618.370239
1113.109741
477.454041
522.140686
121.385307
41.590721
68.631943
105.883965
1251777920.000000
3623.159180
152.127106
237.050537
202.717087
125.926270
39096.730469
274.033569
5787.489258
22676.863281
5687.744141
0.000000
0.000000
0.000000
0.000000
109266000.000000
9190.127930
1113.594238
90.507133
164.378876
1186.218994
48.249084
95356440.000000
1635.350952
16809.111328
1744.726562
142.323486
24.102558
82.618164
24338.193359
244.914719
4068.104980
828.202759
1144.289551
143.947067
299.563538
2315.815430
11944.708984
5083.814941
0.000000
0.000000
0.000000
0.000000
128181.062500
36.073017
215609.859375
542.761658
90.224602
16.939846
151.276260
386.351135
544.984436
13221.002930
46276.222656
185422.390625
1085.338501
29612.701172
1198.230957
2258.637939
6082527.000000
239.596558
577.663635
46.388885
14900.022461
371.330139
2758.535889
23664962.000000
0.000000
0.000000
0.000000
0.000000
190375.000000
101.708054
552.067688
224.265625
22318.761719
3955.019287
9132.337891
117335.429688
1663.538574
520.939819
69.889465
684.559692
36312.191406
158.939529
40.461838
169.319702
202056.750000
4896.282227
1318.356079
21.713869
1743.874390
447.502563
707.664185
3294.566162
0.000000
0.000000
0.000000
0.000000
66.942467
9.002172
19159504.000000
965.717041
128.118591
406.936737
313.329285
2776.607178
362.791901
15206.152344
342.095306
420.062592
2974.788086
281.598083
327.075745
113043.070312
1572.591919
3447.461914
2616.037598
3027.019775
901.175232
755.400269
39003.414062
11095.419922
0.000000
0.000000
0.000000
0.000000
56.677494
458.457458
483.339569
8088.201172
635.513123
794.662415
2773.412109
167.409531
15410.210938
31.877403
1703.831177
278.627228
112.912193
77766.078125
1183.574341
2774.888184
650.428589
304.328064
3271.704102
1633.121826
529.203857
174255.406250
449.222687
79955.406250
0.000000
0.000000
0.000000
0.000000
33.365322
118.520340
112.914902
810.211792
99.362968
206.007935
74.659241
49.142826
15372272.000000
124.103683
80961.054688
448975.000000
1671.812134
152.340363
283.049835
98099.492188
2749.884766
944355.062500
362.383972
126.141335
21624.990234
66.248505
131.528290
4929.023926
0.000000
0.000000
0.000000
0.000000
83570.070312
170.175812
2841.039551
2175.866211
1036.555786
173768.421875
72.764687
538.586426
664.691040
70.117935
205.528076
478.557159
3.103258
3971.628174
3340.629150
38.112953
255.219803
307.572784
214.539215
791.212097
694.680298
111.266388
203.548126
961.405640
0.000000
0.000000
0.000000
0.000000
106.763512
103.810669
169.963593
319320.968750
2212.185791
10.536429
217.076508
3245.341797
583.595337
6084.270996
12.274656
21588.816406
36.503456
426.160217
8697.602539
167.129562
28.503609
128166.570312
17501.023438
4530.267578
7180.452148
196817.203125
141.553757
7760.893066
0.000000
0.000000
0.000000
0.000000
333.044037
6116.370605
285.236023
89.267593
10511.035156
2669.333252
3063.221436
175.646606
68835.500000
164.964890
215246224.000000
4244.399414
870.075623
225.590424
97.685028
488973.312500
35.541153
112331.835938
2101.925781
113.131752
2608.526855
2067.377197
85.754578
1156.737793
0.000000
0.000000
0.000000
0.000000
126.656448