<?xml version='1.0' encoding='UTF-8'?>
<VTKFile xmlns='VTK' byte_order='LittleEndian' version='0.1' type='UnstructuredGrid'>
<UnstructuredGrid>
<Piece NumberOfCells='2512' NumberOfPoints='2512'>
<Points>
<DataArray NumberOfComponents='3' type='Float32' Name='Position' format='ascii'>
-0.075000 -0.075000 0.000000
-0.075000 -0.050000 0.000000
-0.075000 -0.025000 0.000000
-0.075000 0.000000 0.000000
-0.075000 0.025000 0.000000
-0.075000 0.050000 0.000000
-0.075000 0.075000 0.000000
-0.075000 0.100000 0.000000
-0.075000 0.125000 0.000000
-0.075000 0.150000 0.000000
-0.075000 0.175000 0.000000
-0.075000 0.200000 0.000000
-0.075000 0.225000 0.000000
-0.075000 0.250000 0.000000
-0.075000 0.275000 0.000000
-0.075000 0.300000 0.000000
-0.075000 0.325000 0.000000
-0.075000 0.350000 0.000000
-0.075000 0.375000 0.000000
-0.075000 0.400000 0.000000
-0.075000 0.425000 0.000000
-0.075000 0.450000 0.000000
-0.075000 0.475000 0.000000
-0.075000 0.500000 0.000000
-0.075000 0.525000 0.000000
-0.075000 0.550000 0.000000
-0.075000 0.575000 0.000000
-0.075000 0.600000 0.000000
-0.050000 -0.075000 0.000000
-0.050000 -0.050000 0.000000
-0.050000 -0.025000 0.000000
-0.050000 0.000000 0.000000
-0.050000 0.025000 0.000000
-0.050000 0.050000 0.000000
-0.050000 0.075000 0.000000
-0.050000 0.100000 0.000000
-0.050000 0.125000 0.000000
-0.050000 0.150000 0.000000
-0.050000 0.175000 0.000000
-0.050000 0.200000 0.000000
-0.050000 0.225000 0.000000
-0.050000 0.250000 0.000000
-0.050000 0.275000 0.000000
-0.050000 0.300000 0.000000
-0.050000 0.325000 0.000000
-0.050000 0.350000 0.000000
-0.050000 0.375000 0.000000
-0.050000 0.400000 0.000000
-0.050000 0.425000 0.000000
-0.050000 0.450000 0.000000
-0.050000 0.475000 0.000000
-0.050000 0.500000 0.000000
-0.050000 0.525000 0.000000
-0.050000 0.550000 0.000000
-0.050000 0.575000 0.000000
-0.050000 0.600000 0.000000
-0.025000 -0.075000 0.000000
-0.025000 -0.050000 0.000000
-0.025000 -0.025000 0.000000
-0.025000 0.000000 0.000000
-0.025000 0.025000 0.000000
-0.025000 0.050000 0.000000
-0.025000 0.075000 0.000000
-0.025000 0.100000 0.000000
-0.025000 0.125000 0.000000
-0.025000 0.150000 0.000000
-0.025000 0.175000 0.000000
-0.025000 0.200000 0.000000
-0.025000 0.225000 0.000000
-0.025000 0.250000 0.000000
-0.025000 0.275000 0.000000
-0.025000 0.300000 0.000000
-0.025000 0.325000 0.000000
-0.025000 0.350000 0.000000
-0.025000 0.375000 0.000000
-0.025000 0.400000 0.000000
-0.025000 0.425000 0.000000
-0.025000 0.450000 0.000000
-0.025000 0.475000 0.000000
-0.025000 0.500000 0.000000
-0.025000 0.525000 0.000000
-0.025000 0.550000 0.000000
-0.025000 0.575000 0.000000
-0.025000 0.600000 0.000000
0.000000 -0.075000 0.000000
0.000000 -0.050000 0.000000
0.000000 -0.025000 0.000000
0.000000 0.000000 0.000000
0.000000 0.025000 0.000000
0.000000 0.050000 0.000000
0.000000 0.075000 0.000000
0.000000 0.100000 0.000000
0.000000 0.125000 0.000000
0.000000 0.150000 0.000000
0.000000 0.175000 0.000000
0.000000 0.200000 0.000000
0.000000 0.225000 0.000000
0.000000 0.250000 0.000000
0.000000 0.275000 0.000000
0.000000 0.300000 0.000000
0.000000 0.325000 0.000000
0.000000 0.350000 0.000000
0.000000 0.375000 0.000000
0.000000 0.400000 0.000000
0.000000 0.425000 0.000000
0.000000 0.450000 0.000000
0.000000 0.475000 0.000000
0.000000 0.500000 0.000000
0.000000 0.525000 0.000000
0.000000 0.550000 0.000000
0.000000 0.575000 0.000000
0.000000 0.600000 0.000000
0.025000 -0.075000 0.000000
0.025000 -0.050000 0.000000
0.025000 -0.025000 0.000000
0.025000 0.000000 0.000000
0.024917 0.024706 0.000000
0.025219 0.049604 0.000000
0.025096 0.074756 0.000000
0.024979 0.099335 0.000000
0.025075 0.124627 0.000000
0.025093 0.149339 0.000000
0.025108 0.174507 0.000000
0.024969 0.199472 0.000000
0.025039 0.224576 0.000000
0.025225 0.249836 0.000000
0.024611 0.275025 0.000000
0.025369 0.300381 0.000000
0.024663 0.325856 0.000000
0.025232 0.351175 0.000000
0.024539 0.376932 0.000000
0.025228 0.402223 0.000000
0.024333 0.428244 0.000000
0.025311 0.453519 0.000000
0.024032 0.479921 0.000000
0.025194 0.504217 0.000000
0.024731 0.532172 0.000000
0.024176 0.554318 0.000000
0.027722 0.584204 0.000000
0.017206 0.600000 0.000000
0.425000 0.625000 0.000000
0.425000 0.650000 0.000000
0.425000 0.675000 0.000000
0.050000 -0.075000 0.000000
0.050000 -0.050000 0.000000
0.050000 -0.025000 0.000000
0.050000 0.000000 0.000000
0.050294 0.025204 0.000000
0.049875 0.049896 0.000000
0.049886 0.075477 0.000000
0.050090 0.100565 0.000000
0.049833 0.125812 0.000000
0.049882 0.150986 0.000000
0.049676 0.176391 0.000000
0.049760 0.201507 0.000000
0.049550 0.226955 0.000000
0.049346 0.251811 0.000000
0.049487 0.277584 0.000000
0.049122 0.302039 0.000000
0.049098 0.328059 0.000000
0.049051 0.352601 0.000000
0.048877 0.378401 0.000000
0.048963 0.403019 0.000000
0.048777 0.428693 0.000000
0.048814 0.452929 0.000000
0.048670 0.478797 0.000000
0.048956 0.503431 0.000000
0.049118 0.528279 0.000000
0.050547 0.553842 0.000000
0.052741 0.575714 0.000000
0.050252 0.600000 0.000000
0.450000 0.625000 0.000000
0.450000 0.650000 0.000000
0.450000 0.675000 0.000000
0.075000 -0.075000 0.000000
0.075000 -0.050000 0.000000
0.075000 -0.025000 0.000000
0.075000 0.000000 0.000000
0.075316 0.024747 0.000000
0.074871 0.049581 0.000000
0.074849 0.074755 0.000000
0.074836 0.099353 0.000000
0.074640 0.124563 0.000000
0.074970 0.149278 0.000000
0.074507 0.174210 0.000000
0.074899 0.199083 0.000000
0.074502 0.223625 0.000000
0.074972 0.248897 0.000000
0.074473 0.272956 0.000000
0.075197 0.298257 0.000000
0.074265 0.322076 0.000000
0.075574 0.347166 0.000000
0.073966 0.370618 0.000000
0.076134 0.395920 0.000000
0.073749 0.418808 0.000000
0.076194 0.444587 0.000000
0.074130 0.467398 0.000000
0.074758 0.492663 0.000000
0.075545 0.516167 0.000000
0.073136 0.542222 0.000000
0.082411 0.565679 0.000000
0.072774 0.594751 0.000000
0.475000 0.625000 0.000000
0.475000 0.650000 0.000000
0.475000 0.675000 0.000000
0.100000 -0.075000 0.000000
0.100000 -0.050000 0.000000
0.100000 -0.025000 0.000000
0.100000 0.000000 0.000000
0.100448 0.025013 0.000000
0.099935 0.049899 0.000000
0.099785 0.075115 0.000000
0.100030 0.100070 0.000000
0.099859 0.125281 0.000000
0.099896 0.150229 0.000000
0.099636 0.175495 0.000000
0.099894 0.200714 0.000000
0.099408 0.226152 0.000000
0.099818 0.251329 0.000000
0.099089 0.277263 0.000000
0.099945 0.302523 0.000000
0.098972 0.328830 0.000000
0.100134 0.354431 0.000000
0.098865 0.380918 0.000000
0.100424 0.406657 0.000000
0.098875 0.433527 0.000000
0.100675 0.459039 0.000000
0.098581 0.486106 0.000000
0.101353 0.510783 0.000000
0.097383 0.536242 0.000000
0.104341 0.557999 0.000000
0.099882 0.590818 0.000000
0.087314 0.600000 0.000000
0.500000 0.625000 0.000000
0.500000 0.650000 0.000000
0.500000 0.675000 0.000000
0.125000 -0.075000 0.000000
0.125000 -0.050000 0.000000
0.125000 -0.025000 0.000000
0.125000 0.000000 0.000000
0.125747 0.024740 0.000000
0.124756 0.049624 0.000000
0.124760 0.074722 0.000000
0.125049 0.099567 0.000000
0.124491 0.124505 0.000000
0.124965 0.149443 0.000000
0.124238 0.174438 0.000000
0.124699 0.199232 0.000000
0.123915 0.224145 0.000000
0.124274 0.249165 0.000000
0.123743 0.273803 0.000000
0.124088 0.298957 0.000000
0.123504 0.323471 0.000000
0.124368 0.348302 0.000000
0.123228 0.373016 0.000000
0.125027 0.397545 0.000000
0.122418 0.422267 0.000000
0.125943 0.446633 0.000000
0.121732 0.471371 0.000000
0.126842 0.496191 0.000000
0.122840 0.520485 0.000000
0.133875 0.545421 0.000000
0.123878 0.568824 0.000000
0.126108 0.597372 0.000000
0.525000 0.625000 0.000000
0.525000 0.650000 0.000000
0.525000 0.675000 0.000000
0.150000 -0.075000 0.000000
0.150000 -0.050000 0.000000
0.150000 -0.025000 0.000000
0.150000 0.000000 0.000000
0.150805 0.025134 0.000000
0.149696 0.049831 0.000000
0.149839 0.075388 0.000000
0.150002 0.100154 0.000000
0.149681 0.125490 0.000000
0.150080 0.150554 0.000000
0.149366 0.175625 0.000000
0.149970 0.200887 0.000000
0.149247 0.225941 0.000000
0.149875 0.250919 0.000000
0.148888 0.276132 0.000000
0.150060 0.300617 0.000000
0.148653 0.326321 0.000000
0.150376 0.350488 0.000000
0.148411 0.376346 0.000000
0.150999 0.400224 0.000000
0.148251 0.426240 0.000000
0.151741 0.450182 0.000000
0.147655 0.475186 0.000000
0.151837 0.499585 0.000000
0.147985 0.524299 0.000000
0.155840 0.550193 0.000000
0.147314 0.577703 0.000000
0.145734 0.600000 0.000000
0.550000 0.625000 0.000000
0.550000 0.650000 0.000000
0.550000 0.675000 0.000000
0.175000 -0.075000 0.000000
0.175000 -0.050000 0.000000
0.175000 -0.025000 0.000000
0.175000 0.000000 0.000000
0.175996 0.024699 0.000000
0.174641 0.049638 0.000000
0.174582 0.074679 0.000000
0.175021 0.099445 0.000000
0.174483 0.124544 0.000000
0.174689 0.149256 0.000000
0.174177 0.174390 0.000000
0.174656 0.199179 0.000000
0.173727 0.224245 0.000000
0.174580 0.249093 0.000000
0.173510 0.274297 0.000000
0.174601 0.299263 0.000000
0.173282 0.324373 0.000000
0.174779 0.349330 0.000000
0.173159 0.374642 0.000000
0.175252 0.399673 0.000000
0.172776 0.424763 0.000000
0.176153 0.449455 0.000000
0.172837 0.475140 0.000000
0.177547 0.499307 0.000000
0.173610 0.523907 0.000000
0.182035 0.549656 0.000000
0.172333 0.572308 0.000000
0.173436 0.598843 0.000000
0.575000 0.625000 0.000000
0.575000 0.650000 0.000000
0.575000 0.675000 0.000000
0.200000 -0.075000 0.000000
0.200000 -0.050000 0.000000
0.200000 -0.025000 0.000000
0.200000 0.000000 0.000000
0.201168 0.025043 0.000000
0.199624 0.049820 0.000000
0.199674 0.075183 0.000000
0.200282 0.100226 0.000000
0.199491 0.125068 0.000000
0.200168 0.150299 0.000000
0.199387 0.175303 0.000000
0.199769 0.200165 0.000000
0.199334 0.225436 0.000000
0.199497 0.250299 0.000000
0.199023 0.275380 0.000000
0.199555 0.300141 0.000000
0.198614 0.325356 0.000000
0.200016 0.350110 0.000000
0.198219 0.375144 0.000000
0.200870 0.399560 0.000000
0.198054 0.424910 0.000000
0.202051 0.449616 0.000000
0.197550 0.473890 0.000000
0.203314 0.499466 0.000000
0.197832 0.523938 0.000000
0.206913 0.549564 0.000000
[...]
<PointData>
<DataArray NumberOfComponents='1' type='Int32' Name='ParticleType' format='ascii'>
3
3
3
3
3
3
3
3
3
3
3
3
3
3
3
3
3
3
3
3
3
3
3
3
3
3
3
3
3
3
3
3
3
3
3
3
3
3
3
3
3
3
3
3
3
3
3
3
3
3
3
3
3
3
3
3
3
3
2
2
2
2
2
2
2
2
2
2
2
2
2
2
2
2
2
2
2
2
2
2
2
2
2
2
3
3
2
2
2
2
2
2
2
2
2
2
2
2
2
2
2
2
2
2
2
2
2
2
2
2
2
2
3
3
2
2
0
0
0
0
0
0
0
0
0
0
0
0
0
0
0
0
0
0
0
0
0
0
0
0
1
1
1
3
3
2
2
0
0
0
0
0
0
0
0
0
0
0
0
0
0
0
0
0
0
0
0
0
0
0
0
1
1
1
3
3
2
2
0
0
0
0
0
0
0
0
0
0
0
0
0
0
0
0
0
0
0
0
0
0
0
0
1
1
1
3
3
2
2
0
0
0
0
0
0
0
0
0
0
0
0
0
0
0
0
0
0
0
0
0
0
0
0
1
1
1
3
3
2
2
0
0
0
0
0
0
0
0
0
0
0
0
0
0
0
0
0
0
0
0
0
0
0
0
1
1
1
3
3
2
2
0
0
0
0
0
0
0
0
0
0
0
0
0
0
0
0
0
0
0
0
0
0
0
0
1
1
1
3
3
2
2
0
0
0
0
0
0
0
0
0
0
0
0
0
0
0
0
0
0
0
0
0
0
0
0
1
1
1
3
3
2
2
0
0
0
0
0
0
0
0
0
0
0
0
0
0
0
0
0
0
0
0
0
0
0
0
1
1
1
3
3
2
2
0
0
0
0
0
0
0
0
0
0
0
0
0
0
0
0
0
0
0
0
0
0
0
0
1
1
1
3
3
2
2
0
0
0
0
0
0
0
0
0
0
0
0
0
0
0
0
0
0
0
0
0
0
0
0
1
1
1
3
3
2
2
0
0
0
0
0
0
0
0
0
0
0
0
0
0
0
0
0
0
0
0
0
0
0
0
1
1
1
3
3
2
2
0
0
0
0
0
0
0
0
0
0
0
0
0
0
0
0
0
0
0
0
0
0
0
0
1
1
1
3
3
2
2
0
0
0
0
0
0
0
0
0
0
0
0
0
0
0
0
0
0
0
0
0
0
0
0
1
1
1
3
3
2
2
0
0
0
0
0
0
0
0
0
0
0
0
0
0
0
0
0
0
0
0
0
0
0
0
1
1
1
3
3
2
2
0
0
0
0
0
0
0
0
0
0
0
0
0
0
0
0
0
0
0
0
0
0
0
0
1
1
1
3
3
2
2
0
0
0
0
0
0
0
0
0
0
0
0
0
0
0
0
0
0
0
0
0
0
0
0
1
1
1
3
3
2
2
0
0
0
0
0
0
0
0
0
0
0
0
0
0
0
0
0
0
0
0
0
0
0
0
3
3
2
2
0
0
0
0
0
0
0
0
0
0
0
0
0
0
0
0
0
0
0
0
0
0
0
0
3
3
2
2
0
0
0
0
0
0
0
0
0
0
0
0
0
0
0
0
0
0
0
0
0
0
0
0
3
3
2
2
0
0
0
0
0
0
0
0
0
0
0
0
0
0
0
0
0
0
0
0
0
0
0
0
3
3
2
2
0
0
0
0
0
0
0
0
0
0
0
0
0
0
0
0
0
0
0
0
0
0
0
0
3
3
2
2
0
0
0
0
0
0
0
0
0
0
0
0
0
0
0
0
0
0
0
0
0
0
0
0
3
3
2
2
0
0
0
0
0
0
0
0
0
0
0
0
0
0
0
0
0
0
0
0
0
0
0
0
3
3
2
2
0
0
0
0
0
0
0
0
0
0
0
0
0
0
0
0
0
0
0
0
0
0
0
0
3
3
2
2
0
0
0
0
0
0
0
0
0
0
0
0
0
0
0
0
0
0
0
0
0
0
0
0
3
3
2
2
0
0
0
0
0
0
0
0
0
0
0
0
0
0
0
0
0
0
0
0
0
0
0
0
3
3
2
2
0
0
0
0
0
0
0
0
0
0
0
0
0
0
0
0
0
0
0
0
0
0
0
0
3
3
2
2
0
0
0
0
0
0
0
0
0
0
0
0
0
0
0
0
0
0
0
0
0
0
0
0
3
3
2
2
0
0
0
0
0
0
0
0
0
0
0
0
0
0
0
0
0
0
0
0
0
0
0
0
3
3
2
2
0
0
0
0
0
0
0
0
0
0
0
0
0
0
0
0
0
0
0
0
0
0
0
0
3
3
2
2
0
0
0
0
0
0
0
0
0
0
0
0
0
0
0
0
0
0
0
0
0
0
0
0
3
3
2
2
0
0
0
0
0
0
0
0
0
0
0
0
0
0
0
0
0
0
0
0
0
0
0
0
3
3
2
2
0
0
0
0
0
0
0
0
0
0
0
0
0
0
0
0
0
0
0
0
0
0
0
0
3
3
2
2
0
0
0
0
0
0
0
0
0
0
0
0
0
0
0
0
0
0
0
0
0
0
0
0
3
3
2
2
0
0
0
0
0
0
0
0
0
0
0
0
0
0
0
0
0
0
0
0
0
0
0
0
3
3
2
2
0
0
0
0
0
0
0
0
0
0
0
0
0
0
0
0
0
0
0
0
0
0
0
0
3
3
2
2
0
0
0
0
0
0
0
0
0
0
0
0
0
0
0
0
0
0
0
0
0
0
0
0
3
3
2
2
0
0
0
0
0
0
0
0
0
0
0
0
0
0
0
0
0
0
0
0
0
0
0
0
3
3
2
2
0
0
0
0
0
0
0
0
0
0
0
0
0
0
0
0
0
0
0
0
0
0
0
0
3
3
2
2
0
0
0
0
0
0
0
0
0
0
0
0
0
0
0
0
0
0
0
0
0
0
0
0
3
3
2
2
0
0
0
0
0
0
0
0
0
0
0
0
0
0
0
0
0
0
0
0
0
0
0
0
3
3
2
2
0
0
0
0
0
0
0
0
0
0
0
0
0
0
0
0
0
0
0
0
0
0
0
0
3
3
2
2
0
0
0
0
0
0
0
0
0
0
0
0
0
0
0
0
0
0
0
0
0
0
0
0
3
3
2
2
0
0
0
0
0
0
0
0
0
0
0
0
0
0
0
0
0
0
0
0
0
0
0
0
3
3
2
2
0
0
0
0
0
0
0
0
0
0
0
0
0
0
0
0
0
0
0
0
0
0
0
0
3
3
2
2
0
0
0
0
0
0
0
0
0
0
0
0
0
0
0
0
0
0
0
0
0
0
0
0
3
3
2
2
0
0
0
0
0
0
0
0
0
0
0
0
0
0
0
0
0
0
0
0
0
0
0
0
3
3
2
2
0
0
0
0
0
0
0
0
0
0
0
0
0
0
0
0
0
0
0
0
0
0
0
0
3
3
2
2
0
0
0
0
0
0
0
0
0
0
0
0
0
0
0
0
0
0
0
0
0
0
0
0
3
3
2
2
0
0
0
0
0
0
0
0
0
0
0
0
0
0
0
0
0
0
0
0
0
0
0
0
3
3
2
2
0
0
0
0
0
0
0
0
0
0
0
0
0
0
0
0
0
0
0
0
0
0
0
0
3
3
2
2
0
0
0
0
0
0
0
0
0
0
0
0
0
0
0
0
0
0
0
0
0
0
0
0
3
3
2
2
0
0
0
0
0
0
0
0
0
0
0
0
0
0
0
0
0
0
0
0
0
0
0
0
3
3
2
2
0
0
0
0
0
0
0
0
0
0
0
0
0
0
0
0
0
0
0
0
0
0
0
0
3
3
2
2
0
0
0
0
0
0
0
0
0
0
0
0
0
0
0
0
0
0
0
0
0
0
0
0
3
3
2
2
0
0
0
0
0
0
0
0
0
0
0
0
0
0
0
0
0
0
0
0
0
0
0
0
3
3
2
2
0
0
0
0
0
0
0
0
0
0
0
0
0
0
0
0
0
0
0
0
0
0
0
0
3
3
2
2
0
0
0
0
0
0
0
0
0
0
0
0
0
0
0
0
0
0
0
0
0
0
0
0
3
3
2
2
0
0
0
0
0
0
0
0
0
0
0
0
0
0
0
0
0
0
0
0
0
0
0
0
3
3
2
2
0
0
0
0
0
0
0
0
0
0
0
0
0
0
0
0
0
0
0
0
0
0
0
0
3
3
2
2
0
0
0
0
0
0
0
0
0
0
0
0
0
0
0
0
0
0
0
0
0
0
0
0
3
3
2
2
0
0
0
0
0
0
0
0
0
0
0
0
0
0
0
0
0
0
0
0
0
0
0
0
3
3
2
2
0
0
0
0
0
0
0
0
0
0
0
0
0
0
0
0
0
0
0
0
0
0
0
0
3
3
2
2
0
0
0
0
0
0
0
0
0
0
0
0
0
0
0
0
0
0
0
0
0
0
0
0
3
3
2
2
0
0
0
0
0
0
0
0
0
0
0
0
0
0
0
0
0
0
0
0
0
0
0
0
3
3
2
2
0
0
0
0
0
0
0
0
0
0
0
0
0
0
0
0
0
0
0
0
0
0
0
0
3
3
2
2
0
0
0
0
0
0
0
0
0
0
0
0
0
0
0
0
0
0
0
0
0
0
0
0
3
3
2
2
0
0
0
0
0
0
0
0
0
0
0
0
0
0
0
0
0
0
0
0
0
0
0
0
3
3
2
2
0
0
0
0
0
0
0
0
0
0
0
0
0
0
0
0
0
0
0
0
0
0
0
0
3
3
2
2
0
0
0
0
0
0
0
0
0
0
0
0
0
0
0
0
0
0
0
0
0
0
0
0
3
3
2
2
0
0
0
0
0
0
0
0
0
0
0
0
0
0
0
0
0
0
0
0
0
0
0
0
3
3
2
2
0
0
0
0
0
0
0
0
0
0
0
0
0
0
0
0
0
0
0
0
0
0
0
0
3
3
2
2
0
0
0
0
0
0
0
0
0
0
0
0
0
0
0
0
0
0
0
0
0
0
0
0
3
3
2
2
0
0
0
0
0
0
0
0
0
0
0
0
0
0
0
0
0
0
0
0
0
0
0
0
3
3
2
2
0
0
0
0
0
0
0
0
0
0
0
0
0
0
0
0
0
0
0
0
0
0
0
0
3
3
2
2
0
0
0
0
0
0
0
0
0
0
0
0
0
0
0
0
0
0
0
0
0
0
0
0
3
3
2
2
0
0
0
0
0
0
0
0
0
0
0
0
0
0
0
0
0
0
0
0
0
0
0
0
3
3
2
2
0
0
0
0
0
0
0
0
0
0
0
0
0
0
0
0
0
0
0
0
0
0
0
0
3
3
2
2
0
0
0
0
0
0
0
0
0
0
0
0
0
0
0
0
0
0
0
0
0
0
0
0
3
3
2
2
0
0
0
0
0
0
0
0
0
0
0
0
0
0
0
0
0
0
0
0
0
0
0
0
3
3
2
2
2
2
2
2
2
2
2
2
2
2
2
2
2
2
2
2
2
2
2
2
2
2
2
2
3
3
2
2
2
2
2
2
2
2
2
2
2
2
2
2
2
2
2
2
2
2
2
2
2
2
2
2
3
3
3
3
3
3
3
3
3
3
3
3
3
3
3
3
3
3
3
3
3
3
3
3
3
3
3
3
3
3
3
3
3
3
3
3
3
3
3
3
3
3
3
3
3
3
3
3
3
3
3
3
3
3
3
3
</DataArray>
<DataArray NumberOfComponents='1' type='Float32' Name='Velocity' format='ascii'>
0.000000
0.000000
0.000000
0.000000
0.000000
0.000000
0.000000
0.000000
0.000000
0.000000
0.000000
0.000000
0.000000
0.000000
0.000000
0.000000
0.000000
0.000000
0.000000
0.000000
0.000000
0.000000
0.000000
0.000000
0.000000
0.000000
0.000000
0.000000
0.000000
0.000000
0.000000
0.000000
0.000000
0.000000
0.000000
0.000000
0.000000
0.000000
0.000000
0.000000
0.000000
0.000000
0.000000
0.000000
0.000000
0.000000
0.000000
0.000000
0.000000
0.000000
0.000000
0.000000
0.000000
0.000000
0.000000
0.000000
0.000000
0.000000
0.000000
0.000000
0.000000
0.000000
0.000000
0.000000
0.000000
0.000000
0.000000
0.000000
0.000000
0.000000
0.000000
0.000000
0.000000
0.000000
0.000000
0.000000
0.000000
0.000000
0.000000
0.000000
0.000000
0.000000
0.000000
0.000000
0.000000
0.000000
0.000000
0.000000
0.000000
0.000000
0.000000
0.000000
0.000000
0.000000
0.000000
0.000000
0.000000
0.000000
0.000000
0.000000
0.000000
0.000000
0.000000
0.000000
0.000000
0.000000
0.000000
0.000000
0.000000
0.000000
0.000000
0.000000
0.000000
0.000000
0.000000
0.000000
0.021929
0.027264
0.029420
0.018290
0.007680
0.006581
0.010515
0.004551
0.013864
0.020792
0.010961
0.004696
0.009751
0.008636
0.017979
0.026950
0.023487
0.036883
0.073592
0.058301
0.124399
0.041914
0.129905
0.628027
1.000000
1.000000
1.000000
0.000000
0.000000
0.000000
0.000000
0.020595
0.015703
0.012996
0.010455
0.021603
0.014706
0.029924
0.021018
0.037271
0.024782
0.047891
0.034777
0.049872
0.050394
0.047662
0.040512
0.044736
0.044630
0.012854
0.075029
0.080610
0.094211
0.172401
0.387674
1.000000
1.000000
1.000000
0.000000
0.000000
0.000000
0.000000
0.021348
0.018399
0.013663
0.010592
0.024427
0.014711
0.021135
0.012972
0.031408
0.022760
0.022874
0.035981
0.036296
0.037772
0.047633
0.025000
0.040671
0.054137
0.034936
0.069280
0.035240
0.059453
0.105421
0.121623
1.000000
1.000000
1.000000
0.000000
0.000000
0.000000
0.000000
0.014825
0.010370
0.023740
0.013036
0.010671
0.016501
0.016206
0.014747
0.031093
0.021252
0.039226
0.042506
0.068217
0.064468
0.092085
0.073422
0.111656
0.100063
0.096910
0.099520
0.093680
0.025160
0.102997
0.311922
1.000000
1.000000
1.000000
0.000000
0.000000
0.000000
0.000000
0.011732
0.000973
0.020243
0.009249
0.003970
0.025981
0.009793
0.016482
0.021909
0.023774
0.022621
0.024336
0.032510
0.048547
0.038111
0.059775
0.061763
0.095159
0.092857
0.090302
0.074116
0.133071
0.015713
0.056586
1.000000
1.000000
1.000000
0.000000
0.000000
0.000000
0.000000
0.023432
0.013161
0.013408
0.019462
0.023725
0.025992
0.012998
0.011770
0.025363
0.008183
0.037832
0.008886
0.038477
0.021449
0.041108
0.014516
0.040816
0.033355
0.036529
0.017251
0.046505
0.083127
0.064215
0.148338
1.000000
1.000000
1.000000
0.000000
0.000000
0.000000
0.000000
0.017102
0.012272
0.002131
0.018862
0.002926
0.007972
0.031598
0.010626
0.029346
0.008351
0.027517
0.003414
0.019706
0.021930
0.018289
0.006347
0.005585
0.019790
0.008579
0.063317
0.033587
0.098233
0.023167
0.034169
1.000000
1.000000
1.000000
0.000000
0.000000
0.000000
0.000000
0.014323
0.012425
0.013548
0.015847
0.007341
0.013418
0.019148
0.019420
0.010172
0.010841
0.019592
0.002433
0.029952
0.019775
0.024884
0.018442
0.037860
0.044457
0.052665
0.048360
0.039888
0.094077
0.037416
0.043811
1.000000
1.000000
1.000000
0.000000
0.000000
0.000000
0.000000
0.023285
0.019505
0.008066
0.008146
0.025861
0.016250
0.029178
0.005843
0.014625
0.017736
0.019812
0.009522
0.017787
0.013561
0.037474
0.029813
0.023568
0.040816
0.021041
0.071014
0.015687
0.084561
0.012463
0.023812
1.000000
1.000000
1.000000
0.000000
0.000000
0.000000
0.000000
0.017577
0.017958
0.002694
0.004805
0.005151
0.011644
0.021963
0.017744
0.043574
0.003754
0.019841
0.009732
0.032642
0.018325
0.013270
0.035288
0.049551
0.050162
0.055345
0.070451
0.042214
0.071480
0.039438
0.014115
1.000000
1.000000
1.000000
0.000000
0.000000
0.000000
0.000000
0.028754
0.020391
0.007879
0.011276
0.015459
0.003535
0.004748
0.026407
0.010576
0.003871
0.040191
0.010831
0.025809
0.010931
0.048037
0.037624
0.028790
0.046250
0.032747
0.073893
0.031590
0.098468
0.032570
0.037370
1.000000
1.000000
1.000000
0.000000
0.000000
0.000000
0.000000
0.021253
0.024431
0.005745
0.005589
0.015365
0.011995
0.032094
0.005628
0.006137
0.043071
0.005707
0.013503
0.036326
0.014922
0.032934
0.033897
0.047382
0.070183
0.059133
0.081764
0.036727
0.074072
0.054650
0.089799
1.000000
1.000000
1.000000
0.000000
0.000000
0.000000
0.000000
0.033063
0.025688
0.005523
0.012694
0.010543
0.012284
0.012974
0.011357
0.047490
0.021814
0.031675
0.036939
0.013695
0.027498
0.057216
0.034022
0.033045
0.047706
0.037844
0.073633
0.042103
0.086860
0.047683
0.034118
1.000000
1.000000
1.000000
0.000000
0.000000
0.000000
0.000000
0.024530
0.027841
0.009726
0.009187
0.011891
0.002200
0.004353
0.018275
0.007037
0.015914
0.040617
0.034385
0.050511
0.017231
0.024389
0.032818
0.053933
0.067901
0.050440
0.071228
0.037103
0.072473
0.022664
0.033468
1.000000
1.000000
1.000000
0.000000
0.000000
0.000000
0.000000
0.037386
0.032285
0.008133
0.016286
0.016325
0.016448
0.017952
0.008435
0.021628
0.022617
0.007495
0.052907
0.024353
0.018889
0.061913
0.031856
0.034203
0.026823
0.040172
0.050312
0.054408
0.081755
0.060859
0.028381
1.000000
1.000000
1.000000
0.000000
0.000000
0.000000
0.000000
0.026793
0.032432
0.012128
0.012289
0.018165
0.009159
0.011766
0.010495
0.018596
0.021625
0.034804
0.006069
0.005426
0.045222
0.027566
0.025746
0.062203
0.058377
0.040967
0.052409
0.037602
0.047450
0.039849
0.018800
1.000000
1.000000
1.000000
0.000000
0.000000
0.000000
0.000000
0.040570
0.034833
0.011875
0.020883
0.022154
0.023097
0.017286
0.020383
0.027589
0.019574
0.050532
0.034954
0.087899
0.044215
0.059598
0.046520
0.048259
0.020147
0.038467
0.033436
0.042953
0.044373
0.018128
0.059133
0.000000
0.000000
0.000000
0.000000
0.033904
0.037717
0.010732
0.014260
0.021406
0.017506
0.014453
0.019162
0.025205
0.013722
0.033149
0.018997
0.047625
0.036649
0.062436
0.079251
0.064982
0.065351
0.051284
0.057104
0.015899
0.037026
0.075817
0.299481
0.000000
0.000000
0.000000
0.000000
0.042656
0.040637
0.011741
0.019577
0.028570
0.020386
0.027287
0.022321
0.033844
0.027896
0.033919
0.035090
0.045055
0.055379
0.037032
0.068129
0.060095
0.067644
0.043426
0.024063
0.036291
0.022544
0.031120
0.027816
0.000000
0.000000
0.000000
0.000000
0.036531
0.035771
0.008104
0.015567
0.020948
0.015573
0.018217
0.013653
0.028756
0.010419
0.021015
0.037403
0.029839
0.068842
0.048426
0.064887
0.063676
0.042833
0.043705
0.048224
0.025339
0.076522
0.062340
0.073364
0.000000
0.000000
0.000000
0.000000
0.046083
0.046657
0.008912
0.015858
0.027639
0.019283
0.024766
0.021786
0.026342
0.026528
0.018537
0.046813
0.029701
0.051422
0.053067
0.060713
0.066569
0.089456
0.001354
0.095741
0.068978
0.106351
0.081490
0.010644
0.000000
0.000000
0.000000
0.000000
0.038885
0.036627
0.007033
0.011807
0.015305
0.008509
0.010575
0.008139
0.014556
0.009879
0.013236
0.009918
0.009339
0.016850
0.020081
0.035923
0.029811
0.053144
0.102655
0.104870
0.037908
0.127472
0.028179
0.061301
0.000000
0.000000
0.000000
0.000000
0.046647
0.045414
0.008672
0.013744
0.027381
0.015281
0.023456
0.015560
0.023285
0.007892
0.024648
0.023866
0.027827
0.038137
0.039511
0.033703
0.025829
0.038565
0.025416
0.037541
0.033367
0.067748
0.044216
0.053246
0.000000
0.000000
0.000000
0.000000
0.040291
0.033786
0.006474
0.011941
0.018362
0.010547
0.014895
0.006853
0.014680
0.014728
0.020979
0.025410
0.032903
0.031231
0.043648
0.063749
0.075097
0.081899
0.060498
0.086167
0.030664
0.089037
0.023708
0.046108
0.000000
0.000000
0.000000
0.000000
0.046172
0.041001
0.006447
0.012425
0.022140
0.010376
0.017239
0.011899
0.015934
0.016489
0.010865
0.021000
0.008843
0.050321
0.023540
0.050765
0.029766
0.088159
0.084338
0.136881
0.037485
0.070957
0.080202
0.035823
0.000000
0.000000
0.000000
0.000000
0.041988
0.033303
0.006710
0.012217
0.018653
0.012365
0.015643
0.010659
0.013077
0.014380
0.009217
0.030546
0.009633
0.022902
0.017028
0.033142
0.021609
0.044298
0.049041
0.063270
0.091320
0.080373
0.024587
0.053041
0.000000
0.000000
0.000000
0.000000
0.045996
0.038756
0.002530
0.012147
0.019009
0.009967
0.015633
0.008703
0.012900
0.014710
0.012311
0.017886
0.015713
0.027982
0.030028
0.047094
0.030098
0.088055
0.050763
0.134453
0.054407
0.016836
0.070476
0.075136
0.000000
0.000000
0.000000
0.000000
0.042877
0.033205
0.004574
0.010834
0.015219
0.009582
0.014215
0.010872
0.014595
0.017273
0.017206
0.024460
0.029409
0.034763
0.053268
0.064743
0.082406
0.086290
0.103987
0.119751
0.139893
0.094510
0.046809
0.028537
0.000000
0.000000
0.000000
0.000000
0.046971
0.036721
0.003042
0.008899
0.015004
0.009081
0.012791
0.009753
0.009837
0.013141
0.012239
0.019435
0.020583
0.029603
0.036959
0.044283
0.046168
0.076639
0.096419
0.080655
0.110376
0.028186
0.097769
0.040578
0.000000
0.000000
0.000000
0.000000
0.045453
0.034040
0.005369
0.009998
0.014483
0.011319
0.016075
0.012852
0.016965
0.017784
0.018985
0.021624
0.024396
0.022199
0.026030
0.039053
0.029690
0.049921
0.040205
0.031794
0.069618
0.096127
0.060801
0.191860
0.000000
0.000000
0.000000
0.000000
0.046550
0.034584
0.004721
0.008620
0.012417
0.010025
0.011563
0.013325
0.012753
0.016097
0.017061
0.016563
0.024268
0.023268
0.025588
0.045920
0.027428
0.034530
0.023065
0.037168
0.046832
0.069554
0.052865
0.108122
0.000000
0.000000
0.000000
0.000000
0.047140
0.032787
0.007129
0.008974
0.011446
0.014234
0.013479
0.015452
0.015190
0.013359
0.021927
0.018879
0.023779
0.035208
0.030787
0.030579
0.033345
0.038376
0.047851
0.082635
0.087003
0.150831
0.146664
0.165848
0.000000
0.000000
0.000000
0.000000
0.047610
0.033624
0.006528
0.011343
0.011196
0.013114
0.008561
0.011532
0.010825
0.014540
0.013285
0.023457
0.019616
0.024002
0.031516
0.032373
0.044962
0.052563
0.071699
0.092004
0.128707
0.083203
0.173934
0.425767
0.000000
0.000000
0.000000
0.000000
0.046412
0.030256
0.006466
0.011364
0.006721
0.010814
0.007263
0.012820
0.008000
0.018331
0.014105
0.019563
0.020702
0.022893
0.029796
0.043066
0.046595
0.049502
0.061257
0.095647
0.083117
0.088050
0.050281
0.356535
0.000000
0.000000
0.000000
0.000000
0.046884
0.030390
0.010523
0.007164
0.003653
0.011302
0.004064
0.014373
0.004714
0.014339
0.003742
0.013449
0.012562
0.025654
0.029904
0.031003
0.046600
0.064959
0.052170
0.064609
0.036102
0.047323
0.095757
0.291883
0.000000
0.000000
0.000000
0.000000
0.049544
0.030408
0.011246
0.010585
0.005715
0.013698
0.003998
0.013654
0.001401
0.010281
0.007191
0.015786
0.010764
0.015939
0.018273
0.040320
0.036025
0.047829
0.038681
0.073296
0.046291
0.023608
0.020168
0.263540
0.000000
0.000000
0.000000
0.000000
0.046098
0.028023
0.010811
0.009501
0.004337
0.011492
0.001394
0.008460
0.002495
0.012744
0.005163
0.013776
0.009303
0.022738
0.023823
0.030554
0.032603
0.051385
0.031528
0.061815
0.007388
0.057707
0.066319
0.246487
0.000000
0.000000
0.000000
0.000000
0.047882
0.027183
0.013204
0.009315
0.002991
0.008594
0.001859
0.012109
0.005456
0.012498
0.002916
0.011936
0.010207
0.020228
0.018487
0.029270
0.021412
0.041754
0.023832
0.047336
0.026035
0.003754
0.034727
0.199467
0.000000
0.000000
0.000000
0.000000
0.047047
0.025413
0.013515
0.006128
0.001947
0.009666
0.004128
0.009895
0.003981
0.007140
0.001480
0.013742
0.006767
0.014485
0.016063
0.033340
0.026568
0.042645
0.022777
0.047729
0.017175
0.036370
0.041333
0.191393
0.000000
0.000000
0.000000
0.000000
0.047352
0.024924
0.015905
0.006706
0.002943
0.009168
0.002473
0.007201
0.002307
0.012159
0.003223
0.010702
0.010859
0.026421
0.017770
0.026421
0.016529
0.042952
0.015694
0.028726
0.016008
0.010423
0.039188
0.149884
0.000000
0.000000
0.000000
0.000000
0.046542
0.022809
0.013874
0.007514
0.001712
0.007936
0.002103
0.010530
0.000886
0.007600
0.003229
0.017498
0.007685
0.013427
0.012823
0.031708
0.020515
0.023495
0.014213
0.035515
0.008292
0.008554
0.027557
0.140437
0.000000
0.000000
0.000000
0.000000
0.043534
0.020033
0.014966
0.005803
0.002469
0.007419
0.004257
0.005381
0.003656
0.012400
0.004170
0.008586
0.010278
0.022685
0.015704
0.021242
0.010303
0.036680
0.006044
0.019658
0.008244
0.017934
0.026916
0.114169
0.000000
0.000000
0.000000
0.000000
0.042502
0.020395
0.015942
0.005126
0.005016
0.006146
0.002764
0.011345
0.003183
0.007797
0.007787
0.015769
0.010869
0.018387
0.012976
0.022156
0.013839
0.020416
0.007023
0.018164
0.003353
0.004603
0.026095
0.107361
0.000000
0.000000
0.000000
0.000000
0.042236
0.020218
0.015665
0.006317
0.002941
0.010793
0.001140
0.007841
0.009442
0.009528
0.004740
0.013778
0.012151
0.010796
0.007734
0.023163
0.008119
0.018615
0.003280
0.019073
0.016336
0.009448
0.022548
0.083001
0.000000
0.000000
0.000000
0.000000
0.037429
0.020208
0.015441
0.006157
0.004465
0.006561
0.010895
0.006754
0.001875
0.012272
0.008045
0.009931
0.001651
0.021896
0.004590
0.011547
0.001264
0.018639
0.001925
0.003400
0.005351
0.010150
0.016235
0.080952
0.000000
0.000000
0.000000
0.000000
0.038005
0.020800
0.015990
0.004286
0.010123
0.007010
0.002346
0.011719
0.005301
0.008493
0.005559
0.016128
0.004505
0.007645
0.008175
0.016659
0.001753
0.007932
0.011415
0.011452
0.013967
0.007077
0.027479
0.061432
0.000000
0.000000
0.000000
0.000000
0.035187
0.022078
0.017394
0.004116
0.005522
0.009214
0.006199
0.006809
0.009372
0.010292
0.002562
0.007969
0.012282
0.012297
0.002912
0.008391
0.011639
0.008324
0.004195
0.003766
0.012693
0.009601
0.010250
0.054931
0.000000
0.000000
0.000000
0.000000
0.035208
0.023029
0.015812
0.002795
0.007209
0.005869
0.010593
0.007809
0.003337
0.008424
0.011647
0.007921
0.001406
0.007224
0.011412
0.003624
0.006358
0.003915
0.015638
0.001235
0.014125
0.006075
0.025944
0.048116
0.000000
0.000000
0.000000
0.000000
0.033455
0.021729
0.016381
0.002332
0.011035
0.004057
0.004655
0.006919
0.009546
0.006223
0.003652
0.008935
0.010970
0.005964
0.009033
0.005868
0.015558
0.002113
0.014662
0.007917
0.015918
0.007461
0.012992
0.035044
0.000000
0.000000
0.000000
0.000000
0.030931
0.023770
0.017314
0.000965
0.006030
0.005084
0.008272
0.005239
0.007160
0.007106
0.009581
0.005254
0.009844
0.003299
0.013026
0.005626
0.014598
0.006355
0.017759
0.007679
0.020885
0.008029
0.018761
0.034991
0.000000
0.000000
0.000000
0.000000
0.032230
0.021915
0.016026
0.000708
0.009407
0.002478
0.009393
0.004373
0.007413
0.004351
0.009850
0.004228
0.010423
0.004592
0.015188
0.001238
0.017872
0.007811
0.020942
0.010748
0.018154
0.008265
0.022763
0.019649
0.000000
0.000000
0.000000
0.000000
0.029060
0.023290
0.016505
0.003666
0.009939
0.002240
0.005918
0.004083
0.008939
0.005045
0.006960
0.004347
0.011504
0.002488
0.013247
0.008167
0.018450
0.012076
0.019438
0.013449
0.020860
0.010101
0.016703
0.015062
0.000000
0.000000
0.000000
0.000000
0.028481
0.021808
0.017190
0.002200
0.007454
0.001294
0.009324
0.001692
0.006820
0.002426
0.010174
0.003387
0.011887
0.005696
0.018293
0.008869
0.021450
0.013270
0.023794
0.016368
0.019642
0.013468
0.015725