<?xml version='1.0' encoding='UTF-8'?>
<VTKFile xmlns='VTK' byte_order='LittleEndian' version='0.1' type='UnstructuredGrid'>
<UnstructuredGrid>
<Piece NumberOfCells='2512' NumberOfPoints='2512'>
<Points>
<DataArray NumberOfComponents='3' type='Float32' Name='Position' format='ascii'>
-0.075000 -0.075000 0.000000
-0.075000 -0.050000 0.000000
-0.075000 -0.025000 0.000000
-0.075000 0.000000 0.000000
-0.075000 0.025000 0.000000
-0.075000 0.050000 0.000000
-0.075000 0.075000 0.000000
-0.075000 0.100000 0.000000
-0.075000 0.125000 0.000000
-0.075000 0.150000 0.000000
-0.075000 0.175000 0.000000
-0.075000 0.200000 0.000000
-0.075000 0.225000 0.000000
-0.075000 0.250000 0.000000
-0.075000 0.275000 0.000000
-0.075000 0.300000 0.000000
-0.075000 0.325000 0.000000
-0.075000 0.350000 0.000000
-0.075000 0.375000 0.000000
-0.075000 0.400000 0.000000
-0.075000 0.425000 0.000000
-0.075000 0.450000 0.000000
-0.075000 0.475000 0.000000
-0.075000 0.500000 0.000000
-0.075000 0.525000 0.000000
-0.075000 0.550000 0.000000
-0.075000 0.575000 0.000000
-0.075000 0.600000 0.000000
-0.050000 -0.075000 0.000000
-0.050000 -0.050000 0.000000
-0.050000 -0.025000 0.000000
-0.050000 0.000000 0.000000
-0.050000 0.025000 0.000000
-0.050000 0.050000 0.000000
-0.050000 0.075000 0.000000
-0.050000 0.100000 0.000000
-0.050000 0.125000 0.000000
-0.050000 0.150000 0.000000
-0.050000 0.175000 0.000000
-0.050000 0.200000 0.000000
-0.050000 0.225000 0.000000
-0.050000 0.250000 0.000000
-0.050000 0.275000 0.000000
-0.050000 0.300000 0.000000
-0.050000 0.325000 0.000000
-0.050000 0.350000 0.000000
-0.050000 0.375000 0.000000
-0.050000 0.400000 0.000000
-0.050000 0.425000 0.000000
-0.050000 0.450000 0.000000
-0.050000 0.475000 0.000000
-0.050000 0.500000 0.000000
-0.050000 0.525000 0.000000
-0.050000 0.550000 0.000000
-0.050000 0.575000 0.000000
-0.050000 0.600000 0.000000
-0.025000 -0.075000 0.000000
-0.025000 -0.050000 0.000000
-0.025000 -0.025000 0.000000
-0.025000 0.000000 0.000000
-0.025000 0.025000 0.000000
-0.025000 0.050000 0.000000
-0.025000 0.075000 0.000000
-0.025000 0.100000 0.000000
-0.025000 0.125000 0.000000
-0.025000 0.150000 0.000000
-0.025000 0.175000 0.000000
-0.025000 0.200000 0.000000
-0.025000 0.225000 0.000000
-0.025000 0.250000 0.000000
-0.025000 0.275000 0.000000
-0.025000 0.300000 0.000000
-0.025000 0.325000 0.000000
-0.025000 0.350000 0.000000
-0.025000 0.375000 0.000000
-0.025000 0.400000 0.000000
-0.025000 0.425000 0.000000
-0.025000 0.450000 0.000000
-0.025000 0.475000 0.000000
-0.025000 0.500000 0.000000
-0.025000 0.525000 0.000000
-0.025000 0.550000 0.000000
-0.025000 0.575000 0.000000
-0.025000 0.600000 0.000000
0.000000 -0.075000 0.000000
0.000000 -0.050000 0.000000
0.000000 -0.025000 0.000000
0.000000 0.000000 0.000000
0.000000 0.025000 0.000000
0.000000 0.050000 0.000000
0.000000 0.075000 0.000000
0.000000 0.100000 0.000000
0.000000 0.125000 0.000000
0.000000 0.150000 0.000000
0.000000 0.175000 0.000000
0.000000 0.200000 0.000000
0.000000 0.225000 0.000000
0.000000 0.250000 0.000000
0.000000 0.275000 0.000000
0.000000 0.300000 0.000000
0.000000 0.325000 0.000000
0.000000 0.350000 0.000000
0.000000 0.375000 0.000000
0.000000 0.400000 0.000000
0.000000 0.425000 0.000000
0.000000 0.450000 0.000000
0.000000 0.475000 0.000000
0.000000 0.500000 0.000000
0.000000 0.525000 0.000000
0.000000 0.550000 0.000000
0.000000 0.575000 0.000000
0.000000 0.600000 0.000000
0.025000 -0.075000 0.000000
0.025000 -0.050000 0.000000
0.025000 -0.025000 0.000000
0.025000 0.000000 0.000000
0.024936 0.024894 0.000000
0.025064 0.049757 0.000000
0.025104 0.074880 0.000000
0.024886 0.099656 0.000000
0.025114 0.124759 0.000000
0.025005 0.149690 0.000000
0.024999 0.174694 0.000000
0.025057 0.199680 0.000000
0.024950 0.224802 0.000000
0.025107 0.249785 0.000000
0.024905 0.275102 0.000000
0.025037 0.300009 0.000000
0.024999 0.325603 0.000000
0.024980 0.350533 0.000000
0.024771 0.376161 0.000000
0.025241 0.401258 0.000000
0.024598 0.426926 0.000000
0.025276 0.451926 0.000000
0.024530 0.477763 0.000000
0.025346 0.502781 0.000000
0.024540 0.528464 0.000000
0.024553 0.553465 0.000000
0.027870 0.578159 0.000000
0.017704 0.600000 0.000000
0.365000 0.625000 0.000000
0.365000 0.650000 0.000000
0.365000 0.675000 0.000000
0.050000 -0.075000 0.000000
0.050000 -0.050000 0.000000
0.050000 -0.025000 0.000000
0.050000 0.000000 0.000000
0.050102 0.024971 0.000000
0.050039 0.050005 0.000000
0.049959 0.075049 0.000000
0.050065 0.100133 0.000000
0.049960 0.125298 0.000000
0.049963 0.150192 0.000000
0.049928 0.175488 0.000000
0.049883 0.200459 0.000000
0.049792 0.225662 0.000000
0.049725 0.250652 0.000000
0.049662 0.275916 0.000000
0.049580 0.300866 0.000000
0.049479 0.326132 0.000000
0.049438 0.350930 0.000000
0.049422 0.376457 0.000000
0.049264 0.400947 0.000000
0.049253 0.426700 0.000000
0.049244 0.451380 0.000000
0.049026 0.476955 0.000000
0.049379 0.501705 0.000000
0.048951 0.527296 0.000000
0.050552 0.551352 0.000000
0.050859 0.576108 0.000000
0.052868 0.600000 0.000000
0.390000 0.625000 0.000000
0.390000 0.650000 0.000000
0.390000 0.675000 0.000000
0.075000 -0.075000 0.000000
0.075000 -0.050000 0.000000
0.075000 -0.025000 0.000000
0.075000 0.000000 0.000000
0.075091 0.024942 0.000000
0.075017 0.049781 0.000000
0.074922 0.074965 0.000000
0.074978 0.099844 0.000000
0.074825 0.124810 0.000000
0.075055 0.149906 0.000000
0.074784 0.174822 0.000000
0.074943 0.199702 0.000000
0.074849 0.224742 0.000000
0.074907 0.249531 0.000000
0.074831 0.274452 0.000000
0.074943 0.299088 0.000000
0.074772 0.323911 0.000000
0.075093 0.348671 0.000000
0.074526 0.372981 0.000000
0.075334 0.397935 0.000000
0.074295 0.421956 0.000000
0.075546 0.446761 0.000000
0.074043 0.470734 0.000000
0.075589 0.495610 0.000000
0.074490 0.519818 0.000000
0.076081 0.544496 0.000000
0.078358 0.566974 0.000000
0.069737 0.597129 0.000000
0.415000 0.625000 0.000000
0.415000 0.650000 0.000000
0.415000 0.675000 0.000000
0.100000 -0.075000 0.000000
0.100000 -0.050000 0.000000
0.100000 -0.025000 0.000000
0.100000 0.000000 0.000000
0.100162 0.024946 0.000000
0.100008 0.049945 0.000000
0.099972 0.074920 0.000000
0.099917 0.099843 0.000000
0.100006 0.125061 0.000000
0.099948 0.149843 0.000000
0.099829 0.175006 0.000000
0.100028 0.200146 0.000000
0.099736 0.225250 0.000000
0.099960 0.250359 0.000000
0.099755 0.275780 0.000000
0.099940 0.300875 0.000000
0.099716 0.326430 0.000000
0.099976 0.351340 0.000000
0.099556 0.377323 0.000000
0.100238 0.401969 0.000000
0.099297 0.428194 0.000000
0.100388 0.452869 0.000000
0.099139 0.479231 0.000000
0.100428 0.503537 0.000000
0.099337 0.529910 0.000000
0.102639 0.554209 0.000000
0.100252 0.582814 0.000000
0.094475 0.600000 0.000000
0.440000 0.625000 0.000000
0.440000 0.650000 0.000000
0.440000 0.675000 0.000000
0.125000 -0.075000 0.000000
0.125000 -0.050000 0.000000
0.125000 -0.025000 0.000000
0.125000 0.000000 0.000000
0.125304 0.024885 0.000000
0.125059 0.049813 0.000000
0.124922 0.074891 0.000000
0.125065 0.099889 0.000000
0.124862 0.124797 0.000000
0.124945 0.149806 0.000000
0.124812 0.174963 0.000000
0.124748 0.199627 0.000000
0.124633 0.224847 0.000000
0.124665 0.249702 0.000000
0.124438 0.274673 0.000000
0.124625 0.299559 0.000000
0.124197 0.324538 0.000000
0.124655 0.349516 0.000000
0.124083 0.374351 0.000000
0.124670 0.399377 0.000000
0.124066 0.424272 0.000000
0.124845 0.449086 0.000000
0.124076 0.473961 0.000000
0.125127 0.498530 0.000000
0.124641 0.523647 0.000000
0.128024 0.547834 0.000000
0.124301 0.571153 0.000000
0.123297 0.599585 0.000000
0.465000 0.625000 0.000000
0.465000 0.650000 0.000000
0.465000 0.675000 0.000000
0.150000 -0.075000 0.000000
0.150000 -0.050000 0.000000
0.150000 -0.025000 0.000000
0.150000 0.000000 0.000000
0.150262 0.025018 0.000000
0.149981 0.049950 0.000000
0.149882 0.075080 0.000000
0.149979 0.100022 0.000000
0.149825 0.125176 0.000000
0.150104 0.150202 0.000000
0.149694 0.175090 0.000000
0.150017 0.200272 0.000000
0.149800 0.225278 0.000000
0.149874 0.250084 0.000000
0.149766 0.275360 0.000000
0.149941 0.300090 0.000000
0.149660 0.325313 0.000000
0.150033 0.349985 0.000000
0.149332 0.375165 0.000000
0.150430 0.399790 0.000000
0.149003 0.424961 0.000000
0.150673 0.449534 0.000000
0.148986 0.474734 0.000000
0.150837 0.499480 0.000000
0.149398 0.524262 0.000000
0.152622 0.550059 0.000000
0.149728 0.575926 0.000000
0.148067 0.598841 0.000000
0.490000 0.625000 0.000000
0.490000 0.650000 0.000000
0.490000 0.675000 0.000000
0.175000 -0.075000 0.000000
0.175000 -0.050000 0.000000
0.175000 -0.025000 0.000000
0.175000 0.000000 0.000000
0.175453 0.024850 0.000000
0.175030 0.049775 0.000000
0.174887 0.074796 0.000000
0.174995 0.099711 0.000000
0.174896 0.124695 0.000000
0.174897 0.149569 0.000000
0.174736 0.174694 0.000000
0.174966 0.199556 0.000000
0.174452 0.224505 0.000000
0.174894 0.249594 0.000000
0.174413 0.274566 0.000000
0.174782 0.299520 0.000000
0.174260 0.324691 0.000000
0.174920 0.349501 0.000000
0.174166 0.374886 0.000000
0.175082 0.399526 0.000000
0.173985 0.424967 0.000000
0.175491 0.449632 0.000000
0.173820 0.474925 0.000000
0.175940 0.499525 0.000000
0.173760 0.524777 0.000000
0.178099 0.549549 0.000000
0.173451 0.574007 0.000000
0.173531 0.599990 0.000000
0.515000 0.625000 0.000000
0.515000 0.650000 0.000000
0.515000 0.675000 0.000000
0.200000 -0.075000 0.000000
0.200000 -0.050000 0.000000
0.200000 -0.025000 0.000000
0.200000 0.000000 0.000000
0.200437 0.024983 0.000000
0.199996 0.049953 0.000000
0.199853 0.075029 0.000000
0.200073 0.100028 0.000000
0.199834 0.125051 0.000000
0.200055 0.150027 0.000000
0.199857 0.175108 0.000000
0.199854 0.199937 0.000000
0.199868 0.225196 0.000000
0.199867 0.249989 0.000000
0.199594 0.275080 0.000000
0.199993 0.299977 0.000000
0.199465 0.325062 0.000000
0.200039 0.349922 0.000000
0.199233 0.374907 0.000000
0.200319 0.399768 0.000000
0.199019 0.424955 0.000000
0.200639 0.449525 0.000000
0.198893 0.474876 0.000000
0.201199 0.499517 0.000000
0.199094 0.524492 0.000000
0.202694 0.549759 0.000000
[...]
<PointData>
<DataArray NumberOfComponents='1' type='Int32' Name='ParticleType' format='ascii'>
3
3
3
3
3
3
3
3
3
3
3
3
3
3
3
3
3
3
3
3
3
3
3
3
3
3
3
3
3
3
3
3
3
3
3
3
3
3
3
3
3
3
3
3
3
3
3
3
3
3
3
3
3
3
3
3
3
3
2
2
2
2
2
2
2
2
2
2
2
2
2
2
2
2
2
2
2
2
2
2
2
2
2
2
3
3
2
2
2
2
2
2
2
2
2
2
2
2
2
2
2
2
2
2
2
2
2
2
2
2
2
2
3
3
2
2
0
0
0
0
0
0
0
0
0
0
0
0
0
0
0
0
0
0
0
0
0
0
0
0
1
1
1
3
3
2
2
0
0
0
0
0
0
0
0
0
0
0
0
0
0
0
0
0
0
0
0
0
0
0
0
1
1
1
3
3
2
2
0
0
0
0
0
0
0
0
0
0
0
0
0
0
0
0
0
0
0
0
0
0
0
0
1
1
1
3
3
2
2
0
0
0
0
0
0
0
0
0
0
0
0
0
0
0
0
0
0
0
0
0
0
0
0
1
1
1
3
3
2
2
0
0
0
0
0
0
0
0
0
0
0
0
0
0
0
0
0
0
0
0
0
0
0
0
1
1
1
3
3
2
2
0
0
0
0
0
0
0
0
0
0
0
0
0
0
0
0
0
0
0
0
0
0
0
0
1
1
1
3
3
2
2
0
0
0
0
0
0
0
0
0
0
0
0
0
0
0
0
0
0
0
0
0
0
0
0
1
1
1
3
3
2
2
0
0
0
0
0
0
0
0
0
0
0
0
0
0
0
0
0
0
0
0
0
0
0
0
1
1
1
3
3
2
2
0
0
0
0
0
0
0
0
0
0
0
0
0
0
0
0
0
0
0
0
0
0
0
0
1
1
1
3
3
2
2
0
0
0
0
0
0
0
0
0
0
0
0
0
0
0
0
0
0
0
0
0
0
0
0
1
1
1
3
3
2
2
0
0
0
0
0
0
0
0
0
0
0
0
0
0
0
0
0
0
0
0
0
0
0
0
1
1
1
3
3
2
2
0
0
0
0
0
0
0
0
0
0
0
0
0
0
0
0
0
0
0
0
0
0
0
0
1
1
1
3
3
2
2
0
0
0
0
0
0
0
0
0
0
0
0
0
0
0
0
0
0
0
0
0
0
0
0
1
1
1
3
3
2
2
0
0
0
0
0
0
0
0
0
0
0
0
0
0
0
0
0
0
0
0
0
0
0
0
1
1
1
3
3
2
2
0
0
0
0
0
0
0
0
0
0
0
0
0
0
0
0
0
0
0
0
0
0
0
0
1
1
1
3
3
2
2
0
0
0
0
0
0
0
0
0
0
0
0
0
0
0
0
0
0
0
0
0
0
0
0
1
1
1
3
3
2
2
0
0
0
0
0
0
0
0
0
0
0
0
0
0
0
0
0
0
0
0
0
0
0
0
3
3
2
2
0
0
0
0
0
0
0
0
0
0
0
0
0
0
0
0
0
0
0
0
0
0
0
0
3
3
2
2
0
0
0
0
0
0
0
0
0
0
0
0
0
0
0
0
0
0
0
0
0
0
0
0
3
3
2
2
0
0
0
0
0
0
0
0
0
0
0
0
0
0
0
0
0
0
0
0
0
0
0
0
3
3
2
2
0
0
0
0
0
0
0
0
0
0
0
0
0
0
0
0
0
0
0
0
0
0
0
0
3
3
2
2
0
0
0
0
0
0
0
0
0
0
0
0
0
0
0
0
0
0
0
0
0
0
0
0
3
3
2
2
0
0
0
0
0
0
0
0
0
0
0
0
0
0
0
0
0
0
0
0
0
0
0
0
3
3
2
2
0
0
0
0
0
0
0
0
0
0
0
0
0
0
0
0
0
0
0
0
0
0
0
0
3
3
2
2
0
0
0
0
0
0
0
0
0
0
0
0
0
0
0
0
0
0
0
0
0
0
0
0
3
3
2
2
0
0
0
0
0
0
0
0
0
0
0
0
0
0
0
0
0
0
0
0
0
0
0
0
3
3
2
2
0
0
0
0
0
0
0
0
0
0
0
0
0
0
0
0
0
0
0
0
0
0
0
0
3
3
2
2
0
0
0
0
0
0
0
0
0
0
0
0
0
0
0
0
0
0
0
0
0
0
0
0
3
3
2
2
0
0
0
0
0
0
0
0
0
0
0
0
0
0
0
0
0
0
0
0
0
0
0
0
3
3
2
2
0
0
0
0
0
0
0
0
0
0
0
0
0
0
0
0
0
0
0
0
0
0
0
0
3
3
2
2
0
0
0
0
0
0
0
0
0
0
0
0
0
0
0
0
0
0
0
0
0
0
0
0
3
3
2
2
0
0
0
0
0
0
0
0
0
0
0
0
0
0
0
0
0
0
0
0
0
0
0
0
3
3
2
2
0
0
0
0
0
0
0
0
0
0
0
0
0
0
0
0
0
0
0
0
0
0
0
0
3
3
2
2
0
0
0
0
0
0
0
0
0
0
0
0
0
0
0
0
0
0
0
0
0
0
0
0
3
3
2
2
0
0
0
0
0
0
0
0
0
0
0
0
0
0
0
0
0
0
0
0
0
0
0
0
3
3
2
2
0
0
0
0
0
0
0
0
0
0
0
0
0
0
0
0
0
0
0
0
0
0
0
0
3
3
2
2
0
0
0
0
0
0
0
0
0
0
0
0
0
0
0
0
0
0
0
0
0
0
0
0
3
3
2
2
0
0
0
0
0
0
0
0
0
0
0
0
0
0
0
0
0
0
0
0
0
0
0
0
3
3
2
2
0
0
0
0
0
0
0
0
0
0
0
0
0
0
0
0
0
0
0
0
0
0
0
0
3
3
2
2
0
0
0
0
0
0
0
0
0
0
0
0
0
0
0
0
0
0
0
0
0
0
0
0
3
3
2
2
0
0
0
0
0
0
0
0
0
0
0
0
0
0
0
0
0
0
0
0
0
0
0
0
3
3
2
2
0
0
0
0
0
0
0
0
0
0
0
0
0
0
0
0
0
0
0
0
0
0
0
0
3
3
2
2
0
0
0
0
0
0
0
0
0
0
0
0
0
0
0
0
0
0
0
0
0
0
0
0
3
3
2
2
0
0
0
0
0
0
0
0
0
0
0
0
0
0
0
0
0
0
0
0
0
0
0
0
3
3
2
2
0
0
0
0
0
0
0
0
0
0
0
0
0
0
0
0
0
0
0
0
0
0
0
0
3
3
2
2
0
0
0
0
0
0
0
0
0
0
0
0
0
0
0
0
0
0
0
0
0
0
0
0
3
3
2
2
0
0
0
0
0
0
0
0
0
0
0
0
0
0
0
0
0
0
0
0
0
0
0
0
3
3
2
2
0
0
0
0
0
0
0
0
0
0
0
0
0
0
0
0
0
0
0
0
0
0
0
0
3
3
2
2
0
0
0
0
0
0
0
0
0
0
0
0
0
0
0
0
0
0
0
0
0
0
0
0
3
3
2
2
0
0
0
0
0
0
0
0
0
0
0
0
0
0
0
0
0
0
0
0
0
0
0
0
3
3
2
2
0
0
0
0
0
0
0
0
0
0
0
0
0
0
0
0
0
0
0
0
0
0
0
0
3
3
2
2
0
0
0
0
0
0
0
0
0
0
0
0
0
0
0
0
0
0
0
0
0
0
0
0
3
3
2
2
0
0
0
0
0
0
0
0
0
0
0
0
0
0
0
0
0
0
0
0
0
0
0
0
3
3
2
2
0
0
0
0
0
0
0
0
0
0
0
0
0
0
0
0
0
0
0
0
0
0
0
0
3
3
2
2
0
0
0
0
0
0
0
0
0
0
0
0
0
0
0
0
0
0
0
0
0
0
0
0
3
3
2
2
0
0
0
0
0
0
0
0
0
0
0
0
0
0
0
0
0
0
0
0
0
0
0
0
3
3
2
2
0
0
0
0
0
0
0
0
0
0
0
0
0
0
0
0
0
0
0
0
0
0
0
0
3
3
2
2
0
0
0
0
0
0
0
0
0
0
0
0
0
0
0
0
0
0
0
0
0
0
0
0
3
3
2
2
0
0
0
0
0
0
0
0
0
0
0
0
0
0
0
0
0
0
0
0
0
0
0
0
3
3
2
2
0
0
0
0
0
0
0
0
0
0
0
0
0
0
0
0
0
0
0
0
0
0
0
0
3
3
2
2
0
0
0
0
0
0
0
0
0
0
0
0
0
0
0
0
0
0
0
0
0
0
0
0
3
3
2
2
0
0
0
0
0
0
0
0
0
0
0
0
0
0
0
0
0
0
0
0
0
0
0
0
3
3
2
2
0
0
0
0
0
0
0
0
0
0
0
0
0
0
0
0
0
0
0
0
0
0
0
0
3
3
2
2
0
0
0
0
0
0
0
0
0
0
0
0
0
0
0
0
0
0
0
0
0
0
0
0
3
3
2
2
0
0
0
0
0
0
0
0
0
0
0
0
0
0
0
0
0
0
0
0
0
0
0
0
3
3
2
2
0
0
0
0
0
0
0
0
0
0
0
0
0
0
0
0
0
0
0
0
0
0
0
0
3
3
2
2
0
0
0
0
0
0
0
0
0
0
0
0
0
0
0
0
0
0
0
0
0
0
0
0
3
3
2
2
0
0
0
0
0
0
0
0
0
0
0
0
0
0
0
0
0
0
0
0
0
0
0
0
3
3
2
2
0
0
0
0
0
0
0
0
0
0
0
0
0
0
0
0
0
0
0
0
0
0
0
0
3
3
2
2
0
0
0
0
0
0
0
0
0
0
0
0
0
0
0
0
0
0
0
0
0
0
0
0
3
3
2
2
0
0
0
0
0
0
0
0
0
0
0
0
0
0
0
0
0
0
0
0
0
0
0
0
3
3
2
2
0
0
0
0
0
0
0
0
0
0
0
0
0
0
0
0
0
0
0
0
0
0
0
0
3
3
2
2
0
0
0
0
0
0
0
0
0
0
0
0
0
0
0
0
0
0
0
0
0
0
0
0
3
3
2
2
0
0
0
0
0
0
0
0
0
0
0
0
0
0
0
0
0
0
0
0
0
0
0
0
3
3
2
2
0
0
0
0
0
0
0
0
0
0
0
0
0
0
0
0
0
0
0
0
0
0
0
0
3
3
2
2
0
0
0
0
0
0
0
0
0
0
0
0
0
0
0
0
0
0
0
0
0
0
0
0
3
3
2
2
0
0
0
0
0
0
0
0
0
0
0
0
0
0
0
0
0
0
0
0
0
0
0
0
3
3
2
2
0
0
0
0
0
0
0
0
0
0
0
0
0
0
0
0
0
0
0
0
0
0
0
0
3
3
2
2
0
0
0
0
0
0
0
0
0
0
0
0
0
0
0
0
0
0
0
0
0
0
0
0
3
3
2
2
0
0
0
0
0
0
0
0
0
0
0
0
0
0
0
0
0
0
0
0
0
0
0
0
3
3
2
2
2
2
2
2
2
2
2
2
2
2
2
2
2
2
2
2
2
2
2
2
2
2
2
2
3
3
2
2
2
2
2
2
2
2
2
2
2
2
2
2
2
2
2
2
2
2
2
2
2
2
2
2
3
3
3
3
3
3
3
3
3
3
3
3
3
3
3
3
3
3
3
3
3
3
3
3
3
3
3
3
3
3
3
3
3
3
3
3
3
3
3
3
3
3
3
3
3
3
3
3
3
3
3
3
3
3
3
3
</DataArray>
<DataArray NumberOfComponents='1' type='Float32' Name='Velocity' format='ascii'>
0.000000
0.000000
0.000000
0.000000
0.000000
0.000000
0.000000
0.000000
0.000000
0.000000
0.000000
0.000000
0.000000
0.000000
0.000000
0.000000
0.000000
0.000000
0.000000
0.000000
0.000000
0.000000
0.000000
0.000000
0.000000
0.000000
0.000000
0.000000
0.000000
0.000000
0.000000
0.000000
0.000000
0.000000
0.000000
0.000000
0.000000
0.000000
0.000000
0.000000
0.000000
0.000000
0.000000
0.000000
0.000000
0.000000
0.000000
0.000000
0.000000
0.000000
0.000000
0.000000
0.000000
0.000000
0.000000
0.000000
0.000000
0.000000
0.000000
0.000000
0.000000
0.000000
0.000000
0.000000
0.000000
0.000000
0.000000
0.000000
0.000000
0.000000
0.000000
0.000000
0.000000
0.000000
0.000000
0.000000
0.000000
0.000000
0.000000
0.000000
0.000000
0.000000
0.000000
0.000000
0.000000
0.000000
0.000000
0.000000
0.000000
0.000000
0.000000
0.000000
0.000000
0.000000
0.000000
0.000000
0.000000
0.000000
0.000000
0.000000
0.000000
0.000000
0.000000
0.000000
0.000000
0.000000
0.000000
0.000000
0.000000
0.000000
0.000000
0.000000
0.000000
0.000000
0.000000
0.000000
0.011909
0.012751
0.011304
0.004938
0.009955
0.010573
0.007892
0.006784
0.004828
0.007901
0.005691
0.008132
0.006486
0.014534
0.019645
0.015661
0.018395
0.016318
0.028707
0.027711
0.033527
0.037995
0.049540
0.165998
1.000000
1.000000
1.000000
0.000000
0.000000
0.000000
0.000000
0.013211
0.008933
0.004511
0.003058
0.011650
0.006255
0.008540
0.010035
0.015253
0.013196
0.017091
0.015614
0.021387
0.011621
0.024235
0.016057
0.023181
0.021130
0.030607
0.012669
0.043173
0.011500
0.018784
0.074104
1.000000
1.000000
1.000000
0.000000
0.000000
0.000000
0.000000
0.010414
0.007084
0.008349
0.009224
0.011461
0.007767
0.002635
0.012253
0.006272
0.013128
0.005902
0.014172
0.023237
0.011496
0.030093
0.034637
0.045228
0.040565
0.066598
0.049968
0.069817
0.049494
0.096648
0.009326
1.000000
1.000000
1.000000
0.000000
0.000000
0.000000
0.000000
0.007670
0.004959
0.012015
0.010407
0.005268
0.012802
0.011522
0.007165
0.014554
0.007387
0.014731
0.016712
0.032244
0.018544
0.041873
0.046913
0.059134
0.065468
0.097026
0.086188
0.099028
0.082262
0.155152
0.161201
1.000000
1.000000
1.000000
0.000000
0.000000
0.000000
0.000000
0.000486
0.003428
0.009247
0.000398
0.005208
0.018679
0.005014
0.000899
0.016589
0.000841
0.012284
0.006259
0.017929
0.008713
0.010629
0.013697
0.023395
0.013343
0.033918
0.023335
0.024782
0.052443
0.072582
0.022468
1.000000
1.000000
1.000000
0.000000
0.000000
0.000000
0.000000
0.007681
0.003931
0.005293
0.006461
0.010945
0.013535
0.005003
0.012216
0.020219
0.005148
0.009365
0.009629
0.010102
0.010740
0.018489
0.011313
0.014305
0.012137
0.014073
0.020351
0.011319
0.036869
0.027169
0.022996
1.000000
1.000000
1.000000
0.000000
0.000000
0.000000
0.000000
0.005768
0.005316
0.000812
0.009272
0.003732
0.004881
0.018750
0.012339
0.013984
0.012360
0.002713
0.009213
0.009611
0.010612
0.007055
0.004410
0.015347
0.011730
0.010991
0.017818
0.011316
0.051853
0.026078
0.008953
1.000000
1.000000
1.000000
0.000000
0.000000
0.000000
0.000000
0.006355
0.002052
0.005813
0.003866
0.004916
0.010038
0.014653
0.008395
0.010222
0.019095
0.015153
0.004150
0.008878
0.007130
0.012921
0.010145
0.013223
0.013318
0.012820
0.021562
0.011582
0.045339
0.012533
0.014968
1.000000
1.000000
1.000000
0.000000
0.000000
0.000000
0.000000
0.009212
0.004940
0.003782
0.002224
0.010353
0.007844
0.008981
0.011579
0.014987
0.023135
0.006449
0.006081
0.015754
0.008590
0.014273
0.015203
0.016070
0.012921
0.015314
0.023437
0.017033
0.039153
0.018803
0.021723
1.000000
1.000000
1.000000
0.000000
0.000000
0.000000
0.000000
0.006424
0.006646
0.002854
0.003239
0.003402
0.001359
0.010930
0.013855
0.020384
0.003236
0.012892
0.024915
0.003091
0.005194
0.007049
0.011472
0.017993
0.022498
0.019681
0.030109
0.028337
0.052006
0.021961
0.007036
1.000000
1.000000
1.000000
0.000000
0.000000
0.000000
0.000000
0.012371
0.005955
0.004281
0.002477
0.002584
0.006883
0.008411
0.012687
0.010545
0.012729
0.031416
0.012098
0.008909
0.012101
0.011601
0.012566
0.005781
0.018044
0.027749
0.034843
0.031282
0.036556
0.033423
0.033765
1.000000
1.000000
1.000000
0.000000
0.000000
0.000000
0.000000
0.006680
0.006425
0.005585
0.002505
0.006813
0.004787
0.007302
0.008629
0.012607
0.026957
0.010828
0.003609
0.028255
0.015155
0.016789
0.010287
0.032949
0.025199
0.024701
0.030545
0.035591
0.046280
0.035418
0.033135
1.000000
1.000000
1.000000
0.000000
0.000000
0.000000
0.000000
0.015401
0.008455
0.004768
0.004977
0.006781
0.004533
0.007157
0.007045
0.017103
0.005114
0.001887
0.028070
0.011502
0.015811
0.015809
0.022103
0.018101
0.031196
0.058794
0.044619
0.035949
0.030574
0.030823
0.022734
1.000000
1.000000
1.000000
0.000000
0.000000
0.000000
0.000000
0.009636
0.009761
0.009370
0.002245
0.005194
0.003107
0.006872
0.009073
0.012359
0.009026
0.030060
0.025213
0.023886
0.015134
0.013639
0.014615
0.016493
0.015207
0.018103
0.030411
0.036446
0.024989
0.020330
0.004660
1.000000
1.000000
1.000000
0.000000
0.000000
0.000000
0.000000
0.015189
0.009762
0.004353
0.005477
0.006862
0.007436
0.005835
0.008449
0.003352
0.019677
0.008321
0.002519
0.032257
0.033331
0.034130
0.026703
0.017026
0.028863
0.048338
0.042877
0.028725
0.020965
0.043991
0.006207
1.000000
1.000000
1.000000
0.000000
0.000000
0.000000
0.000000
0.012738
0.008417
0.010386
0.005764
0.008072
0.005678
0.006206
0.001548
0.006909
0.006797
0.002353
0.016646
0.019835
0.025344
0.017244
0.024326
0.029634
0.020747
0.029559
0.041952
0.041846
0.055211
0.020027
0.027755
1.000000
1.000000
1.000000
0.000000
0.000000
0.000000
0.000000
0.013719
0.011743
0.005860
0.005907
0.008587
0.006023
0.009483
0.008336
0.010191
0.013485
0.023318
0.018404
0.038103
0.024813
0.001830
0.050765
0.022059
0.022471
0.059947
0.059832
0.048442
0.039940
0.043090
0.047893
0.000000
0.000000
0.000000
0.000000
0.016606
0.008819
0.005518
0.004279
0.004751
0.008034
0.006172
0.004666
0.014354
0.007321
0.021442
0.006042
0.030836
0.034159
0.040453
0.053010
0.015745
0.015323
0.050537
0.060825
0.049836
0.049544
0.043575
0.097545
0.000000
0.000000
0.000000
0.000000
0.013854
0.012177
0.007939
0.004848
0.012302
0.006457
0.011591
0.012332
0.011728
0.017653
0.017123
0.016880
0.016879
0.038804
0.009834
0.023952
0.068788
0.046289
0.049159
0.055056
0.059060
0.043175
0.031072
0.031160
0.000000
0.000000
0.000000
0.000000
0.018664
0.010459
0.003902
0.005983
0.005887
0.008446
0.005962
0.007142
0.008722
0.013184
0.005622
0.019873
0.009008
0.023347
0.006055
0.016174
0.032869
0.015338
0.052217
0.078191
0.035521
0.039036
0.039659
0.053505
0.000000
0.000000
0.000000
0.000000
0.017117
0.014449
0.005934
0.005202
0.011536
0.006055
0.012258
0.007729
0.015430
0.008628
0.024146
0.008766
0.034655
0.021113
0.049520
0.035222
0.046077
0.053923
0.015115
0.044401
0.038499
0.046296
0.056173
0.049338
0.000000
0.000000
0.000000
0.000000
0.017403
0.009963
0.004139
0.005692
0.005511
0.005657
0.004235
0.004394
0.007673
0.006589
0.007895
0.008360
0.010887
0.010299
0.019980
0.029123
0.049621
0.059814
0.078036
0.091964
0.037724
0.050340
0.054176
0.039124
0.000000
0.000000
0.000000
0.000000
0.018380
0.014487
0.005280
0.005300
0.009623
0.005019
0.008230
0.008116
0.006713
0.008777
0.008285
0.004621
0.008612
0.020688
0.014426
0.041796
0.028040
0.056123
0.057020
0.045356
0.079666
0.064181
0.055001
0.051744
0.000000
0.000000
0.000000
0.000000
0.017743
0.009898
0.002185
0.003614
0.003644
0.002503
0.002034
0.001686
0.000766
0.001219
0.004854
0.004617
0.006634
0.010939
0.009157
0.008590
0.015461
0.011699
0.019773
0.060398
0.037338
0.063587
0.050832
0.066578
0.000000
0.000000
0.000000
0.000000
0.018134
0.011544
0.005771
0.004142
0.008225
0.002779
0.007013
0.002971
0.007011
0.005002
0.007354
0.007582
0.013064
0.011969
0.024059
0.027925
0.045979
0.056139
0.095999
0.077252
0.065615
0.041741
0.057168
0.014568
0.000000
0.000000
0.000000
0.000000
0.018449
0.009997
0.002549
0.005974
0.007193
0.005951
0.007217
0.005536
0.007818
0.006636
0.009561
0.008133
0.010475
0.018383
0.019685
0.026656
0.030779
0.037946
0.061594
0.069166
0.146075
0.090918
0.086507
0.030282
0.000000
0.000000
0.000000
0.000000
0.017496
0.010104
0.004657
0.004511
0.006882
0.004099
0.008125
0.004571
0.008434
0.004264
0.008188
0.013462
0.011226
0.021527
0.015336
0.021382
0.008602
0.036263
0.038134
0.069315
0.091560
0.107344
0.081074
0.054764
0.000000
0.000000
0.000000
0.000000
0.019100
0.009587
0.004761
0.006460
0.007199
0.005221
0.007186
0.003589
0.008250
0.009604
0.007464
0.016107
0.007424
0.018943
0.005753
0.013957
0.012259
0.027544
0.015203
0.047863
0.053617
0.070972
0.072392
0.155313
0.000000
0.000000
0.000000
0.000000
0.018594
0.010455
0.003472
0.005322
0.007288
0.005908
0.008590
0.007914
0.006738
0.009003
0.003559
0.010595
0.003603
0.008370
0.010688
0.010134
0.007841
0.030076
0.024491
0.042956
0.049062
0.130641
0.079172
0.131419
0.000000
0.000000
0.000000
0.000000
0.018401
0.008897
0.004241
0.005681
0.005322
0.006808
0.005924
0.007121
0.008581
0.006699
0.007205
0.008557
0.006250
0.012383
0.006625
0.023605
0.013666
0.023577
0.033148
0.060708
0.124336
0.105039
0.228385
0.478631
0.000000
0.000000
0.000000
0.000000
0.019640
0.010238
0.002666
0.005327
0.005799
0.005408
0.005050
0.003902
0.004345
0.006151
0.004856
0.008485
0.004578
0.016440
0.009418
0.010270
0.017267
0.032616
0.021940
0.040036
0.031173
0.101668
0.046141
0.441502
0.000000
0.000000
0.000000
0.000000
0.019979
0.010087
0.002694
0.005202
0.004246
0.005466
0.006491
0.006701
0.007958
0.004825
0.005829
0.012495
0.005587
0.009096
0.012704
0.021728
0.014815
0.028518
0.019206
0.067015
0.035485
0.027911
0.122557
0.246033
0.000000
0.000000
0.000000
0.000000
0.019384
0.009269
0.001717
0.004499
0.003120
0.005336
0.003802
0.005083
0.005552
0.010247
0.004561
0.009431
0.006981
0.014646
0.012264
0.018079
0.023593
0.041132
0.025864
0.037160
0.027525
0.050923
0.027329
0.213326
0.000000
0.000000
0.000000
0.000000
0.019129
0.009408
0.002632
0.005365
0.003113
0.004679
0.004986
0.007654
0.003873
0.006524
0.007971
0.008338
0.008163
0.011330
0.017245
0.023909
0.017677
0.032543
0.022597
0.029305
0.024169
0.042701
0.070074
0.184777
0.000000
0.000000
0.000000
0.000000
0.020491
0.008631
0.002017
0.003852
0.002344
0.005081
0.001791
0.005428
0.007070
0.006305
0.005850
0.008455
0.008774
0.016014
0.015753
0.027474
0.022502
0.022032
0.018416
0.053133
0.007013
0.022123
0.032841
0.134132
0.000000
0.000000
0.000000
0.000000
0.018485
0.008936
0.004291
0.004057
0.002264
0.005196
0.004380
0.005111
0.004385
0.008846
0.007991
0.013652
0.010156
0.020327
0.013749
0.017832
0.012308
0.041998
0.013208
0.016047
0.006517
0.030046
0.022367
0.135581
0.000000
0.000000
0.000000
0.000000
0.020787
0.008524
0.002603
0.004591
0.001465
0.004897
0.001245
0.006874
0.002547
0.007974
0.003461
0.012377
0.011039
0.012002
0.012065
0.027000
0.017024
0.015009
0.014346
0.029586
0.011458
0.018966
0.044708
0.102570
0.000000
0.000000
0.000000
0.000000
0.018573
0.007792
0.003909
0.003773
0.002534
0.004400
0.003679
0.004033
0.003208
0.007452
0.005714
0.006933
0.007046
0.020107
0.013810
0.018269
0.015384
0.021390
0.016279
0.020352
0.012719
0.004326
0.010640
0.089299
0.000000
0.000000
0.000000
0.000000
0.019508
0.008815
0.004967
0.002378
0.002696
0.003408
0.001568
0.006564
0.000669
0.006617
0.002420
0.013662
0.008951
0.014661
0.012227
0.012351
0.011616
0.021991
0.008365
0.011316
0.007204
0.017981
0.031748
0.082633
0.000000
0.000000
0.000000
0.000000
0.019473
0.007397
0.004494
0.004011
0.002184
0.005308
0.001163
0.004729
0.003192
0.006100
0.001750
0.009620
0.005813
0.008620
0.004018
0.020073
0.004402
0.010736
0.002903
0.017892
0.005853
0.005713
0.013974
0.058578
0.000000
0.000000
0.000000
0.000000
0.018314
0.008267
0.004914
0.002452
0.002765
0.003027
0.004280
0.002860
0.002608
0.007425
0.002904
0.004323
0.002154
0.013916
0.003447
0.008661
0.003002
0.015956
0.003228
0.006829
0.009802
0.010858
0.016928
0.058782
0.000000
0.000000
0.000000
0.000000
0.019726
0.007809
0.006345
0.002424
0.004180
0.003242
0.002725
0.005736
0.001082
0.003877
0.002753
0.009196
0.003793
0.007015
0.004826
0.011565
0.004292
0.009875
0.005765
0.009364
0.007490
0.004227
0.018863
0.039971
0.000000
0.000000
0.000000
0.000000
0.017642
0.007667
0.004819
0.002214
0.003096
0.003420
0.001875
0.003545
0.004644
0.004960
0.003392
0.006320
0.004980
0.006202
0.005215
0.006642
0.004896
0.005179
0.005503
0.005611
0.009098
0.003781
0.014046
0.035184
0.000000
0.000000
0.000000
0.000000
0.017526
0.007121
0.006447
0.002612
0.003475
0.003272
0.005102
0.002449
0.002264
0.004933
0.003328
0.003596
0.005004
0.007397
0.006790
0.005543
0.007939
0.007624
0.009215
0.004559
0.010987
0.004721
0.016323
0.024284
0.000000
0.000000
0.000000
0.000000
0.018347
0.007836
0.005739
0.001953
0.004174
0.002683
0.002814
0.004521
0.003433
0.003127
0.004424
0.005627
0.004562
0.004202
0.006669
0.006411
0.007333
0.003698
0.008991
0.003352
0.011149
0.001435
0.015252
0.017329
0.000000
0.000000
0.000000
0.000000
0.015806
0.006572
0.005998
0.002215
0.003987
0.003412
0.003544
0.002876
0.003907
0.003528
0.002547
0.003345
0.004831
0.005025
0.006877
0.004235
0.010034
0.004652
0.011298
0.003515
0.012755
0.003321
0.016310
0.009800
0.000000
0.000000
0.000000
0.000000
0.016433
0.006849
0.006105
0.002004
0.003701
0.002583
0.004436
0.003082
0.003189
0.003433
0.004704
0.003334
0.005379
0.002920
0.006562
0.003779
0.007543
0.004289
0.010128
0.003304
0.012007
0.002231
0.015046
0.005713
0.000000
0.000000
0.000000
0.000000
0.015631
0.006811
0.005876
0.002358
0.004365
0.002921
0.003192
0.002735
0.004355
0.001601
0.004062
0.001688
0.004963
0.003133
0.007209
0.003711
0.009593
0.003629
0.010789
0.003477
0.012284
0.001775
0.013871
0.002610
0.000000
0.000000
0.000000
0.000000
0.014784
0.005910
0.006040
0.001579
0.003751
0.002474
0.004864
0.002370
0.003939
0.002798
0.004609
0.002960
0.005885
0.002011
0.007022
0.002951
0.008494
0.003928
0.010541
0.003587
0.011885
0.002194
0.013835
0.000757
0.000000
0.000000
0.000000
0.000000
0.014084
0.006517
0.005958
0.002199
0.004796
0.002452
0.003243
0.002783
0.003502
0.001832
0.004001
0.000569
0.005511
0.001867
0.007445
0.002121
0.009345
0.003094
0.010839
0.003699
0.012116
0.003538
0.013260
0.000993
0.000000
0.000000
0.000000
0.000000
0.014299
0.005890
0.006177
0.001624
0.003222
0.002194
0.004221
0.001675
0.004693
0.001300
0.006046
0.000915
0.006860
0.001051
0.008222
0.003208
0.009277
0.004476
0.010393
0.004397
0.011452
0.003291
0.013048
0.001516
0.000000
0.000000
0.000000
0.000000
0.012504
0.005977
0.005488
0.001436
0.005118
0.002347
0.004540
0.002080
0.004462
0.001003
0.004459
0.000637
0.006143
0.002083
0.007894
0.003096
0.010315
0.004263
0.012174
0.004880
0.012537
0.004687
0.012718
0.002401
0.000000
0.000000
0.000000
0.000000
0.013520
0.005893
0.006916
0.002069
0.004050
0.001953
0.003244
0.001606
0.003330
0.001538
0.005053
0.000594
0.006755
0.001508
0.008838
0.003549
0.009712
0.005483
0.010536
0.006238
0.011646
0.005674
0.013279