<?xml version='1.0' encoding='UTF-8'?>
<VTKFile xmlns='VTK' byte_order='LittleEndian' version='0.1' type='UnstructuredGrid'>
<UnstructuredGrid>
<Piece NumberOfCells='1380' NumberOfPoints='1380'>
<Points>
<DataArray NumberOfComponents='3' type='Float32' Name='Position' format='ascii'>
-0.075000 -0.075000 0.000000
-0.075000 -0.050000 0.000000
-0.075000 -0.025000 0.000000
-0.075000 0.000000 0.000000
-0.075000 0.025000 0.000000
-0.075000 0.050000 0.000000
-0.075000 0.075000 0.000000
-0.075000 0.100000 0.000000
-0.075000 0.125000 0.000000
-0.075000 0.150000 0.000000
-0.075000 0.175000 0.000000
-0.075000 0.200000 0.000000
-0.075000 0.225000 0.000000
-0.075000 0.250000 0.000000
-0.075000 0.275000 0.000000
-0.075000 0.300000 0.000000
-0.075000 0.325000 0.000000
-0.075000 0.350000 0.000000
-0.075000 0.375000 0.000000
-0.075000 0.400000 0.000000
-0.075000 0.425000 0.000000
-0.075000 0.450000 0.000000
-0.075000 0.475000 0.000000
-0.075000 0.500000 0.000000
-0.075000 0.525000 0.000000
-0.075000 0.550000 0.000000
-0.075000 0.575000 0.000000
-0.075000 0.600000 0.000000
0.313000 0.625000 0.000000
0.313000 0.650000 0.000000
0.313000 0.675000 0.000000
-0.050000 -0.075000 0.000000
-0.050000 -0.050000 0.000000
-0.050000 -0.025000 0.000000
-0.050000 0.000000 0.000000
-0.050000 0.025000 0.000000
-0.050000 0.050000 0.000000
-0.050000 0.075000 0.000000
-0.050000 0.100000 0.000000
-0.050000 0.125000 0.000000
-0.050000 0.150000 0.000000
-0.050000 0.175000 0.000000
-0.050000 0.200000 0.000000
-0.050000 0.225000 0.000000
-0.050000 0.250000 0.000000
-0.050000 0.275000 0.000000
-0.050000 0.300000 0.000000
-0.050000 0.325000 0.000000
-0.050000 0.350000 0.000000
-0.050000 0.375000 0.000000
-0.050000 0.400000 0.000000
-0.050000 0.425000 0.000000
-0.050000 0.450000 0.000000
-0.050000 0.475000 0.000000
-0.050000 0.500000 0.000000
-0.050000 0.525000 0.000000
-0.050000 0.550000 0.000000
-0.050000 0.575000 0.000000
-0.050000 0.600000 0.000000
0.338000 0.625000 0.000000
0.338000 0.650000 0.000000
0.338000 0.675000 0.000000
-0.025000 -0.075000 0.000000
-0.025000 -0.050000 0.000000
-0.025000 -0.025000 0.000000
-0.025000 0.000000 0.000000
-0.025000 0.025000 0.000000
-0.025000 0.050000 0.000000
-0.025000 0.075000 0.000000
-0.025000 0.100000 0.000000
-0.025000 0.125000 0.000000
-0.025000 0.150000 0.000000
-0.025000 0.175000 0.000000
-0.025000 0.200000 0.000000
-0.025000 0.225000 0.000000
-0.025000 0.250000 0.000000
-0.025000 0.275000 0.000000
-0.025000 0.300000 0.000000
-0.025000 0.325000 0.000000
-0.025000 0.350000 0.000000
-0.025000 0.375000 0.000000
-0.025000 0.400000 0.000000
-0.025000 0.425000 0.000000
-0.025000 0.450000 0.000000
-0.025000 0.475000 0.000000
-0.025000 0.500000 0.000000
-0.025000 0.525000 0.000000
-0.025000 0.550000 0.000000
-0.025000 0.575000 0.000000
-0.025000 0.600000 0.000000
0.363000 0.625000 0.000000
0.363000 0.650000 0.000000
0.363000 0.675000 0.000000
0.000000 -0.075000 0.000000
0.000000 -0.050000 0.000000
0.000000 -0.025000 0.000000
0.000000 0.000000 0.000000
0.000000 0.025000 0.000000
0.000000 0.050000 0.000000
0.000000 0.075000 0.000000
0.000000 0.100000 0.000000
0.000000 0.125000 0.000000
0.000000 0.150000 0.000000
0.000000 0.175000 0.000000
0.000000 0.200000 0.000000
0.000000 0.225000 0.000000
0.000000 0.250000 0.000000
0.000000 0.275000 0.000000
0.000000 0.300000 0.000000
0.000000 0.325000 0.000000
0.000000 0.350000 0.000000
0.000000 0.375000 0.000000
0.000000 0.400000 0.000000
0.000000 0.425000 0.000000
0.000000 0.450000 0.000000
0.000000 0.475000 0.000000
0.000000 0.500000 0.000000
0.000000 0.525000 0.000000
0.000000 0.550000 0.000000
0.000000 0.575000 0.000000
0.000000 0.600000 0.000000
0.388000 0.625000 0.000000
0.388000 0.650000 0.000000
0.388000 0.675000 0.000000
0.025000 -0.075000 0.000000
0.025000 -0.050000 0.000000
0.025000 -0.025000 0.000000
0.025000 0.000000 0.000000
0.025000 0.025000 0.000000
0.025000 0.050000 0.000000
0.025000 0.075000 0.000000
0.025000 0.100000 0.000000
0.025000 0.125000 0.000000
0.025000 0.150000 0.000000
0.025000 0.175000 0.000000
0.025000 0.200000 0.000000
0.025000 0.225000 0.000000
0.025000 0.250000 0.000000
0.025000 0.275000 0.000000
0.025000 0.300000 0.000000
0.025000 0.325000 0.000000
0.025000 0.350000 0.000000
0.025000 0.375000 0.000000
0.025000 0.400000 0.000000
0.025000 0.425000 0.000000
0.025000 0.450000 0.000000
0.025000 0.475000 0.000000
0.025000 0.500000 0.000000
0.025000 0.525000 0.000000
0.025000 0.550000 0.000000
0.028121 0.572642 0.000000
0.021086 0.600001 0.000000
0.413000 0.625000 0.000000
0.413000 0.650000 0.000000
0.413000 0.675000 0.000000
0.050000 -0.075000 0.000000
0.050000 -0.050000 0.000000
0.050000 -0.025000 0.000000
0.050000 0.000000 0.000000
0.050000 0.025000 0.000000
0.050000 0.050000 0.000000
0.050000 0.075000 0.000000
0.050000 0.100000 0.000000
0.050000 0.125000 0.000000
0.050000 0.150000 0.000000
0.050000 0.175000 0.000000
0.050000 0.200000 0.000000
0.050000 0.225000 0.000000
0.050000 0.250000 0.000000
0.050000 0.275000 0.000000
0.050000 0.300000 0.000000
0.050000 0.325000 0.000000
0.050000 0.350000 0.000000
0.050000 0.375000 0.000000
0.050000 0.400000 0.000000
0.050000 0.425000 0.000000
0.050000 0.450000 0.000000
0.050000 0.475000 0.000000
0.050000 0.500000 0.000000
0.050000 0.525000 0.000000
0.050000 0.550000 0.000000
0.057297 0.573389 0.000000
0.037513 0.600004 0.000000
0.438000 0.625000 0.000000
0.438000 0.650000 0.000000
0.438000 0.675000 0.000000
0.075000 -0.075000 0.000000
0.075000 -0.050000 0.000000
0.075000 -0.025000 0.000000
0.075000 0.000000 0.000000
0.075000 0.025000 0.000000
0.075000 0.050000 0.000000
0.075000 0.075000 0.000000
0.075000 0.100000 0.000000
0.075000 0.125000 0.000000
0.075000 0.150000 0.000000
0.075000 0.175000 0.000000
0.075000 0.200000 0.000000
0.075000 0.225000 0.000000
0.075000 0.250000 0.000000
0.075000 0.275000 0.000000
0.075000 0.300000 0.000000
0.075000 0.325000 0.000000
0.075000 0.350000 0.000000
0.075000 0.375000 0.000000
0.075000 0.400000 0.000000
0.075000 0.425000 0.000000
0.075000 0.450000 0.000000
0.075000 0.475000 0.000000
0.075000 0.500000 0.000000
0.075000 0.525000 0.000000
0.075000 0.550000 0.000000
0.120746 0.573767 0.000000
0.061345 0.599379 0.000000
0.463000 0.625000 0.000000
0.463000 0.650000 0.000000
0.463000 0.675000 0.000000
0.100000 -0.075000 0.000000
0.100000 -0.050000 0.000000
0.100000 -0.025000 0.000000
0.100000 0.000000 0.000000
0.100000 0.025000 0.000000
0.100000 0.050000 0.000000
0.100000 0.075000 0.000000
0.100000 0.100000 0.000000
0.100000 0.125000 0.000000
0.100000 0.150000 0.000000
0.100000 0.175000 0.000000
0.100000 0.200000 0.000000
0.100000 0.225000 0.000000
0.100000 0.250000 0.000000
0.100000 0.275000 0.000000
0.100000 0.300000 0.000000
0.100000 0.325000 0.000000
0.100000 0.350000 0.000000
0.100000 0.375000 0.000000
0.100000 0.400000 0.000000
0.100000 0.425000 0.000000
0.100000 0.450000 0.000000
0.100000 0.475000 0.000000
0.100000 0.500000 0.000000
0.100000 0.525000 0.000000
0.092853 0.559875 0.000000
0.138668 0.551309 0.000000
0.076134 0.590080 0.000000
0.488000 0.625000 0.000000
0.488000 0.650000 0.000000
0.488000 0.675000 0.000000
0.125000 -0.075000 0.000000
0.125000 -0.050000 0.000000
0.125000 -0.025000 0.000000
0.125000 0.000000 0.000000
0.125000 0.025000 0.000000
0.125000 0.050000 0.000000
0.125000 0.075000 0.000000
0.125000 0.100000 0.000000
0.125000 0.125000 0.000000
0.125000 0.150000 0.000000
0.125000 0.175000 0.000000
0.125000 0.200000 0.000000
0.125000 0.225000 0.000000
0.125000 0.250000 0.000000
0.125000 0.275000 0.000000
0.125000 0.300000 0.000000
0.125000 0.325000 0.000000
0.125000 0.350000 0.000000
0.125000 0.375000 0.000000
0.125000 0.400000 0.000000
0.125000 0.425000 0.000000
0.125000 0.450000 0.000000
0.125000 0.475000 0.000000
0.125000 0.500000 0.000000
0.125000 0.525000 0.000000
0.112737 0.547376 0.000000
0.129616 0.596884 0.000000
0.096379 0.590100 0.000000
0.513000 0.625000 0.000000
0.513000 0.650000 0.000000
0.513000 0.675000 0.000000
0.150000 -0.075000 0.000000
0.150000 -0.050000 0.000000
0.150000 -0.025000 0.000000
0.150000 0.000000 0.000000
0.150000 0.025000 0.000000
0.150000 0.050000 0.000000
0.150000 0.075000 0.000000
0.150000 0.100000 0.000000
0.150000 0.125000 0.000000
0.150000 0.150000 0.000000
0.150000 0.175000 0.000000
0.150000 0.200000 0.000000
0.150000 0.225000 0.000000
0.150000 0.250000 0.000000
0.150000 0.275000 0.000000
0.150000 0.300000 0.000000
0.150000 0.325000 0.000000
0.150000 0.350000 0.000000
0.150000 0.375000 0.000000
0.150000 0.400000 0.000000
0.150000 0.425000 0.000000
0.150000 0.450000 0.000000
0.150000 0.475000 0.000000
0.150000 0.500000 0.000000
0.150000 0.525000 0.000000
0.160437 0.550936 0.000000
0.175791 0.577328 0.000000
0.111532 0.600015 0.000000
0.538000 0.625000 0.000000
0.538000 0.650000 0.000000
0.538000 0.675000 0.000000
0.175000 -0.075000 0.000000
0.175000 -0.050000 0.000000
0.175000 -0.025000 0.000000
0.175000 0.000000 0.000000
0.175000 0.025000 0.000000
0.175000 0.050000 0.000000
0.175000 0.075000 0.000000
0.175000 0.100000 0.000000
0.175000 0.125000 0.000000
0.175000 0.150000 0.000000
0.175000 0.175000 0.000000
0.175000 0.200000 0.000000
0.175000 0.225000 0.000000
0.175000 0.250000 0.000000
0.175000 0.275000 0.000000
0.175000 0.300000 0.000000
0.175000 0.325000 0.000000
0.175000 0.350000 0.000000
0.175000 0.375000 0.000000
0.175000 0.400000 0.000000
0.175000 0.425000 0.000000
0.175000 0.450000 0.000000
0.175000 0.475000 0.000000
0.175000 0.500000 0.000000
0.175000 0.525000 0.000000
0.184234 0.549969 0.000000
0.206041 0.572546 0.000000
0.155371 0.600008 0.000000
0.563000 0.625000 0.000000
0.563000 0.650000 0.000000
0.563000 0.675000 0.000000
0.200000 -0.075000 0.000000
0.200000 -0.050000 0.000000
0.200000 -0.025000 0.000000
0.200000 0.000000 0.000000
0.200000 0.025000 0.000000
0.200000 0.050000 0.000000
0.200000 0.075000 0.000000
0.200000 0.100000 0.000000
0.200000 0.125000 0.000000
0.200000 0.150000 0.000000
0.200000 0.175000 0.000000
0.200000 0.200000 0.000000
0.200000 0.225000 0.000000
0.200000 0.250000 0.000000
[...]
<PointData>
<DataArray NumberOfComponents='1' type='Int32' Name='ParticleType' format='ascii'>
4
4
4
4
4
4
4
4
4
4
4
4
4
4
4
4
4
4
4
4
4
4
4
4
4
4
4
4
5
5
5
4
4
4
4
4
4
4
4
4
4
4
4
4
4
4
4
4
4
4
4
4
4
4
4
4
4
4
4
5
5
5
4
4
3
3
3
3
3
3
3
3
3
3
3
3
3
3
3
3
3
3
3
3
3
3
3
3
3
3
5
5
5
4
4
3
3
3
3
3
3
3
3
3
3
3
3
3
3
3
3
3
3
3
3
3
3
3
3
3
3
5
5
5
4
4
3
3
2
2
2
2
2
2
2
2
2
2
2
2
2
2
2
2
2
2
2
1
1
1
0
0
5
5
5
4
4
3
3
2
2
2
2
2
2
2
2
2
2
2
2
2
2
2
2
2
2
2
1
1
1
0
0
5
5
5
4
4
3
3
2
2
2
2
2
2
2
2
2
2
2
2
2
2
2
2
2
2
2
1
1
1
0
0
5
5
5
4
4
3
3
2
2
2
2
2
2
2
2
2
2
2
2
2
2
2
2
2
2
2
1
1
0
0
0
5
5
5
4
4
3
3
2
2
2
2
2
2
2
2
2
2
2
2
2
2
2
2
2
2
2
1
1
0
0
0
5
5
5
4
4
3
3
2
2
2
2
2
2
2
2
2
2
2
2
2
2
2
2
2
2
2
1
1
0
0
0
5
5
5
4
4
3
3
2
2
2
2
2
2
2
2
2
2
2
2
2
2
2
2
2
2
2
1
1
0
0
0
5
5
5
4
4
3
3
2
2
2
2
2
2
2
2
2
2
2
2
2
2
2
2
2
2
2
1
1
0
0
0
5
5
5
4
4
3
3
2
2
2
2
2
2
2
2
2
2
2
2
2
2
2
2
2
2
2
1
1
0
0
0
4
4
3
3
2
2
2
2
2
2
2
2
2
2
2
2
2
2
2
2
2
2
2
1
1
0
0
0
4
4
3
3
2
2
2
2
2
2
2
2
2
2
2
2
2
2
2
2
2
2
2
1
1
0
0
0
4
4
3
3
2
2
2
2
2
2
2
2
2
2
2
2
2
2
2
2
2
2
2
2
1
1
0
0
4
4
3
3
2
2
2
2
2
2
2
2
2
2
2
2
2
2
2
2
2
2
2
2
1
1
0
0
4
4
3
3
2
2
2
2
2
2
2
2
2
2
2
2
2
2
2
2
2
2
2
2
1
1
0
0
4
4
3
3
2
2
2
2
2
2
2
2
2
2
2
2
2
2
2
2
2
2
2
2
1
1
0
0
4
4
3
3
2
2
2
2
2
2
2
2
2
2
2
2
2
2
2
2
2
2
2
2
1
1
0
0
4
4
3
3
2
2
2
2
2
2
2
2
2
2
2
2
2
2
2
2
2
2
2
2
1
1
0
0
4
4
3
3
2
2
2
2
2
2
2
2
2
2
2
2
2
2
2
2
2
2
2
2
1
1
0
0
4
4
3
3
2
2
2
2
2
2
2
2
2
2
2
2
2
2
2
2
2
2
2
2
2
1
1
0
4
4
3
3
2
2
2
2
2
2
2
2
2
2
2
2
2
2
2
2
2
2
2
2
2
1
1
0
4
4
3
3
2
2
2
2
2
2
2
2
2
2
2
2
2
2
2
2
2
2
2
2
2
1
1
0
4
4
3
3
2
2
2
2
2
2
2
2
2
2
2
2
2
2
2
2
2
2
2
2
2
1
1
0
4
4
3
3
2
2
2
2
2
2
2
2
2
2
2
2
2
2
2
2
2
2
2
2
2
2
1
1
4
4
3
3
2
2
2
2
2
2
2
2
2
2
2
2
2
2
2
2
2
2
2
2
2
2
1
1
4
4
3
3
2
2
2
2
2
2
2
2
2
2
2
2
2
2
2
2
2
2
2
2
2
2
2
1
4
4
3
3
2
2
2
2
2
2
2
2
2
2
2
2
2
2
2
2
2
2
2
2
2
2
2
2
4
4
3
3
2
2
2
2
2
2
2
2
2
2
2
2
2
2
2
2
2
2
2
2
2
2
2
2
4
4
3
3
2
2
2
2
2
2
2
2
2
2
2
2
2
2
2
2
2
2
2
2
2
2
2
2
4
4
3
3
2
2
2
2
2
2
2
2
2
2
2
2
2
2
2
2
2
2
2
2
2
2
2
2
4
4
3
3
2
2
2
2
2
2
2
2
2
2
2
2
2
2
2
2
2
2
2
2
2
2
2
2
4
4
3
3
2
2
2
2
2
2
2
2
2
2
2
2
2
2
2
2
2
2
2
2
2
2
2
2
4
4
3
3
2
2
2
2
2
2
2
2
2
2
2
2
2
2
2
2
2
2
2
2
2
2
2
2
4
4
3
3
2
2
2
2
2
2
2
2
2
2
2
2
2
2
2
2
2
2
2
2
2
2
2
2
4
4
3
3
2
2
2
2
2
2
2
2
2
2
2
2
2
2
2
2
2
2
2
2
2
2
2
2
4
4
3
3
2
2
2
2
2
2
2
2
2
2
2
2
2
2
2
2
2
2
2
2
2
2
2
2
4
4
3
3
2
2
2
2
2
2
2
2
2
2
2
2
2
2
2
2
2
2
2
2
2
2
2
2
4
4
3
3
2
2
2
2
2
2
2
2
2
2
2
2
2
2
2
2
2
2
2
2
2
2
2
2
4
4
3
3
2
2
2
2
2
2
2
2
2
2
2
2
2
2
2
2
2
2
2
2
2
2
2
2
4
4
3
3
2
2
2
2
2
2
2
2
2
2
2
2
2
2
2
2
2
2
2
2
2
2
2
2
4
4
3
3
2
2
2
2
2
2
2
2
2
2
2
2
2
2
2
2
2
2
2
2
2
2
2
2
4
4
3
3
3
3
3
3
3
3
3
3
3
3
3
3
3
3
3
3
3
3
3
3
3
3
3
3
4
4
3
3
3
3
3
3
3
3
3
3
3
3
3
3
3
3
3
3
3
3
3
3
3
3
3
3
4
4
4
4
4
4
4
4
4
4
4
4
4
4
4
4
4
4
4
4
4
4
4
4
4
4
4
4
4
4
4
4
4
4
4
4
4
4
4
4
4
4
4
4
4
4
4
4
4
4
4
4
4
4
4
4
</DataArray>
<DataArray NumberOfComponents='1' type='Float32' Name='Velocity' format='ascii'>
0.000000
0.000000
0.000000
0.000000
0.000000
0.000000
0.000000
0.000000
0.000000
0.000000
0.000000
0.000000
0.000000
0.000000
0.000000
0.000000
0.000000
0.000000
0.000000
0.000000
0.000000
0.000000
0.000000
0.000000
0.000000
0.000000
0.000000
0.000000
0.100000
0.100000
0.100000
0.000000
0.000000
0.000000
0.000000
0.000000
0.000000
0.000000
0.000000
0.000000
0.000000
0.000000
0.000000
0.000000
0.000000
0.000000
0.000000
0.000000
0.000000
0.000000
0.000000
0.000000
0.000000
0.000000
0.000000
0.000000
0.000000
0.000000
0.000000
0.100000
0.100000
0.100000
0.000000
0.000000
0.000000
0.000000
0.000000
0.000000
0.000000
0.000000
0.000000
0.000000
0.000000
0.000000
0.000000
0.000000
0.000000
0.000000
0.000000
0.000000
0.000000
0.000000
0.000000
0.000000
0.000000
0.000000
0.000000
0.000000
0.000000
0.000000
0.100000
0.100000
0.100000
0.000000
0.000000
0.000000
0.000000
0.000000
0.000000
0.000000
0.000000
0.000000
0.000000
0.000000
0.000000
0.000000
0.000000
0.000000
0.000000
0.000000
0.000000
0.000000
0.000000
0.000000
0.000000
0.000000
0.000000
0.000000
0.000000
0.000000
0.000000
0.100000
0.100000
0.100000
0.000000
0.000000
0.000000
0.000000
0.000000
0.000000
0.000000
0.000000
0.000000
0.000000
0.000000
0.000000
0.000000
0.000000
0.000000
0.000000
0.000000
0.000000
0.000000
0.000000
0.000000
0.000000
0.000000
0.000000
0.000000
0.000000
0.080181
0.185129
0.100000
0.100000
0.100000
0.000000
0.000000
0.000000
0.000000
0.000000
0.000000
0.000000
0.000000
0.000000
0.000000
0.000000
0.000000
0.000000
0.000000
0.000000
0.000000
0.000000
0.000000
0.000000
0.000000
0.000000
0.000000
0.000000
0.000000
0.000000
0.000000
0.118839
0.205293
0.100000
0.100000
0.100000
0.000000
0.000000
0.000000
0.000000
0.000000
0.000000
0.000000
0.000000
0.000000
0.000000
0.000000
0.000000
0.000000
0.000000
0.000000
0.000000
0.000000
0.000000
0.000000
0.000000
0.000000
0.000000
0.000000
0.000000
0.000000
0.000000
0.118116
0.148490
0.100000
0.100000
0.100000
0.000000
0.000000
0.000000
0.000000
0.000000
0.000000
0.000000
0.000000
0.000000
0.000000
0.000000
0.000000
0.000000
0.000000
0.000000
0.000000
0.000000
0.000000
0.000000
0.000000
0.000000
0.000000
0.000000
0.000000
0.000000
0.130937
0.204900
0.140140
0.100000
0.100000
0.100000
0.000000
0.000000
0.000000
0.000000
0.000000
0.000000
0.000000
0.000000
0.000000
0.000000
0.000000
0.000000
0.000000
0.000000
0.000000
0.000000
0.000000
0.000000
0.000000
0.000000
0.000000
0.000000
0.000000
0.000000
0.000000
0.207240
0.101404
0.206300
0.100000
0.100000
0.100000
0.000000
0.000000
0.000000
0.000000
0.000000
0.000000
0.000000
0.000000
0.000000
0.000000
0.000000
0.000000
0.000000
0.000000
0.000000
0.000000
0.000000
0.000000
0.000000
0.000000
0.000000
0.000000
0.000000
0.000000
0.000000
0.108991
0.049025
1.031037
0.100000
0.100000
0.100000
0.000000
0.000000
0.000000
0.000000
0.000000
0.000000
0.000000
0.000000
0.000000
0.000000
0.000000
0.000000
0.000000
0.000000
0.000000
0.000000
0.000000
0.000000
0.000000
0.000000
0.000000
0.000000
0.000000
0.000000
0.000000
0.157408
0.291756
0.458393
0.100000
0.100000
0.100000
0.000000
0.000000
0.000000
0.000000
0.000000
0.000000
0.000000
0.000000
0.000000
0.000000
0.000000
0.000000
0.000000
0.000000
0.000000
0.000000
0.000000
0.000000
0.000000
0.000000
0.000000
0.000000
0.000000
0.000000
0.000000
0.089134
1.343955
0.154933
0.100000
0.100000
0.100000
0.000000
0.000000
0.000000
0.000000
0.000000
0.000000
0.000000
0.000000
0.000000
0.000000
0.000000
0.000000
0.000000
0.000000
0.000000
0.000000
0.000000
0.000000
0.000000
0.000000
0.000000
0.000000
0.000000
0.000000
0.000000
0.237529
0.195080
0.132450
0.000000
0.000000
0.000000
0.000000
0.000000
0.000000
0.000000
0.000000
0.000000
0.000000
0.000000
0.000000
0.000000
0.000000
0.000000
0.000000
0.000000
0.000000
0.000000
0.000000
0.000000
0.000000
0.000000
0.000000
0.000000
0.253572
1.255331
1.510471
0.000000
0.000000
0.000000
0.000000
0.000000
0.000000
0.000000
0.000000
0.000000
0.000000
0.000000
0.000000
0.000000
0.000000
0.000000
0.000000
0.000000
0.000000
0.000000
0.000000
0.000000
0.000000
0.000000
0.000000
0.000000
0.085580
0.075786
0.184146
0.000000
0.000000
0.000000
0.000000
0.000000
0.000000
0.000000
0.000000
0.000000
0.000000
0.000000
0.000000
0.000000
0.000000
0.000000
0.000000
0.000000
0.000000
0.000000
0.000000
0.000000
0.000000
0.000000
0.000000
0.000000
0.000000
0.161519
0.137657
0.000000
0.000000
0.000000
0.000000
0.000000
0.000000
0.000000
0.000000
0.000000
0.000000
0.000000
0.000000
0.000000
0.000000
0.000000
0.000000
0.000000
0.000000
0.000000
0.000000
0.000000
0.000000
0.000000
0.000000
0.000000
0.000000
0.008677
0.146865
0.000000
0.000000
0.000000
0.000000
0.000000
0.000000
0.000000
0.000000
0.000000
0.000000
0.000000
0.000000
0.000000
0.000000
0.000000
0.000000
0.000000
0.000000
0.000000
0.000000
0.000000
0.000000
0.000000
0.000000
0.000000
0.000000
0.065298
0.054465
0.000000
0.000000
0.000000
0.000000
0.000000
0.000000
0.000000
0.000000
0.000000
0.000000
0.000000
0.000000
0.000000
0.000000
0.000000
0.000000
0.000000
0.000000
0.000000
0.000000
0.000000
0.000000
0.000000
0.000000
0.000000
0.000000
0.057142
0.041651
0.000000
0.000000
0.000000
0.000000
0.000000
0.000000
0.000000
0.000000
0.000000
0.000000
0.000000
0.000000
0.000000
0.000000
0.000000
0.000000
0.000000
0.000000
0.000000
0.000000
0.000000
0.000000
0.000000
0.000000
0.000000
0.000000
0.076937
0.038956
0.000000
0.000000
0.000000
0.000000
0.000000
0.000000
0.000000
0.000000
0.000000
0.000000
0.000000
0.000000
0.000000
0.000000
0.000000
0.000000
0.000000
0.000000
0.000000
0.000000
0.000000
0.000000
0.000000
0.000000
0.000000
0.000000
0.065510
0.034174
0.000000
0.000000
0.000000
0.000000
0.000000
0.000000
0.000000
0.000000
0.000000
0.000000
0.000000
0.000000
0.000000
0.000000
0.000000
0.000000
0.000000
0.000000
0.000000
0.000000
0.000000
0.000000
0.000000
0.000000
0.000000
0.000000
0.102370
0.048569
0.000000
0.000000
0.000000
0.000000
0.000000
0.000000
0.000000
0.000000
0.000000
0.000000
0.000000
0.000000
0.000000
0.000000
0.000000
0.000000
0.000000
0.000000
0.000000
0.000000
0.000000
0.000000
0.000000
0.000000
0.000000
0.000000
0.000000
0.056346
0.000000
0.000000
0.000000
0.000000
0.000000
0.000000
0.000000
0.000000
0.000000
0.000000
0.000000
0.000000
0.000000
0.000000
0.000000
0.000000
0.000000
0.000000
0.000000
0.000000
0.000000
0.000000
0.000000
0.000000
0.000000
0.000000
0.000000
0.041863
0.000000
0.000000
0.000000
0.000000
0.000000
0.000000
0.000000
0.000000
0.000000
0.000000
0.000000
0.000000
0.000000
0.000000
0.000000
0.000000
0.000000
0.000000
0.000000
0.000000
0.000000
0.000000
0.000000
0.000000
0.000000
0.000000
0.000000
0.091023
0.000000
0.000000
0.000000
0.000000
0.000000
0.000000
0.000000
0.000000
0.000000
0.000000
0.000000
0.000000
0.000000
0.000000
0.000000
0.000000
0.000000
0.000000
0.000000
0.000000
0.000000
0.000000
0.000000
0.000000
0.000000
0.000000
0.000000
0.136335
0.000000
0.000000
0.000000
0.000000
0.000000
0.000000
0.000000
0.000000
0.000000
0.000000
0.000000
0.000000
0.000000
0.000000
0.000000
0.000000
0.000000
0.000000
0.000000
0.000000
0.000000
0.000000
0.000000
0.000000
0.000000
0.000000
0.000000
0.000000
0.000000
0.000000
0.000000
0.000000
0.000000
0.000000
0.000000
0.000000
0.000000
0.000000
0.000000
0.000000
0.000000
0.000000
0.000000
0.000000
0.000000
0.000000
0.000000
0.000000
0.000000
0.000000
0.000000
0.000000
0.000000
0.000000
0.000000
0.000000
0.000000
0.000000
0.000000
0.000000
0.000000
0.000000
0.000000
0.000000
0.000000
0.000000
0.000000
0.000000
0.000000
0.000000
0.000000
0.000000
0.000000
0.000000
0.000000
0.000000
0.000000
0.000000
0.000000
0.000000
0.000000
0.000000
0.000000
0.000000
0.000000
0.000000
0.000000
0.000000
0.000000
0.000000
0.000000
0.000000
0.000000
0.000000
0.000000
0.000000
0.000000
0.000000
0.000000
0.000000
0.000000
0.000000
0.000000
0.000000
0.000000
0.000000
0.000000
0.000000
0.000000
0.000000
0.000000
0.000000
0.000000
0.000000
0.000000
0.000000
0.000000
0.000000
0.000000
0.000000
0.000000
0.000000
0.000000
0.000000
0.000000
0.000000
0.000000
0.000000
0.000000
0.000000
0.000000
0.000000
0.000000
0.000000
0.000000
0.000000
0.000000
0.000000
0.000000
0.000000
0.000000
0.000000
0.000000
0.000000
0.000000
0.000000
0.000000
0.000000
0.000000
0.000000
0.000000
0.000000
0.000000
0.000000
0.000000
0.000000
0.000000
0.000000
0.000000
0.000000
0.000000
0.000000
0.000000
0.000000
0.000000
0.000000
0.000000
0.000000
0.000000
0.000000
0.000000
0.000000
0.000000
0.000000
0.000000
0.000000
0.000000
0.000000
0.000000
0.000000
0.000000
0.000000
0.000000
0.000000
0.000000
0.000000
0.000000
0.000000
0.000000
0.000000
0.000000
0.000000
0.000000
0.000000
0.000000
0.000000
0.000000
0.000000
0.000000
0.000000
0.000000
0.000000
0.000000
0.000000
0.000000
0.000000
0.000000
0.000000
0.000000
0.000000
0.000000
0.000000
0.000000
0.000000
0.000000
0.000000
0.000000
0.000000
0.000000
0.000000
0.000000
0.000000
0.000000
0.000000
0.000000
0.000000
0.000000
0.000000
0.000000
0.000000
0.000000
0.000000
0.000000
0.000000
0.000000
0.000000
0.000000
0.000000
0.000000
0.000000
0.000000
0.000000
0.000000
0.000000
0.000000
0.000000
0.000000
0.000000
0.000000
0.000000
0.000000
0.000000
0.000000
0.000000
0.000000
0.000000
0.000000
0.000000
0.000000
0.000000
0.000000
0.000000
0.000000
0.000000
0.000000
0.000000
0.000000
0.000000
0.000000
0.000000
0.000000
0.000000
0.000000
0.000000
0.000000
0.000000
0.000000
0.000000
0.000000
0.000000
0.000000
0.000000
0.000000
0.000000
0.000000
0.000000
0.000000
0.000000
0.000000
0.000000
0.000000
0.000000
0.000000
0.000000
0.000000
0.000000
0.000000
0.000000
0.000000
0.000000
0.000000
0.000000
0.000000
0.000000
0.000000
0.000000
0.000000
0.000000
0.000000
0.000000
0.000000
0.000000
0.000000
0.000000
0.000000
0.000000
0.000000
0.000000
0.000000
0.000000
0.000000
0.000000
0.000000
0.000000
0.000000
0.000000
0.000000
0.000000
0.000000
0.000000
0.000000
0.000000
0.000000
0.000000
0.000000
0.000000
0.000000
0.000000
0.000000
0.000000
0.000000
0.000000
0.000000
0.000000
0.000000
0.000000
0.000000
0.000000
0.000000
0.000000
0.000000
0.000000
0.000000
0.000000
0.000000
0.000000
0.000000
0.000000
0.000000
0.000000
0.000000
0.000000
0.000000
0.000000
0.000000
0.000000
0.000000
0.000000
0.000000
0.000000
0.000000
0.000000
0.000000
0.000000
0.000000
0.000000
0.000000
0.000000
0.000000
0.000000
0.000000
0.000000
0.000000
0.000000
0.000000
0.000000
0.000000
0.000000
0.000000
0.000000
0.000000
0.000000
0.000000
0.000000
0.000000
0.000000
0.000000
0.000000
0.000000
0.000000
0.000000
0.000000
0.000000
0.000000
0.000000
0.000000
0.000000
0.000000
0.000000
0.000000
0.000000
0.000000
0.000000
0.000000
0.000000
0.000000
0.000000
0.000000
0.000000
0.000000
0.000000
0.000000
0.000000
0.000000
0.000000
0.000000
0.000000
0.000000
0.000000
0.000000
0.000000
0.000000
0.000000
0.000000
0.000000
0.000000
0.000000
0.000000
0.000000
0.000000
0.000000
0.000000
0.000000
0.000000
0.000000
0.000000
0.000000
0.000000
0.000000
0.000000
0.000000
0.000000
0.000000
0.000000
0.000000
0.000000
0.000000
0.000000
0.000000
0.000000
0.000000
0.000000
0.000000
0.000000
0.000000
0.000000
0.000000
0.000000
0.000000
0.000000
0.000000
0.000000
0.000000
0.000000
0.000000
0.000000
0.000000
0.000000
0.000000
0.000000
0.000000
0.000000
0.000000
0.000000
0.000000
0.000000
0.000000
0.000000
0.000000
0.000000
0.000000
0.000000
0.000000
0.000000
0.000000
0.000000
0.000000
0.000000
0.000000
0.000000
0.000000
0.000000
0.000000
0.000000
0.000000
0.000000
0.000000
0.000000
0.000000
0.000000
0.000000
0.000000
0.000000
0.000000
0.000000
0.000000
0.000000
0.000000
0.000000
0.000000
0.000000
0.000000
0.000000
0.000000
0.000000
0.000000
0.000000
0.000000
0.000000
0.000000
0.000000
0.000000
0.000000
0.000000
0.000000
0.000000
0.000000
0.000000
0.000000
0.000000
0.000000
0.000000
0.000000
0.000000
0.000000
0.000000
0.000000
0.000000
0.000000
0.000000
0.000000
0.000000
0.000000
0.000000
0.000000
0.000000
0.000000
0.000000
0.000000
0.000000
0.000000
0.000000
0.000000
0.000000
0.000000
0.000000
0.000000
0.000000
0.000000
0.000000
0.000000
0.000000
0.000000
0.000000
0.000000
0.000000
0.000000
0.000000
0.000000
0.000000
0.000000
0.000000
0.000000
0.000000
0.000000
0.000000
0.000000
0.000000
0.000000
0.000000
0.000000
0.000000
0.000000
0.000000
0.000000
0.000000
0.000000
0.000000
0.000000
0.000000
0.000000
0.000000
0.000000
0.000000
0.000000
0.000000
0.000000
0.000000
0.000000
0.000000
0.000000
0.000000
0.000000
0.000000
0.000000
0.000000
</DataArray>
<DataArray NumberOfComponents='1' type='Float32' Name='Pressure' format='ascii'>
0.000000
0.000000
0.000000
0.000000
0.000000
0.000000
0.000000
0.000000
0.000000
0.000000
0.000000
0.000000
0.000000
0.000000
0.000000
0.000000
0.000000
0.000000
0.000000
0.000000
0.000000
0.000000
0.000000
0.000000
0.000000
0.000000
0.000000
0.000000
0.000000
0.000000
0.000000
0.000000
0.000000
0.000000
0.000000
0.000000
0.000000
0.000000
0.000000
0.000000
0.000000
0.000000
0.000000
0.000000
0.000000
0.000000
0.000000
0.000000
0.000000
0.000000
0.000000
0.000000
0.000000
0.000000
0.000000
0.000000
0.000000
0.000000
0.000000
0.000000
0.000000
0.000000
0.000000
0.000000
348.918152
350.266144
352.864319
357.091431
362.893585
370.269714
379.206299
389.685486
401.680725
415.151764
430.035522
446.228729
463.555939
481.709259
500.136230
517.830444
532.948914
542.086731
539.058044
512.028809
439.331696
274.880676
0.000000
0.000000
0.000000
0.000000
0.000000
0.000000
0.000000
0.000000
0.000000
347.757599
349.099731
351.694885
355.929810
361.740295
369.128845
378.082794
388.586548
400.617371
414.142059
429.110474
445.443604
463.011383
481.590881
500.787842
519.888428
537.587402
551.465454
557.213806
546.326355
508.364655
405.640137
134.623398
0.000000
0.000000
0.000000
0.000000
0.000000
0.000000
0.000000
0.000000
345.395447
346.740692
349.340637
353.585602
359.411591
366.822418
375.807434
386.354736
398.447845
412.064941
427.176727
443.743164
461.707306
480.983643
501.434845
522.825378
544.730042
566.328430
586.197754
601.140381
612.299194
594.218201
956.790039
554.250366
0.000000
0.000000
0.000000
0.000000
0.000000
0.000000
0.000000
341.490051
342.836548
345.444550
349.704956
355.554535
362.998901
372.030243
382.641174
394.822876
408.566925
423.868530
440.733246
459.189728
479.314087
501.274231
525.409119
552.363953
583.302368
620.210266
665.151611
725.868347
774.170898
974.922241
376.197906
838.605713
0.000000
0.000000
0.000000
0.000000
0.000000
0.000000
336.081635
337.433105
340.052063
344.332123
350.211334
357.697388
366.785248
377.471649
389.754120
403.634644
419.126740
436.269348
455.153992
475.976349
499.133667
525.406982
556.300781
594.653381
645.534180
718.656677
822.625122
925.153076
1140.071899
762.793945
733.606323
0.000000
0.000000
0.000000
0.000000
0.000000
0.000000
329.155487
330.512543
333.144135
337.446747
343.359741
350.892883
360.043671
370.811646
383.197693
397.207825
412.861023
430.204803
449.346039
470.510254
494.155670
521.191406
553.409424
594.306091
650.855530
737.532471
875.075745
1222.168701
1082.574341
1292.630249
661.747070
0.000000
0.000000
0.000000
0.000000
0.000000
0.000000
320.702972
322.065887
324.710785
329.037231
334.986115
342.569336
351.786530
362.638916
375.127411
389.255066
405.031982
422.486023
441.685089
462.780029
486.089722
512.263000
542.618347
579.757629
629.598938
702.791565
832.476929
1226.267212
1916.001465
649.260681
0.000000
367.217468
0.000000
0.000000
0.000000
0.000000
0.000000
310.713287
312.081573
314.739227
319.088989
325.073608
332.707611
341.993011
352.932190
365.524536
379.765656
395.646881
413.156494
432.283569
453.027405
475.417816
499.547791
525.666565
554.151001
586.283020
620.787537
683.438660
394.708984
1293.951172
757.419617
309.352631
0.000000
0.000000
0.000000
0.000000
0.000000
0.000000
299.175659
300.548126
303.216522
307.586823
313.604492
321.287445
330.641205
341.670685
354.374695
368.742035
384.744568
402.327393
421.392090
441.768433
463.162689
485.050171
506.493195
525.477600
539.316528
532.239685
526.128723
400.435211
1018.182922
501.267365
0.000000
0.000000
0.000000
0.000000
0.000000
0.000000
0.000000
286.080292
287.454712
290.129944
294.515198
300.559601
308.286011
317.705536
328.828583
341.657837
356.181488
372.361664
390.115570
409.283752
429.573883
450.460510
470.988129
489.441681
502.346741
504.215057
475.666687
425.291443
0.000000
282.357208
1039.790161
0.000000
310.357361
0.000000
0.000000
0.000000
0.000000
0.000000
271.419373
272.792297
275.468109
279.858887
285.918701
293.677277
303.154205
314.369812
327.337524
342.055817
358.494751
376.573639
396.123718
416.823975
438.090881
458.873962
477.341888
490.014557
492.104523
467.261047
435.724701
185.898071
514.676758
0.000000
0.000000
0.000000
0.000000
0.000000
255.188812
256.555267
259.222351
263.604187
269.661346
277.432220
286.948181
298.244415
311.353058
326.295776
343.071594
361.637024
381.873901
403.536743
426.167694
448.951477
470.528656
488.462067
500.281647
495.820892
504.483582
479.891937
1618.694336
0.000000
0.000000
0.000000
0.000000
0.000000
237.389969
238.743164
241.388535
245.740860
251.768494
259.520264
269.042023