<?xml version='1.0' encoding='UTF-8'?>
<VTKFile xmlns='VTK' byte_order='LittleEndian' version='0.1' type='UnstructuredGrid'>
<UnstructuredGrid>
<Piece NumberOfCells='1380' NumberOfPoints='1380'>
<Points>
<DataArray NumberOfComponents='3' type='Float32' Name='Position' format='ascii'>
-0.075000 -0.075000 0.000000
-0.075000 -0.050000 0.000000
-0.075000 -0.025000 0.000000
-0.075000 0.000000 0.000000
-0.075000 0.025000 0.000000
-0.075000 0.050000 0.000000
-0.075000 0.075000 0.000000
-0.075000 0.100000 0.000000
-0.075000 0.125000 0.000000
-0.075000 0.150000 0.000000
-0.075000 0.175000 0.000000
-0.075000 0.200000 0.000000
-0.075000 0.225000 0.000000
-0.075000 0.250000 0.000000
-0.075000 0.275000 0.000000
-0.075000 0.300000 0.000000
-0.075000 0.325000 0.000000
-0.075000 0.350000 0.000000
-0.075000 0.375000 0.000000
-0.075000 0.400000 0.000000
-0.075000 0.425000 0.000000
-0.075000 0.450000 0.000000
-0.075000 0.475000 0.000000
-0.075000 0.500000 0.000000
-0.075000 0.525000 0.000000
-0.075000 0.550000 0.000000
-0.075000 0.575000 0.000000
-0.075000 0.600000 0.000000
0.849000 0.625000 0.000000
0.849000 0.650000 0.000000
0.849000 0.675000 0.000000
-0.050000 -0.075000 0.000000
-0.050000 -0.050000 0.000000
-0.050000 -0.025000 0.000000
-0.050000 0.000000 0.000000
-0.050000 0.025000 0.000000
-0.050000 0.050000 0.000000
-0.050000 0.075000 0.000000
-0.050000 0.100000 0.000000
-0.050000 0.125000 0.000000
-0.050000 0.150000 0.000000
-0.050000 0.175000 0.000000
-0.050000 0.200000 0.000000
-0.050000 0.225000 0.000000
-0.050000 0.250000 0.000000
-0.050000 0.275000 0.000000
-0.050000 0.300000 0.000000
-0.050000 0.325000 0.000000
-0.050000 0.350000 0.000000
-0.050000 0.375000 0.000000
-0.050000 0.400000 0.000000
-0.050000 0.425000 0.000000
-0.050000 0.450000 0.000000
-0.050000 0.475000 0.000000
-0.050000 0.500000 0.000000
-0.050000 0.525000 0.000000
-0.050000 0.550000 0.000000
-0.050000 0.575000 0.000000
-0.050000 0.600000 0.000000
0.874000 0.625000 0.000000
0.874000 0.650000 0.000000
0.874000 0.675000 0.000000
-0.025000 -0.075000 0.000000
-0.025000 -0.050000 0.000000
-0.025000 -0.025000 0.000000
-0.025000 0.000000 0.000000
-0.025000 0.025000 0.000000
-0.025000 0.050000 0.000000
-0.025000 0.075000 0.000000
-0.025000 0.100000 0.000000
-0.025000 0.125000 0.000000
-0.025000 0.150000 0.000000
-0.025000 0.175000 0.000000
-0.025000 0.200000 0.000000
-0.025000 0.225000 0.000000
-0.025000 0.250000 0.000000
-0.025000 0.275000 0.000000
-0.025000 0.300000 0.000000
-0.025000 0.325000 0.000000
-0.025000 0.350000 0.000000
-0.025000 0.375000 0.000000
-0.025000 0.400000 0.000000
-0.025000 0.425000 0.000000
-0.025000 0.450000 0.000000
-0.025000 0.475000 0.000000
-0.025000 0.500000 0.000000
-0.025000 0.525000 0.000000
-0.025000 0.550000 0.000000
-0.025000 0.575000 0.000000
-0.025000 0.600000 0.000000
0.899000 0.625000 0.000000
0.899000 0.650000 0.000000
0.899000 0.675000 0.000000
0.000000 -0.075000 0.000000
0.000000 -0.050000 0.000000
0.000000 -0.025000 0.000000
0.000000 0.000000 0.000000
0.000000 0.025000 0.000000
0.000000 0.050000 0.000000
0.000000 0.075000 0.000000
0.000000 0.100000 0.000000
0.000000 0.125000 0.000000
0.000000 0.150000 0.000000
0.000000 0.175000 0.000000
0.000000 0.200000 0.000000
0.000000 0.225000 0.000000
0.000000 0.250000 0.000000
0.000000 0.275000 0.000000
0.000000 0.300000 0.000000
0.000000 0.325000 0.000000
0.000000 0.350000 0.000000
0.000000 0.375000 0.000000
0.000000 0.400000 0.000000
0.000000 0.425000 0.000000
0.000000 0.450000 0.000000
0.000000 0.475000 0.000000
0.000000 0.500000 0.000000
0.000000 0.525000 0.000000
0.000000 0.550000 0.000000
0.000000 0.575000 0.000000
0.000000 0.600000 0.000000
0.924000 0.625000 0.000000
0.924000 0.650000 0.000000
0.924000 0.675000 0.000000
0.025000 -0.075000 0.000000
0.025000 -0.050000 0.000000
0.025000 -0.025000 0.000000
0.025000 0.000000 0.000000
0.025000 0.025000 0.000000
0.025000 0.050000 0.000000
0.025000 0.075000 0.000000
0.025000 0.100000 0.000000
0.025000 0.125000 0.000000
0.025000 0.150000 0.000000
0.025000 0.175000 0.000000
0.025000 0.200000 0.000000
0.025000 0.225000 0.000000
0.025000 0.250000 0.000000
0.025000 0.275000 0.000000
0.025000 0.300000 0.000000
0.025000 0.325000 0.000000
0.025000 0.350000 0.000000
0.025000 0.375000 0.000000
0.025000 0.400000 0.000000
0.025000 0.425000 0.000000
0.025000 0.450000 0.000000
0.025000 0.475000 0.000000
0.025000 0.500000 0.000000
0.025000 0.525000 0.000000
0.025000 0.550000 0.000000
0.030679 0.574398 0.000000
0.016716 0.600007 0.000000
0.949000 0.625000 0.000000
0.949000 0.650000 0.000000
0.949000 0.675000 0.000000
0.050000 -0.075000 0.000000
0.050000 -0.050000 0.000000
0.050000 -0.025000 0.000000
0.050000 0.000000 0.000000
0.050000 0.025000 0.000000
0.050000 0.050000 0.000000
0.050000 0.075000 0.000000
0.050000 0.100000 0.000000
0.050000 0.125000 0.000000
0.050000 0.150000 0.000000
0.050000 0.175000 0.000000
0.050000 0.200000 0.000000
0.050000 0.225000 0.000000
0.050000 0.250000 0.000000
0.050000 0.275000 0.000000
0.050000 0.300000 0.000000
0.050000 0.325000 0.000000
0.050000 0.350000 0.000000
0.050000 0.375000 0.000000
0.050000 0.400000 0.000000
0.050000 0.425000 0.000000
0.050000 0.450000 0.000000
0.050000 0.475000 0.000000
0.050000 0.500000 0.000000
0.050000 0.525000 0.000000
0.092075 0.549573 0.000000
0.130448 0.600004 0.000000
0.062227 0.578387 0.000000
0.974000 0.625000 0.000000
0.974000 0.650000 0.000000
0.974000 0.675000 0.000000
0.075000 -0.075000 0.000000
0.075000 -0.050000 0.000000
0.075000 -0.025000 0.000000
0.075000 0.000000 0.000000
0.075000 0.025000 0.000000
0.075000 0.050000 0.000000
0.075000 0.075000 0.000000
0.075000 0.100000 0.000000
0.075000 0.125000 0.000000
0.075000 0.150000 0.000000
0.075000 0.175000 0.000000
0.075000 0.200000 0.000000
0.075000 0.225000 0.000000
0.075000 0.250000 0.000000
0.075000 0.275000 0.000000
0.075000 0.300000 0.000000
0.075000 0.325000 0.000000
0.075000 0.350000 0.000000
0.075000 0.375000 0.000000
0.075000 0.400000 0.000000
0.075000 0.425000 0.000000
0.075000 0.450000 0.000000
0.075000 0.475000 0.000000
0.075000 0.500000 0.000000
0.075000 0.525000 0.000000
0.113400 0.553413 0.000000
0.073973 0.600044 0.000000
0.033952 0.600014 0.000000
0.999000 0.625000 0.000000
0.999000 0.650000 0.000000
0.999000 0.675000 0.000000
0.100000 -0.075000 0.000000
0.100000 -0.050000 0.000000
0.100000 -0.025000 0.000000
0.100000 0.000000 0.000000
0.100000 0.025000 0.000000
0.100000 0.050000 0.000000
0.100000 0.075000 0.000000
0.100000 0.100000 0.000000
0.100000 0.125000 0.000000
0.100000 0.150000 0.000000
0.100000 0.175000 0.000000
0.100000 0.200000 0.000000
0.100000 0.225000 0.000000
0.100000 0.250000 0.000000
0.100000 0.275000 0.000000
0.100000 0.300000 0.000000
0.100000 0.325000 0.000000
0.100000 0.350000 0.000000
0.100000 0.375000 0.000000
0.100000 0.400000 0.000000
0.100000 0.425000 0.000000
0.100000 0.450000 0.000000
0.100000 0.475000 0.000000
0.100000 0.500000 0.000000
0.100000 0.525000 0.000000
0.182035 0.600000 0.000000
0.114951 0.600017 0.000000
0.069387 0.551840 0.000000
1.024000 0.625000 0.000000
1.024000 0.650000 0.000000
1.024000 0.675000 0.000000
0.125000 -0.075000 0.000000
0.125000 -0.050000 0.000000
0.125000 -0.025000 0.000000
0.125000 0.000000 0.000000
0.125000 0.025000 0.000000
0.125000 0.050000 0.000000
0.125000 0.075000 0.000000
0.125000 0.100000 0.000000
0.125000 0.125000 0.000000
0.125000 0.150000 0.000000
0.125000 0.175000 0.000000
0.125000 0.200000 0.000000
0.125000 0.225000 0.000000
0.125000 0.250000 0.000000
0.125000 0.275000 0.000000
0.125000 0.300000 0.000000
0.125000 0.325000 0.000000
0.125000 0.350000 0.000000
0.125000 0.375000 0.000000
0.125000 0.400000 0.000000
0.125000 0.425000 0.000000
0.125000 0.450000 0.000000
0.125000 0.475000 0.000000
0.125000 0.500000 0.000000
0.125000 0.525000 0.000000
0.168344 0.600000 0.000000
0.047389 0.551559 0.000000
0.127536 0.573253 0.000000
1.049000 0.625000 0.000000
1.049000 0.650000 0.000000
1.049000 0.675000 0.000000
0.150000 -0.075000 0.000000
0.150000 -0.050000 0.000000
0.150000 -0.025000 0.000000
0.150000 0.000000 0.000000
0.150000 0.025000 0.000000
0.150000 0.050000 0.000000
0.150000 0.075000 0.000000
0.150000 0.100000 0.000000
0.150000 0.125000 0.000000
0.150000 0.150000 0.000000
0.150000 0.175000 0.000000
0.150000 0.200000 0.000000
0.150000 0.225000 0.000000
0.150000 0.250000 0.000000
0.150000 0.275000 0.000000
0.150000 0.300000 0.000000
0.150000 0.325000 0.000000
0.150000 0.350000 0.000000
0.150000 0.375000 0.000000
0.150000 0.400000 0.000000
0.150000 0.425000 0.000000
0.150000 0.450000 0.000000
0.150000 0.475000 0.000000
0.150000 0.500000 0.000000
0.150000 0.525000 0.000000
0.149489 0.591789 0.000000
0.222696 0.597838 0.000000
0.092262 0.581165 0.000000
1.074000 0.625000 0.000000
1.074000 0.650000 0.000000
1.074000 0.675000 0.000000
0.175000 -0.075000 0.000000
0.175000 -0.050000 0.000000
0.175000 -0.025000 0.000000
0.175000 0.000000 0.000000
0.175000 0.025000 0.000000
0.175000 0.050000 0.000000
0.175000 0.075000 0.000000
0.175000 0.100000 0.000000
0.175000 0.125000 0.000000
0.175000 0.150000 0.000000
0.175000 0.175000 0.000000
0.175000 0.200000 0.000000
0.175000 0.225000 0.000000
0.175000 0.250000 0.000000
0.175000 0.275000 0.000000
0.175000 0.300000 0.000000
0.175000 0.325000 0.000000
0.175000 0.350000 0.000000
0.175000 0.375000 0.000000
0.175000 0.400000 0.000000
0.175000 0.425000 0.000000
0.175000 0.450000 0.000000
0.175000 0.475000 0.000000
0.175000 0.500000 0.000000
0.175000 0.525000 0.000000
0.164535 0.572885 0.000000
0.318508 0.600000 0.000000
0.053747 0.600028 0.000000
1.099000 0.625000 0.000000
1.099000 0.650000 0.000000
1.099000 0.675000 0.000000
0.200000 -0.075000 0.000000
0.200000 -0.050000 0.000000
0.200000 -0.025000 0.000000
0.200000 0.000000 0.000000
0.200000 0.025000 0.000000
0.200000 0.050000 0.000000
0.200000 0.075000 0.000000
0.200000 0.100000 0.000000
0.200000 0.125000 0.000000
0.200000 0.150000 0.000000
0.200000 0.175000 0.000000
0.200000 0.200000 0.000000
0.200000 0.225000 0.000000
0.200000 0.250000 0.000000
[...]
<PointData>
<DataArray NumberOfComponents='1' type='Int32' Name='ParticleType' format='ascii'>
4
4
4
4
4
4
4
4
4
4
4
4
4
4
4
4
4
4
4
4
4
4
4
4
4
4
4
4
5
5
5
4
4
4
4
4
4
4
4
4
4
4
4
4
4
4
4
4
4
4
4
4
4
4
4
4
4
4
4
5
5
5
4
4
3
3
3
3
3
3
3
3
3
3
3
3
3
3
3
3
3
3
3
3
3
3
3
3
3
3
5
5
5
4
4
3
3
3
3
3
3
3
3
3
3
3
3
3
3
3
3
3
3
3
3
3
3
3
3
3
3
5
5
5
4
4
3
3
1
1
1
1
1
1
1
1
1
2
1
1
1
1
1
1
1
1
1
1
1
1
0
0
5
5
5
4
4
3
3
1
1
2
2
2
2
2
2
2
2
2
2
2
2
2
2
2
2
1
1
1
0
0
0
5
5
5
4
4
3
3
1
2
2
2
2
2
2
2
2
2
2
2
2
2
2
2
2
2
1
1
1
0
0
0
5
5
5
4
4
3
3
1
2
2
2
2
2
2
2
2
2
2
2
2
2
2
2
2
2
1
1
1
0
0
0
5
5
5
4
4
3
3
1
2
2
2
2
2
2
2
2
2
2
2
2
2
2
2
2
2
1
1
1
0
0
0
5
5
5
4
4
3
3
2
2
2
2
2
2
2
2
2
2
2
2
2
2
2
2
2
2
1
1
1
0
0
0
5
5
5
4
4
3
3
2
2
2
2
2
2
2
2
2
2
2
2
2
2
2
2
2
2
1
1
1
0
0
0
5
5
5
4
4
3
3
2
2
2
2
2
2
2
2
2
2
2
2
2
2
2
2
2
2
1
1
1
0
0
0
5
5
5
4
4
3
3
2
2
2
2
2
2
2
2
2
2
2
2
2
2
2
2
2
2
1
1
1
0
0
0
4
4
3
3
2
2
2
2
2
2
2
2
2
2
2
2
2
2
2
2
2
2
1
1
0
0
0
0
4
4
3
3
2
2
2
2
2
2
2
2
2
2
2
2
2
2
2
2
2
2
1
1
0
0
0
0
4
4
3
3
2
2
2
2
2
2
2
2
2
2
2
2
2
2
2
2
2
2
1
1
0
0
0
0
4
4
3
3
2
2
2
2
2
2
2
2
2
2
2
2
2
2
2
2
2
2
1
1
0
0
0
0
4
4
3
3
2
2
2
2
2
2
2
2
2
2
2
2
2
2
2
2
2
2
1
1
0
0
0
0
4
4
3
3
2
2
2
2
2
2
2
2
2
2
2
2
2
2
2
2
2
2
1
1
1
0
0
0
4
4
3
3
2
2
2
2
2
2
2
2
2
2
2
2
2
2
2
2
2
2
1
1
1
0
0
0
4
4
3
3
2
2
2
2
2
2
2
2
2
2
2
2
2
2
2
2
2
2
1
1
1
0
0
0
4
4
3
3
2
2
2
2
2
2
2
2
2
2
2
2
2
2
2
2
2
2
1
1
1
0
0
0
4
4
3
3
2
2
2
2
2
2
2
2
2
2
2
2
2
2
2
2
2
2
1
1
1
0
0
0
4
4
3
3
2
2
2
2
2
2
2
2
2
2
2
2
2
2
2
2
2
2
1
1
1
0
0
0
4
4
3
3
2
2
2
2
2
2
2
2
2
2
2
2
2
2
2
2
2
2
1
1
1
0
0
0
4
4
3
3
2
2
2
2
2
2
2
2
2
2
2
2
2
2
2
2
2
2
1
1
1
0
0
0
4
4
3
3
2
2
2
2
2
2
2
2
2
2
2
2
2
2
2
2
2
2
1
1
1
0
0
0
4
4
3
3
2
2
2
2
2
2
2
2
2
2
2
2
2
2
2
2
2
2
1
1
1
0
0
0
4
4
3
3
2
2
2
2
2
2
2
2
2
2
2
2
2
2
2
2
2
2
1
1
1
0
0
0
4
4
3
3
2
2
2
2
2
2
2
2
2
2
2
2
2
2
2
2
2
2
1
1
1
0
0
0
4
4
3
3
2
2
2
2
2
2
2
2
2
2
2
2
2
2
2
2
2
2
1
1
1
0
0
0
4
4
3
3
2
2
2
2
2
2
2
2
2
2
2
2
2
2
2
2
2
2
1
1
1
0
0
0
4
4
3
3
2
2
2
2
2
2
2
2
2
2
2
2
2
2
2
2
2
2
1
1
1
0
0
0
4
4
3
3
2
2
2
2
2
2
2
2
2
2
2
2
2
2
2
2
2
2
2
1
1
0
0
0
4
4
3
3
2
2
2
2
2
2
2
2
2
2
2
2
2
2
2
2
2
2
2
1
1
0
0
0
4
4
3
3
2
2
2
2
2
2
2
2
2
2
2
2
2
2
2
2
2
2
2
1
1
0
0
0
4
4
3
3
2
2
2
2
2
2
2
2
2
2
2
2
2
2
2
2
2
2
2
1
1
1
0
0
4
4
3
3
2
2
2
2
2
2
2
2
2
2
2
2
2
2
2
2
2
2
2
1
1
1
0
0
4
4
3
3
2
2
2
2
2
2
2
2
2
2
2
2
2
2
2
2
2
2
2
1
1
1
0
0
4
4
3
3
2
2
2
2
2
2
2
2
2
2
2
2
2
2
2
2
2
2
2
1
1
1
0
0
4
4
3
3
2
2
2
2
2
2
2
2
2
2
2
2
2
2
2
2
2
2
2
1
1
1
0
0
4
4
3
3
1
2
2
2
2
2
2
2
2
2
2
2
2
2
2
2
2
2
2
1
1
1
0
0
4
4
3
3
1
2
2
2
2
2
2
2
2
2
2
2
2
2
2
2
2
2
2
1
1
1
0
0
4
4
3
3
1
1
1
1
2
2
2
2
2
2
2
2
2
2
2
2
1
1
1
1
1
1
1
0
4
4
3
3
3
3
3
3
3
3
3
3
3
3
3
3
3
3
3
3
3
3
3
3
3
3
3
3
4
4
3
3
3
3
3
3
3
3
3
3
3
3
3
3
3
3
3
3
3
3
3
3
3
3
3
3
4
4
4
4
4
4
4
4
4
4
4
4
4
4
4
4
4
4
4
4
4
4
4
4
4
4
4
4
4
4
4
4
4
4
4
4
4
4
4
4
4
4
4
4
4
4
4
4
4
4
4
4
4
4
4
4
</DataArray>
<DataArray NumberOfComponents='1' type='Float32' Name='Velocity' format='ascii'>
0.000000
0.000000
0.000000
0.000000
0.000000
0.000000
0.000000
0.000000
0.000000
0.000000
0.000000
0.000000
0.000000
0.000000
0.000000
0.000000
0.000000
0.000000
0.000000
0.000000
0.000000
0.000000
0.000000
0.000000
0.000000
0.000000
0.000000
0.000000
0.100000
0.100000
0.100000
0.000000
0.000000
0.000000
0.000000
0.000000
0.000000
0.000000
0.000000
0.000000
0.000000
0.000000
0.000000
0.000000
0.000000
0.000000
0.000000
0.000000
0.000000
0.000000
0.000000
0.000000
0.000000
0.000000
0.000000
0.000000
0.000000
0.000000
0.000000
0.100000
0.100000
0.100000
0.000000
0.000000
0.000000
0.000000
0.000000
0.000000
0.000000
0.000000
0.000000
0.000000
0.000000
0.000000
0.000000
0.000000
0.000000
0.000000
0.000000
0.000000
0.000000
0.000000
0.000000
0.000000
0.000000
0.000000
0.000000
0.000000
0.000000
0.000000
0.100000
0.100000
0.100000
0.000000
0.000000
0.000000
0.000000
0.000000
0.000000
0.000000
0.000000
0.000000
0.000000
0.000000
0.000000
0.000000
0.000000
0.000000
0.000000
0.000000
0.000000
0.000000
0.000000
0.000000
0.000000
0.000000
0.000000
0.000000
0.000000
0.000000
0.000000
0.100000
0.100000
0.100000
0.000000
0.000000
0.000000
0.000000
0.000000
0.000000
0.000000
0.000000
0.000000
0.000000
0.000000
0.000000
0.000000
0.000000
0.000000
0.000000
0.000000
0.000000
0.000000
0.000000
0.000000
0.000000
0.000000
0.000000
0.000000
0.000000
0.122899
1.125306
0.100000
0.100000
0.100000
0.000000
0.000000
0.000000
0.000000
0.000000
0.000000
0.000000
0.000000
0.000000
0.000000
0.000000
0.000000
0.000000
0.000000
0.000000
0.000000
0.000000
0.000000
0.000000
0.000000
0.000000
0.000000
0.000000
0.000000
0.000000
0.072785
1.939620
0.152479
0.100000
0.100000
0.100000
0.000000
0.000000
0.000000
0.000000
0.000000
0.000000
0.000000
0.000000
0.000000
0.000000
0.000000
0.000000
0.000000
0.000000
0.000000
0.000000
0.000000
0.000000
0.000000
0.000000
0.000000
0.000000
0.000000
0.000000
0.000000
0.216467
0.760732
1.321276
0.100000
0.100000
0.100000
0.000000
0.000000
0.000000
0.000000
0.000000
0.000000
0.000000
0.000000
0.000000
0.000000
0.000000
0.000000
0.000000
0.000000
0.000000
0.000000
0.000000
0.000000
0.000000
0.000000
0.000000
0.000000
0.000000
0.000000
0.000000
0.683373
0.519629
0.156469
0.100000
0.100000
0.100000
0.000000
0.000000
0.000000
0.000000
0.000000
0.000000
0.000000
0.000000
0.000000
0.000000
0.000000
0.000000
0.000000
0.000000
0.000000
0.000000
0.000000
0.000000
0.000000
0.000000
0.000000
0.000000
0.000000
0.000000
0.000000
1.130368
0.044062
0.268664
0.100000
0.100000
0.100000
0.000000
0.000000
0.000000
0.000000
0.000000
0.000000
0.000000
0.000000
0.000000
0.000000
0.000000
0.000000
0.000000
0.000000
0.000000
0.000000
0.000000
0.000000
0.000000
0.000000
0.000000
0.000000
0.000000
0.000000
0.000000
0.160365
0.101923
0.218096
0.100000
0.100000
0.100000
0.000000
0.000000
0.000000
0.000000
0.000000
0.000000
0.000000
0.000000
0.000000
0.000000
0.000000
0.000000
0.000000
0.000000
0.000000
0.000000
0.000000
0.000000
0.000000
0.000000
0.000000
0.000000
0.000000
0.000000
0.000000
0.066840
13.555985
1.590032
0.100000
0.100000
0.100000
0.000000
0.000000
0.000000
0.000000
0.000000
0.000000
0.000000
0.000000
0.000000
0.000000
0.000000
0.000000
0.000000
0.000000
0.000000
0.000000
0.000000
0.000000
0.000000
0.000000
0.000000
0.000000
0.000000
0.000000
0.000000
0.106231
0.269012
0.075238
0.100000
0.100000
0.100000
0.000000
0.000000
0.000000
0.000000
0.000000
0.000000
0.000000
0.000000
0.000000
0.000000
0.000000
0.000000
0.000000
0.000000
0.000000
0.000000
0.000000
0.000000
0.000000
0.000000
0.000000
0.000000
0.000000
0.000000
0.000000
0.189408
4.174809
8.580790
0.000000
0.000000
0.000000
0.000000
0.000000
0.000000
0.000000
0.000000
0.000000
0.000000
0.000000
0.000000
0.000000
0.000000
0.000000
0.000000
0.000000
0.000000
0.000000
0.000000
0.000000
0.000000
0.000000
0.000000
0.044369
1.441942
0.089753
10.383265
0.000000
0.000000
0.000000
0.000000
0.000000
0.000000
0.000000
0.000000
0.000000
0.000000
0.000000
0.000000
0.000000
0.000000
0.000000
0.000000
0.000000
0.000000
0.000000
0.000000
0.000000
0.000000
0.000000
0.000000
0.071728
0.214934
0.075355
0.196741
0.000000
0.000000
0.000000
0.000000
0.000000
0.000000
0.000000
0.000000
0.000000
0.000000
0.000000
0.000000
0.000000
0.000000
0.000000
0.000000
0.000000
0.000000
0.000000
0.000000
0.000000
0.000000
0.000000
0.000000
0.141778
0.064267
0.015163
0.159844
0.000000
0.000000
0.000000
0.000000
0.000000
0.000000
0.000000
0.000000
0.000000
0.000000
0.000000
0.000000
0.000000
0.000000
0.000000
0.000000
0.000000
0.000000
0.000000
0.000000
0.000000
0.000000
0.000000
0.000000
0.120902
0.092480
0.115186
0.089225
0.000000
0.000000
0.000000
0.000000
0.000000
0.000000
0.000000
0.000000
0.000000
0.000000
0.000000
0.000000
0.000000
0.000000
0.000000
0.000000
0.000000
0.000000
0.000000
0.000000
0.000000
0.000000
0.000000
0.000000
0.125305
0.053617
0.030488
0.131801
0.000000
0.000000
0.000000
0.000000
0.000000
0.000000
0.000000
0.000000
0.000000
0.000000
0.000000
0.000000
0.000000
0.000000
0.000000
0.000000
0.000000
0.000000
0.000000
0.000000
0.000000
0.000000
0.000000
0.000000
0.000000
1.903075
0.182897
1.623348
0.000000
0.000000
0.000000
0.000000
0.000000
0.000000
0.000000
0.000000
0.000000
0.000000
0.000000
0.000000
0.000000
0.000000
0.000000
0.000000
0.000000
0.000000
0.000000
0.000000
0.000000
0.000000
0.000000
0.000000
0.000000
0.492371
0.074000
0.142782
0.000000
0.000000
0.000000
0.000000
0.000000
0.000000
0.000000
0.000000
0.000000
0.000000
0.000000
0.000000
0.000000
0.000000
0.000000
0.000000
0.000000
0.000000
0.000000
0.000000
0.000000
0.000000
0.000000
0.000000
0.000000
0.109217
0.124113
0.078794
0.000000
0.000000
0.000000
0.000000
0.000000
0.000000
0.000000
0.000000
0.000000
0.000000
0.000000
0.000000
0.000000
0.000000
0.000000
0.000000
0.000000
0.000000
0.000000
0.000000
0.000000
0.000000
0.000000
0.000000
0.000000
0.188895
0.124109
0.131311
0.000000
0.000000
0.000000
0.000000
0.000000
0.000000
0.000000
0.000000
0.000000
0.000000
0.000000
0.000000
0.000000
0.000000
0.000000
0.000000
0.000000
0.000000
0.000000
0.000000
0.000000
0.000000
0.000000
0.000000
0.000000
0.154990
0.178156
0.120632
0.000000
0.000000
0.000000
0.000000
0.000000
0.000000
0.000000
0.000000
0.000000
0.000000
0.000000
0.000000
0.000000
0.000000
0.000000
0.000000
0.000000
0.000000
0.000000
0.000000
0.000000
0.000000
0.000000
0.000000
0.000000
0.018172
0.178210
0.183025
0.000000
0.000000
0.000000
0.000000
0.000000
0.000000
0.000000
0.000000
0.000000
0.000000
0.000000
0.000000
0.000000
0.000000
0.000000
0.000000
0.000000
0.000000
0.000000
0.000000
0.000000
0.000000
0.000000
0.000000
0.000000
0.187260
0.453330
4.412557
0.000000
0.000000
0.000000
0.000000
0.000000
0.000000
0.000000
0.000000
0.000000
0.000000
0.000000
0.000000
0.000000
0.000000
0.000000
0.000000
0.000000
0.000000
0.000000
0.000000
0.000000
0.000000
0.000000
0.000000
0.000000
0.698374
0.243933
7.789436
0.000000
0.000000
0.000000
0.000000
0.000000
0.000000
0.000000
0.000000
0.000000
0.000000
0.000000
0.000000
0.000000
0.000000
0.000000
0.000000
0.000000
0.000000
0.000000
0.000000
0.000000
0.000000
0.000000
0.000000
0.000000
0.051489
0.177026
0.073800
0.000000
0.000000
0.000000
0.000000
0.000000
0.000000
0.000000
0.000000
0.000000
0.000000
0.000000
0.000000
0.000000
0.000000
0.000000
0.000000
0.000000
0.000000
0.000000
0.000000
0.000000
0.000000
0.000000
0.000000
0.000000
0.094440
0.013600
4.485982
0.000000
0.000000
0.000000
0.000000
0.000000
0.000000
0.000000
0.000000
0.000000
0.000000
0.000000
0.000000
0.000000
0.000000
0.000000
0.000000
0.000000
0.000000
0.000000
0.000000
0.000000
0.000000
0.000000
0.000000
0.000000
1.615836
0.788012
0.191852
0.000000
0.000000
0.000000
0.000000
0.000000
0.000000
0.000000
0.000000
0.000000
0.000000
0.000000
0.000000
0.000000
0.000000
0.000000
0.000000
0.000000
0.000000
0.000000
0.000000
0.000000
0.000000
0.000000
0.000000
0.000000
0.082485
0.108345
0.140829
0.000000
0.000000
0.000000
0.000000
0.000000
0.000000
0.000000
0.000000
0.000000
0.000000
0.000000
0.000000
0.000000
0.000000
0.000000
0.000000
0.000000
0.000000
0.000000
0.000000
0.000000
0.000000
0.000000
0.000000
0.000000
0.043452
0.287883
0.086595
0.000000
0.000000
0.000000
0.000000
0.000000
0.000000
0.000000
0.000000
0.000000
0.000000
0.000000
0.000000
0.000000
0.000000
0.000000
0.000000
0.000000
0.000000
0.000000
0.000000
0.000000
0.000000
0.000000
0.000000
0.000000
0.027435
0.185356
0.130967
0.000000
0.000000
0.000000
0.000000
0.000000
0.000000
0.000000
0.000000
0.000000
0.000000
0.000000
0.000000
0.000000
0.000000
0.000000
0.000000
0.000000
0.000000
0.000000
0.000000
0.000000
0.000000
0.000000
0.000000
0.000000
0.162897
0.181192
0.165707
0.000000
0.000000
0.000000
0.000000
0.000000
0.000000
0.000000
0.000000
0.000000
0.000000
0.000000
0.000000
0.000000
0.000000
0.000000
0.000000
0.000000
0.000000
0.000000
0.000000
0.000000
0.000000
0.000000
0.000000
0.000000
0.020832
0.215786
0.217156
0.000000
0.000000
0.000000
0.000000
0.000000
0.000000
0.000000
0.000000
0.000000
0.000000
0.000000
0.000000
0.000000
0.000000
0.000000
0.000000
0.000000
0.000000
0.000000
0.000000
0.000000
0.000000
0.000000
0.000000
0.000000
0.140347
0.120692
0.209297
0.000000
0.000000
0.000000
0.000000
0.000000
0.000000
0.000000
0.000000
0.000000
0.000000
0.000000
0.000000
0.000000
0.000000
0.000000
0.000000
0.000000
0.000000
0.000000
0.000000
0.000000
0.000000
0.000000
0.000000
0.000000
0.031036
0.088775
0.067136
0.000000
0.000000
0.000000
0.000000
0.000000
0.000000
0.000000
0.000000
0.000000
0.000000
0.000000
0.000000
0.000000
0.000000
0.000000
0.000000
0.000000
0.000000
0.000000
0.000000
0.000000
0.000000
0.000000
0.000000
0.000000
0.000000
0.014847
0.140837
0.000000
0.000000
0.000000
0.000000
0.000000
0.000000
0.000000
0.000000
0.000000
0.000000
0.000000
0.000000
0.000000
0.000000
0.000000
0.000000
0.000000
0.000000
0.000000
0.000000
0.000000
0.000000
0.000000
0.000000
0.000000
0.000000
0.100350
0.108920
0.000000
0.000000
0.000000
0.000000
0.000000
0.000000
0.000000
0.000000
0.000000
0.000000
0.000000
0.000000
0.000000
0.000000
0.000000
0.000000
0.000000
0.000000
0.000000
0.000000
0.000000
0.000000
0.000000
0.000000
0.000000
0.000000
0.067957
0.122779
0.000000
0.000000
0.000000
0.000000
0.000000
0.000000
0.000000
0.000000
0.000000
0.000000
0.000000
0.000000
0.000000
0.000000
0.000000
0.000000
0.000000
0.000000
0.000000
0.000000
0.000000
0.000000
0.000000
0.000000
0.000000
0.000000
0.167845
0.120250
0.000000
0.000000
0.000000
0.000000
0.000000
0.000000
0.000000
0.000000
0.000000
0.000000
0.000000
0.000000
0.000000
0.000000
0.000000
0.000000
0.000000
0.000000
0.000000
0.000000
0.000000
0.000000
0.000000
0.000000
0.000000
0.000000
0.070186
0.083173
0.000000
0.000000
0.000000
0.000000
0.000000
0.000000
0.000000
0.000000
0.000000
0.000000
0.000000
0.000000
0.000000
0.000000
0.000000
0.000000
0.000000
0.000000
0.000000
0.000000
0.000000
0.000000
0.000000
0.000000
0.000000
0.000000
0.083522
0.081808
0.000000
0.000000
0.000000
0.000000
0.000000
0.000000
0.000000
0.000000
0.000000
0.000000
0.000000
0.000000
0.000000
0.000000
0.000000
0.000000
0.000000
0.000000
0.000000
0.000000
0.000000
0.000000
0.000000
0.000000
0.000000
0.000000
0.065678
0.142841
0.000000
0.000000
0.000000
0.000000
0.000000
0.000000
0.000000
0.000000
0.000000
0.000000
0.000000
0.000000
0.000000
0.000000
0.000000
0.000000
0.000000
0.000000
0.000000
0.000000
0.000000
0.000000
0.000000
0.000000
0.000000
0.000000
0.000000
0.092666
0.000000
0.000000
0.000000
0.000000
0.000000
0.000000
0.000000
0.000000
0.000000
0.000000
0.000000
0.000000
0.000000
0.000000
0.000000
0.000000
0.000000
0.000000
0.000000
0.000000
0.000000
0.000000
0.000000
0.000000
0.000000
0.000000
0.000000
0.000000
0.000000
0.000000
0.000000
0.000000
0.000000
0.000000
0.000000
0.000000
0.000000
0.000000
0.000000
0.000000
0.000000
0.000000
0.000000
0.000000
0.000000
0.000000
0.000000
0.000000
0.000000
0.000000
0.000000
0.000000
0.000000
0.000000
0.000000
0.000000
0.000000
0.000000
0.000000
0.000000
0.000000
0.000000
0.000000
0.000000
0.000000
0.000000
0.000000
0.000000
0.000000
0.000000
0.000000
0.000000
0.000000
0.000000
0.000000
0.000000
0.000000
0.000000
0.000000
0.000000
0.000000
0.000000
0.000000
0.000000
0.000000
0.000000
0.000000
0.000000
0.000000
0.000000
0.000000
0.000000
0.000000
0.000000
0.000000
0.000000
0.000000
0.000000
0.000000
0.000000
0.000000
0.000000
0.000000
0.000000
0.000000
0.000000
0.000000
0.000000
0.000000
0.000000
0.000000
0.000000
</DataArray>
<DataArray NumberOfComponents='1' type='Float32' Name='Pressure' format='ascii'>
0.000000
0.000000
0.000000
0.000000
0.000000
0.000000
0.000000
0.000000
0.000000
0.000000
0.000000
0.000000
0.000000
0.000000
0.000000
0.000000
0.000000
0.000000
0.000000
0.000000
0.000000
0.000000
0.000000
0.000000
0.000000
0.000000
0.000000
0.000000
0.000000
0.000000
0.000000
0.000000
0.000000
0.000000
0.000000
0.000000
0.000000
0.000000
0.000000
0.000000
0.000000
0.000000
0.000000
0.000000
0.000000
0.000000
0.000000
0.000000
0.000000
0.000000
0.000000
0.000000
0.000000
0.000000
0.000000
0.000000
0.000000
0.000000
0.000000
0.000000
0.000000
0.000000
0.000000
0.000000
665.028992
664.862610
664.398254
663.556763
662.312134
660.609558
658.376038
655.515381
651.902832
647.377197
641.729309
634.683899
625.872681
614.792603
600.745178
582.749695
559.448364
528.986633
489.131104
436.729034
368.679871
255.659546
89.626854
0.000000
0.000000
0.000000
0.000000
0.000000
0.000000
0.000000
0.000000
665.551392
665.379761
664.928406
664.115356
662.913513
661.269287
659.112549
656.351196
652.866699
648.507080
643.077026
636.322693
627.908264
617.379578
604.107483
587.197876
565.381104
536.790039
499.264496
449.453644
391.420715
311.411774
189.900879
0.000000
128.754745
0.000000
0.000000
0.000000
0.000000
0.000000
0.000000
666.449097
666.288025
665.868835
665.112610
663.993713
662.462280
660.453308
657.882507
654.642578
650.598206
645.579102
639.369507
631.693115
622.187012
610.358948
595.503662
576.576416
551.790100
519.034424
471.253906
420.986755
384.009399
824.922363
532.271729
770.594360
59.836784
0.000000
0.000000
0.000000
0.000000
0.000000
667.842102
667.708191
667.342651
666.678040
665.691650
664.339294
662.564148
660.293396
657.436035
653.880615
649.492004
644.108582
637.538025
629.551392
619.868774
608.113892
593.724976
575.441040
551.422974
509.349274
464.435303
113.820290
463.855896
51.523403
0.000000
1503.946533
0.000000
0.000000
0.000000
0.000000
0.000000
669.683044
669.584717
669.290955
668.747864
667.936035
666.818665
665.348755
663.467102
661.101624
658.167419
654.567688
650.197937
644.955444
638.755981
631.564331
623.427673
614.536865
604.944153
595.216125
576.182129
573.461548
182.582031
866.740662
0.000000
0.000000
0.000000
0.000000
0.000000
0.000000
0.000000
0.000000
671.931580
671.876770
671.670044
671.273804
670.672119
669.836304
668.730347
667.309326
665.520508
663.304382
660.598877
657.348389
653.522705
649.154053
644.409851
639.719788
636.051697
635.154663
641.690918
657.466003
730.992920
797.032593
1804.267700
0.000000
658.121826
89.729279
0.000000
0.000000
0.000000
0.000000
0.000000
674.535339
674.530029
674.422363
674.192810
673.828979
673.310791
672.613159
671.705505
670.552979
669.117981
667.365051
665.270081
662.841309
660.161072
657.475342
655.370178
655.181030
659.606140
675.475037
712.941284
823.523865
1000.961548
2310.440674
0.000000
694.825867
195.665314
0.000000
0.000000
0.000000
0.000000
0.000000
677.434814
677.483521
677.483521
677.434814
677.328491
677.153015
676.894165
676.534912
676.056641
675.439758
674.666626
673.726501
672.627502
671.423218
670.274536
669.585754
670.351135
674.708496
688.200012
717.451416
803.310425
841.071838
1148.085693
0.000000
0.000000
3005.408203
0.000000
0.000000
0.000000
0.000000
0.000000
680.565430
680.670776
680.783691
680.924377
681.086975
681.268616
681.465393
681.673523
681.889282
682.109070
682.328247
682.539246
682.727051
682.862976
682.900574
682.783264
682.536987
682.365967
684.296509
687.920837
716.336182
658.370178
1319.239746
0.000000
0.000000
0.000000
0.000000
0.000000
0.000000
0.000000
0.000000
683.859314
684.022278
684.250000
684.582886
685.018005
685.560669
686.217102
686.996216
687.909607
688.970154
690.188599
691.564453
693.066162
694.589844
695.878174
696.363037
694.899353
689.235779
676.134094
646.580444
621.905579
414.522369
785.899597
0.000000
542.164978
0.000000
0.000000
0.000000
0.000000
0.000000
0.000000
687.247375
687.467346
687.808533
688.331177
689.034790
689.932251
691.039551
692.378296
693.975952
695.865234
698.080078
700.645020
703.549500
706.689270
709.740967
711.887756
711.269226
703.858154
680.959106
626.867371
572.745972
394.518707
448.938019
0.000000
0.000000
0.000000
0.000000
0.000000
690.661316
690.936279
691.386719
692.091675
693.052612
694.289185
695.826172
697.697266
699.946411
702.629089
705.811707
709.566589
713.955627
718.986816
724.512268
729.974609
733.855286
732.001282
715.347412
660.619873
359.814301
72.805344
1683.042603
0.000000
0.000000
0.000000
0.000000
0.000000
694.035278
694.362000
694.914917
695.790527
696.991333
698.542664
700.476440