<?xml version='1.0' encoding='UTF-8'?>
<VTKFile xmlns='VTK' byte_order='LittleEndian' version='0.1' type='UnstructuredGrid'>
<UnstructuredGrid>
<Piece NumberOfCells='584' NumberOfPoints='584'>
<Points>
<DataArray NumberOfComponents='3' type='Float32' Name='Position' format='ascii'>
-0.075000 -0.075000 0.000000
-0.075000 -0.050000 0.000000
-0.075000 -0.025000 0.000000
-0.075000 0.000000 0.000000
-0.075000 0.025000 0.000000
-0.075000 0.050000 0.000000
-0.075000 0.075000 0.000000
-0.075000 0.100000 0.000000
-0.075000 0.125000 0.000000
-0.075000 0.150000 0.000000
-0.075000 0.175000 0.000000
-0.075000 0.200000 0.000000
-0.075000 0.225000 0.000000
-0.075000 0.250000 0.000000
-0.075000 0.275000 0.000000
-0.075000 0.300000 0.000000
-0.075000 0.325000 0.000000
-0.075000 0.350000 0.000000
-0.075000 0.375000 0.000000
-0.075000 0.400000 0.000000
-0.075000 0.425000 0.000000
-0.075000 0.450000 0.000000
-0.075000 0.475000 0.000000
-0.075000 0.500000 0.000000
-0.075000 0.525000 0.000000
-0.075000 0.550000 0.000000
-0.075000 0.575000 0.000000
-0.075000 0.600000 0.000000
-0.050000 -0.075000 0.000000
-0.050000 -0.050000 0.000000
-0.050000 -0.025000 0.000000
-0.050000 0.000000 0.000000
-0.050000 0.025000 0.000000
-0.050000 0.050000 0.000000
-0.050000 0.075000 0.000000
-0.050000 0.100000 0.000000
-0.050000 0.125000 0.000000
-0.050000 0.150000 0.000000
-0.050000 0.175000 0.000000
-0.050000 0.200000 0.000000
-0.050000 0.225000 0.000000
-0.050000 0.250000 0.000000
-0.050000 0.275000 0.000000
-0.050000 0.300000 0.000000
-0.050000 0.325000 0.000000
-0.050000 0.350000 0.000000
-0.050000 0.375000 0.000000
-0.050000 0.400000 0.000000
-0.050000 0.425000 0.000000
-0.050000 0.450000 0.000000
-0.050000 0.475000 0.000000
-0.050000 0.500000 0.000000
-0.050000 0.525000 0.000000
-0.050000 0.550000 0.000000
-0.050000 0.575000 0.000000
-0.050000 0.600000 0.000000
-0.025000 -0.075000 0.000000
-0.025000 -0.050000 0.000000
-0.025000 -0.025000 0.000000
-0.025000 0.000000 0.000000
-0.025000 0.025000 0.000000
-0.025000 0.050000 0.000000
-0.025000 0.075000 0.000000
-0.025000 0.100000 0.000000
-0.025000 0.125000 0.000000
-0.025000 0.150000 0.000000
-0.025000 0.175000 0.000000
-0.025000 0.200000 0.000000
-0.025000 0.225000 0.000000
-0.025000 0.250000 0.000000
-0.025000 0.275000 0.000000
-0.025000 0.300000 0.000000
-0.025000 0.325000 0.000000
-0.025000 0.350000 0.000000
-0.025000 0.375000 0.000000
-0.025000 0.400000 0.000000
-0.025000 0.425000 0.000000
-0.025000 0.450000 0.000000
-0.025000 0.475000 0.000000
-0.025000 0.500000 0.000000
-0.025000 0.525000 0.000000
-0.025000 0.550000 0.000000
-0.025000 0.575000 0.000000
-0.025000 0.600000 0.000000
0.000000 -0.075000 0.000000
0.000000 -0.050000 0.000000
0.000000 -0.025000 0.000000
0.000000 0.000000 0.000000
0.000000 0.025000 0.000000
0.000000 0.050000 0.000000
0.000000 0.075000 0.000000
0.000000 0.100000 0.000000
0.000000 0.125000 0.000000
0.000000 0.150000 0.000000
0.000000 0.175000 0.000000
0.000000 0.200000 0.000000
0.000000 0.225000 0.000000
0.000000 0.250000 0.000000
0.000000 0.275000 0.000000
0.000000 0.300000 0.000000
0.000000 0.325000 0.000000
0.000000 0.350000 0.000000
0.000000 0.375000 0.000000
0.000000 0.400000 0.000000
0.000000 0.425000 0.000000
0.000000 0.450000 0.000000
0.000000 0.475000 0.000000
0.000000 0.500000 0.000000
0.000000 0.525000 0.000000
0.000000 0.550000 0.000000
0.000000 0.575000 0.000000
0.000000 0.600000 0.000000
0.025000 -0.075000 0.000000
0.025000 -0.050000 0.000000
0.025000 -0.025000 0.000000
0.025000 0.000000 0.000000
0.027520 0.022915 0.000000
0.026239 0.043621 0.000000
0.028880 0.065069 0.000000
0.025043 0.086211 0.000000
0.028313 0.107938 0.000000
0.025658 0.129333 0.000000
0.027488 0.151264 0.000000
0.025219 0.173153 0.000000
0.026420 0.195692 0.000000
0.025599 0.217971 0.000000
0.026273 0.241089 0.000000
0.026011 0.263672 0.000000
0.026010 0.286861 0.000000
0.025914 0.309963 0.000000
0.025512 0.333357 0.000000
0.025593 0.356859 0.000000
0.024836 0.381166 0.000000
0.025800 0.404852 0.000000
0.024454 0.430008 0.000000
0.024740 0.453592 0.000000
0.050000 -0.075000 0.000000
0.050000 -0.050000 0.000000
0.050000 -0.025000 0.000000
0.050000 0.000000 0.000000
0.060805 0.022551 0.000000
0.059039 0.042535 0.000000
0.058777 0.064523 0.000000
0.058783 0.085030 0.000000
0.057980 0.106814 0.000000
0.057635 0.127866 0.000000
0.057060 0.149992 0.000000
0.056660 0.171375 0.000000
0.056019 0.193743 0.000000
0.055441 0.215453 0.000000
0.054818 0.238083 0.000000
0.054203 0.260784 0.000000
0.053812 0.284041 0.000000
0.053025 0.307167 0.000000
0.052852 0.331148 0.000000
0.052060 0.354661 0.000000
0.051998 0.378667 0.000000
0.051029 0.402632 0.000000
0.050895 0.427655 0.000000
0.050365 0.451070 0.000000
0.075000 -0.075000 0.000000
0.075000 -0.050000 0.000000
0.075000 -0.025000 0.000000
0.075000 0.000000 0.000000
0.092855 0.022887 0.000000
0.089111 0.043499 0.000000
0.088768 0.064590 0.000000
0.088339 0.085380 0.000000
0.087693 0.106854 0.000000
0.086503 0.128167 0.000000
0.085973 0.149874 0.000000
0.084603 0.171916 0.000000
0.083939 0.193977 0.000000
0.082788 0.216702 0.000000
0.082167 0.239307 0.000000
0.081235 0.262282 0.000000
0.080422 0.285237 0.000000
0.079659 0.308461 0.000000
0.078765 0.331991 0.000000
0.078016 0.355298 0.000000
0.077229 0.379757 0.000000
0.076594 0.403274 0.000000
0.075812 0.428560 0.000000
0.075106 0.451995 0.000000
0.100000 -0.075000 0.000000
0.100000 -0.050000 0.000000
0.100000 -0.025000 0.000000
0.100000 0.000000 0.000000
0.123692 0.023658 0.000000
0.122120 0.042604 0.000000
0.121189 0.064167 0.000000
0.120441 0.084138 0.000000
0.119056 0.105352 0.000000
0.117748 0.126282 0.000000
0.116312 0.147925 0.000000
0.115003 0.169458 0.000000
0.113500 0.191661 0.000000
0.112226 0.213600 0.000000
0.110733 0.236474 0.000000
0.109489 0.258759 0.000000
0.108209 0.282357 0.000000
0.107081 0.305416 0.000000
0.105843 0.329324 0.000000
0.104803 0.353044 0.000000
0.103767 0.377175 0.000000
0.102562 0.401172 0.000000
0.101752 0.426169 0.000000
0.100434 0.449894 0.000000
0.125000 -0.075000 0.000000
0.125000 -0.050000 0.000000
0.125000 -0.025000 0.000000
0.125000 0.000000 0.000000
0.159041 0.022437 0.000000
0.153529 0.041240 0.000000
0.153664 0.062949 0.000000
0.151210 0.082523 0.000000
0.149860 0.104420 0.000000
0.147865 0.125116 0.000000
0.146047 0.147185 0.000000
0.143964 0.168754 0.000000
0.142051 0.191056 0.000000
0.140127 0.213423 0.000000
0.138324 0.236130 0.000000
0.136541 0.259264 0.000000
0.134977 0.282310 0.000000
0.133240 0.305773 0.000000
0.132149 0.329280 0.000000
0.130164 0.352802 0.000000
0.129384 0.377261 0.000000
0.127605 0.401031 0.000000
0.126883 0.426169 0.000000
0.125335 0.449813 0.000000
0.150000 -0.075000 0.000000
0.150000 -0.050000 0.000000
0.150000 -0.025000 0.000000
0.150000 0.000000 0.000000
0.192841 0.021614 0.000000
0.187116 0.041415 0.000000
0.186265 0.060894 0.000000
0.184207 0.081004 0.000000
0.181510 0.101718 0.000000
0.179263 0.122133 0.000000
0.176541 0.143601 0.000000
0.174199 0.164982 0.000000
0.171636 0.187257 0.000000
0.169244 0.209593 0.000000
0.166942 0.232319 0.000000
0.164736 0.255318 0.000000
0.162553 0.278611 0.000000
0.160789 0.302098 0.000000
0.158698 0.326191 0.000000
0.157194 0.349897 0.000000
0.155510 0.374492 0.000000
0.153758 0.398498 0.000000
0.152540 0.423763 0.000000
0.150551 0.447533 0.000000
0.175000 -0.075000 0.000000
0.175000 -0.050000 0.000000
0.175000 -0.025000 0.000000
0.175000 0.000000 0.000000
0.229567 0.022444 0.000000
0.221836 0.039343 0.000000
0.221022 0.059434 0.000000
0.216927 0.079377 0.000000
0.214304 0.099051 0.000000
0.210932 0.120591 0.000000
0.207244 0.141713 0.000000
0.204124 0.163635 0.000000
0.200494 0.185555 0.000000
0.197635 0.208126 0.000000
0.194301 0.231137 0.000000
0.191863 0.254164 0.000000
0.189118 0.277889 0.000000
0.186854 0.301354 0.000000
0.184789 0.325390 0.000000
0.182506 0.349204 0.000000
0.180907 0.373630 0.000000
0.178889 0.397841 0.000000
0.177535 0.422726 0.000000
0.175440 0.446839 0.000000
0.200000 -0.075000 0.000000
0.200000 -0.050000 0.000000
0.200000 -0.025000 0.000000
0.200000 0.000000 0.000000
0.272023 0.021623 0.000000
0.258235 0.034559 0.000000
0.257508 0.055400 0.000000
0.251696 0.073498 0.000000
0.247280 0.093619 0.000000
0.242868 0.114104 0.000000
0.238419 0.135290 0.000000
0.234327 0.156775 0.000000
0.230008 0.179934 0.000000
0.226329 0.202397 0.000000
0.222671 0.225958 0.000000
0.219449 0.249546 0.000000
0.216466 0.273283 0.000000
0.213691 0.297338 0.000000
0.211272 0.321541 0.000000
0.208760 0.345829 0.000000
0.206969 0.370592 0.000000
0.204453 0.394982 0.000000
0.203204 0.420168 0.000000
0.200659 0.444425 0.000000
0.225000 -0.075000 0.000000
0.225000 -0.050000 0.000000
0.225000 -0.025000 0.000000
0.225000 0.000000 0.000000
0.306076 0.021170 0.000000
0.309142 0.041988 0.000000
0.287448 0.051855 0.000000
0.291350 0.070621 0.000000
0.280614 0.090721 0.000000
0.276784 0.110675 0.000000
0.269145 0.132214 0.000000
0.264151 0.154425 0.000000
0.258558 0.176919 0.000000
0.253937 0.200173 0.000000
0.249635 0.223745 0.000000
0.245819 0.247431 0.000000
0.242514 0.271639 0.000000
0.239422 0.295771 0.000000
0.236843 0.320199 0.000000
0.234308 0.344668 0.000000
0.232182 0.369189 0.000000
0.229824 0.393943 0.000000
0.228154 0.418806 0.000000
0.225544 0.443120 0.000000
0.250000 -0.075000 0.000000
0.250000 -0.050000 0.000000
0.250000 -0.025000 0.000000
0.250000 0.000000 0.000000
0.378549 0.023542 0.000000
0.347691 0.022594 0.000000
0.339792 0.035819 0.000000
0.329448 0.052267 0.000000
0.318463 0.074983 0.000000
0.309036 0.096940 0.000000
0.300500 0.120919 0.000000
0.293635 0.144335 0.000000
0.286972 0.168625 0.000000
0.281731 0.192772 0.000000
0.276770 0.217361 0.000000
0.272554 0.241911 0.000000
0.268893 0.266619 0.000000
0.265344 0.291431 0.000000
0.262596 0.316197 0.000000
0.259523 0.341121 0.000000
0.257420 0.365929 0.000000
0.254765 0.390929 0.000000
0.252997 0.415815 0.000000
0.250544 0.440712 0.000000
0.275000 -0.075000 0.000000
0.275000 -0.050000 0.000000
0.275000 -0.025000 0.000000
0.275000 0.000000 0.000000
0.300000 -0.075000 0.000000
0.300000 -0.050000 0.000000
0.300000 -0.025000 0.000000
0.300000 0.000000 0.000000
0.325000 -0.075000 0.000000
0.325000 -0.050000 0.000000
0.325000 -0.025000 0.000000
0.325000 0.000000 0.000000
0.350000 -0.075000 0.000000
0.350000 -0.050000 0.000000
0.350000 -0.025000 0.000000
0.350000 0.000000 0.000000
0.375000 -0.075000 0.000000
0.375000 -0.050000 0.000000
0.375000 -0.025000 0.000000
0.375000 0.000000 0.000000
0.400000 -0.075000 0.000000
0.400000 -0.050000 0.000000
0.400000 -0.025000 0.000000
0.400000 0.000000 0.000000
0.425000 -0.075000 0.000000
0.425000 -0.050000 0.000000
0.425000 -0.025000 0.000000
0.425000 0.000000 0.000000
0.450000 -0.075000 0.000000
0.450000 -0.050000 0.000000
0.450000 -0.025000 0.000000
0.450000 0.000000 0.000000
0.475000 -0.075000 0.000000
0.475000 -0.050000 0.000000
0.475000 -0.025000 0.000000
0.475000 0.000000 0.000000
0.500000 -0.075000 0.000000
0.500000 -0.050000 0.000000
0.500000 -0.025000 0.000000
0.500000 0.000000 0.000000
0.525000 -0.075000 0.000000
0.525000 -0.050000 0.000000
0.525000 -0.025000 0.000000
0.525000 0.000000 0.000000
0.550000 -0.075000 0.000000
0.550000 -0.050000 0.000000
0.550000 -0.025000 0.000000
0.550000 0.000000 0.000000
0.575000 -0.075000 0.000000
0.575000 -0.050000 0.000000
0.575000 -0.025000 0.000000
0.575000 0.000000 0.000000
0.600000 -0.075000 0.000000
0.600000 -0.050000 0.000000
0.600000 -0.025000 0.000000
0.600000 0.000000 0.000000
0.625000 -0.075000 0.000000
0.625000 -0.050000 0.000000
0.625000 -0.025000 0.000000
0.625000 0.000000 0.000000
0.650000 -0.075000 0.000000
0.650000 -0.050000 0.000000
0.650000 -0.025000 0.000000
0.650000 0.000000 0.000000
0.675000 -0.075000 0.000000
0.675000 -0.050000 0.000000
0.675000 -0.025000 0.000000
0.675000 0.000000 0.000000
0.700000 -0.075000 0.000000
0.700000 -0.050000 0.000000
0.700000 -0.025000 0.000000
0.700000 0.000000 0.000000
0.725000 -0.075000 0.000000
0.725000 -0.050000 0.000000
0.725000 -0.025000 0.000000
0.725000 0.000000 0.000000
0.750000 -0.075000 0.000000
0.750000 -0.050000 0.000000
0.750000 -0.025000 0.000000
0.750000 0.000000 0.000000
0.775000 -0.075000 0.000000
0.775000 -0.050000 0.000000
0.775000 -0.025000 0.000000
0.775000 0.000000 0.000000
0.800000 -0.075000 0.000000
0.800000 -0.050000 0.000000
0.800000 -0.025000 0.000000
0.800000 0.000000 0.000000
0.825000 -0.075000 0.000000
0.825000 -0.050000 0.000000
0.825000 -0.025000 0.000000
0.825000 0.000000 0.000000
0.850000 -0.075000 0.000000
0.850000 -0.050000 0.000000
0.850000 -0.025000 0.000000
0.850000 0.000000 0.000000
0.875000 -0.075000 0.000000
0.875000 -0.050000 0.000000
0.875000 -0.025000 0.000000
0.875000 0.000000 0.000000
0.900000 -0.075000 0.000000
0.900000 -0.050000 0.000000
0.900000 -0.025000 0.000000
0.900000 0.000000 0.000000
0.925000 -0.075000 0.000000
0.925000 -0.050000 0.000000
0.925000 -0.025000 0.000000
0.925000 0.000000 0.000000
0.950000 -0.075000 0.000000
0.950000 -0.050000 0.000000
0.950000 -0.025000 0.000000
0.950000 0.000000 0.000000
0.975000 -0.075000 0.000000
0.975000 -0.050000 0.000000
0.975000 -0.025000 0.000000
0.975000 0.000000 0.000000
1.000000 -0.075000 0.000000
1.000000 -0.050000 0.000000
1.000000 -0.025000 0.000000
1.000000 0.000000 0.000000
1.025000 -0.075000 0.000000
1.025000 -0.050000 0.000000
1.025000 -0.025000 0.000000
1.025000 0.000000 0.000000
1.025000 0.025000 0.000000
1.025000 0.050000 0.000000
1.025000 0.075000 0.000000
1.025000 0.100000 0.000000
1.025000 0.125000 0.000000
1.025000 0.150000 0.000000
1.025000 0.175000 0.000000
1.025000 0.200000 0.000000
1.025000 0.225000 0.000000
1.025000 0.250000 0.000000
1.025000 0.275000 0.000000
1.025000 0.300000 0.000000
1.025000 0.325000 0.000000
1.025000 0.350000 0.000000
1.025000 0.375000 0.000000
1.025000 0.400000 0.000000
1.025000 0.425000 0.000000
1.025000 0.450000 0.000000
1.025000 0.475000 0.000000
1.025000 0.500000 0.000000
1.025000 0.525000 0.000000
1.025000 0.550000 0.000000
1.025000 0.575000 0.000000
1.025000 0.600000 0.000000
1.050000 -0.075000 0.000000
1.050000 -0.050000 0.000000
1.050000 -0.025000 0.000000
1.050000 0.000000 0.000000
1.050000 0.025000 0.000000
1.050000 0.050000 0.000000
1.050000 0.075000 0.000000
1.050000 0.100000 0.000000
1.050000 0.125000 0.000000
1.050000 0.150000 0.000000
1.050000 0.175000 0.000000
1.050000 0.200000 0.000000
1.050000 0.225000 0.000000
1.050000 0.250000 0.000000
1.050000 0.275000 0.000000
1.050000 0.300000 0.000000
1.050000 0.325000 0.000000
1.050000 0.350000 0.000000
1.050000 0.375000 0.000000
1.050000 0.400000 0.000000
1.050000 0.425000 0.000000
1.050000 0.450000 0.000000
1.050000 0.475000 0.000000
1.050000 0.500000 0.000000
1.050000 0.525000 0.000000
1.050000 0.550000 0.000000
1.050000 0.575000 0.000000
1.050000 0.600000 0.000000
1.075000 -0.075000 0.000000
1.075000 -0.050000 0.000000
1.075000 -0.025000 0.000000
1.075000 0.000000 0.000000
1.075000 0.025000 0.000000
1.075000 0.050000 0.000000
1.075000 0.075000 0.000000
1.075000 0.100000 0.000000
1.075000 0.125000 0.000000
1.075000 0.150000 0.000000
1.075000 0.175000 0.000000
1.075000 0.200000 0.000000
1.075000 0.225000 0.000000
1.075000 0.250000 0.000000
1.075000 0.275000 0.000000
1.075000 0.300000 0.000000
1.075000 0.325000 0.000000
1.075000 0.350000 0.000000
1.075000 0.375000 0.000000
1.075000 0.400000 0.000000
1.075000 0.425000 0.000000
1.075000 0.450000 0.000000
1.075000 0.475000 0.000000
1.075000 0.500000 0.000000
1.075000 0.525000 0.000000
1.075000 0.550000 0.000000
1.075000 0.575000 0.000000
1.075000 0.600000 0.000000
1.100000 -0.075000 0.000000
1.100000 -0.050000 0.000000
1.100000 -0.025000 0.000000
1.100000 0.000000 0.000000
1.100000 0.025000 0.000000
1.100000 0.050000 0.000000
1.100000 0.075000 0.000000
1.100000 0.100000 0.000000
1.100000 0.125000 0.000000
1.100000 0.150000 0.000000
1.100000 0.175000 0.000000
1.100000 0.200000 0.000000
1.100000 0.225000 0.000000
1.100000 0.250000 0.000000
1.100000 0.275000 0.000000
1.100000 0.300000 0.000000
1.100000 0.325000 0.000000
1.100000 0.350000 0.000000
1.100000 0.375000 0.000000
1.100000 0.400000 0.000000
1.100000 0.425000 0.000000
1.100000 0.450000 0.000000
1.100000 0.475000 0.000000
1.100000 0.500000 0.000000
1.100000 0.525000 0.000000
1.100000 0.550000 0.000000
1.100000 0.575000 0.000000
1.100000 0.600000 0.000000
</DataArray>
</Points>
<PointData>
<DataArray NumberOfComponents='1' type='Int32' Name='ParticleType' format='ascii'>
3
3
3
3
3
3
3
3
3
3
3
3
3
3
3
3
3
3
3
3
3
3
3
3
3
3
2
2
3
3
3
3
3
3
3
3
3
3
3
3
3
3
3
3
3
3
3
3
3
3
3
3
3
3
2
2
3
3
2
2
2
2
2
2
2
2
2
2
2
2
2
2
2
2
2
2
2
2
2
2
2
2
2
2
3
3
2
2
2
2
2
2
2
2
2
2
2
2
2
2
2
2
2
2
2
2
2
2
2
2
2
2
3
3
2
2
0
0
0
0
0
0
0
0
0
0
0
0
0
0
0
0
0
0
0
0
3
3
2
2
0
0
0
0
0
0
0
0
0
0
0
0
0
0
0
0
0
0
0
0
3
3
2
2
0
0
0
0
0
0
0
0
0
0
0
0
0
0
0
0
0
0
0
0
3
3
2
2
0
0
0
0
0
0
0
0
0
0
0
0
0
0
0
0
0
0
0
0
3
3
2
2
0
0
0
0
0
0
0
0
0
0
0
0
0
0
0
0
0
0
0
0
3
3
2
2
0
0
0
0
0
0
0
0
0
0
0
0
0
0
0
0
0
0
0
0
3
3
2
2
0
0
0
0
0
0
0
0
0
0
0
0
0
0
0
0
0
0
0
0
3
3
2
2
0
0
0
0
0
0
0
0
0
0
0
0
0
0
0
0
0
0
0
0
3
3
2
2
0
0
0
0
0
0
0
0
0
0
0
0
0
0
0
0
0
0
0
0
3
3
2
2
0
0
0
0
0
0
0
0
0
0
0
0
0
0
0
0
0
0
0
0
3
3
2
2
3
3
2
2
3
3
2
2
3
3
2
2
3
3
2
2
3
3
2
2
3
3
2
2
3
3
2
2
3
3
2
2
3
3
2
2
3
3
2
2
3
3
2
2
3
3
2
2
3
3
2
2
3
3
2
2
3
3
2
2
3
3
2
2
3
3
2
2
3
3
2
2
3
3
2
2
3
3
2
2
3
3
2
2
3
3
2
2
3
3
2
2
3
3
2
2
3
3
2
2
3
3
2
2
3
3
2
2
3
3
2
2
3
3
2
2
3
3
2
2
2
2
2
2
2
2
2
2
2
2
2
2
2
2
2
2
2
2
2
2
2
2
2
2
3
3
2
2
2
2
2
2
2
2
2
2
2
2
2
2
2
2
2
2
2
2
2
2
2
2
2
2
3
3
3
3
3
3
3
3
3
3
3
3
3
3
3
3
3
3
3
3
3
3
3
3
3
3
2
2
3
3
3
3
3
3
3
3
3
3
3
3
3
3
3
3
3
3
3
3
3
3
3
3
3
3
2
2
</DataArray>
<DataArray NumberOfComponents='1' type='Float32' Name='Velocity' format='ascii'>
0.000000
0.000000
0.000000
0.000000
0.000000
0.000000
0.000000
0.000000
0.000000
0.000000
0.000000
0.000000
0.000000
0.000000
0.000000
0.000000
0.000000
0.000000
0.000000
0.000000
0.000000
0.000000
0.000000
0.000000
0.000000
0.000000
0.000000
0.000000
0.000000
0.000000
0.000000
0.000000
0.000000
0.000000
0.000000
0.000000
0.000000
0.000000
0.000000
0.000000
0.000000
0.000000
0.000000
0.000000
0.000000
0.000000
0.000000
0.000000
0.000000
0.000000
0.000000
0.000000
0.000000
0.000000
0.000000
0.000000
0.000000
0.000000
0.000000
0.000000
0.000000
0.000000
0.000000
0.000000
0.000000
0.000000
0.000000
0.000000
0.000000
0.000000
0.000000
0.000000
0.000000
0.000000
0.000000
0.000000
0.000000
0.000000
0.000000
0.000000
0.000000
0.000000
0.000000
0.000000
0.000000
0.000000
0.000000
0.000000
0.000000
0.000000
0.000000
0.000000
0.000000
0.000000
0.000000
0.000000
0.000000
0.000000
0.000000
0.000000
0.000000
0.000000
0.000000
0.000000
0.000000
0.000000
0.000000
0.000000
0.000000
0.000000
0.000000
0.000000
0.000000
0.000000
0.000000
0.000000
0.092735
0.079465
0.159886
0.181865
0.267481
0.305617
0.334277
0.394788
0.414813
0.440030
0.480217
0.494934
0.557476
0.575422
0.615982
0.608077
0.652823
0.662357
0.671952
0.643235
0.000000
0.000000
0.000000
0.000000
0.204602
0.172350
0.223252
0.270537
0.284680
0.317455
0.392031
0.408393
0.484266
0.553631
0.567579
0.588410
0.656357
0.652277
0.674672
0.693597
0.722711
0.740875
0.752985
0.748778
0.000000
0.000000
0.000000
0.000000
0.308655
0.248008
0.293436
0.308713
0.366223
0.387863
0.419010
0.467572
0.483727
0.485616
0.564960
0.562663
0.597770
0.630752
0.636620
0.665533
0.688834
0.699149
0.715934
0.707320
0.000000
0.000000
0.000000
0.000000
0.464878
0.421595
0.423936
0.453428
0.455641
0.467188
0.505699
0.541273
0.565349
0.588966
0.638790
0.660742
0.678831
0.716066
0.744806
0.736375
0.766614
0.766394
0.787642
0.790038
0.000000
0.000000
0.000000
0.000000
0.687260
0.524218
0.598486
0.562824
0.581767
0.604527
0.587243
0.609186
0.630768
0.657843
0.660680
0.681046
0.700183
0.692859
0.720525
0.731244
0.770173
0.754166
0.766446
0.783077
0.000000
0.000000
0.000000
0.000000
0.798251
0.628192
0.752683
0.684207
0.696652
0.690077
0.732060
0.726315
0.736885
0.752506
0.769080
0.769379
0.811205
0.816822
0.825953
0.824078
0.843587
0.851027
0.854215
0.842350
0.000000
0.000000
0.000000
0.000000
1.245792
0.864950
0.900458
0.907397
0.907894
0.843931
0.850077
0.857077
0.859934
0.822158
0.854743
0.838821
0.844101
0.818658
0.849002
0.839575
0.843912
0.858660
0.858432
0.869144
0.000000
0.000000
0.000000
0.000000
1.444561
1.081160
1.222315
1.107711
1.020144
1.051563
1.059200
0.991581
1.001809
1.007598
0.972146
0.967135
0.955733
0.962311
0.943635
0.961766
0.956846
0.950691
0.947040
0.931917
0.000000
0.000000
0.000000
0.000000
1.325104
1.543055
0.948845
1.376904
1.266377
1.291970
1.154722
1.197646
1.121076
1.088203
1.064608
1.038812
1.025116
0.999543
0.990955
0.972223
0.974065
0.971383
0.970624
0.978313
0.000000
0.000000
0.000000
0.000000
2.173829
1.629244
1.495871
1.733117
1.640600
1.528901
1.475628
1.375323
1.323806
1.265802
1.222383
1.183537
1.160154
1.130020
1.111577
1.088439
1.075911
1.063620
1.060962
1.059037
0.000000
0.000000
0.000000
0.000000
0.000000
0.000000
0.000000
0.000000
0.000000
0.000000
0.000000
0.000000
0.000000
0.000000
0.000000
0.000000
0.000000
0.000000
0.000000
0.000000
0.000000
0.000000
0.000000
0.000000
0.000000
0.000000
0.000000
0.000000
0.000000
0.000000
0.000000
0.000000
0.000000
0.000000
0.000000
0.000000
0.000000
0.000000
0.000000
0.000000
0.000000
0.000000
0.000000
0.000000
0.000000
0.000000
0.000000
0.000000
0.000000
0.000000
0.000000
0.000000
0.000000
0.000000
0.000000
0.000000
0.000000
0.000000
0.000000
0.000000
0.000000
0.000000
0.000000
0.000000
0.000000
0.000000
0.000000
0.000000
0.000000
0.000000
0.000000
0.000000
0.000000
0.000000
0.000000
0.000000
0.000000
0.000000
0.000000
0.000000
0.000000
0.000000
0.000000
0.000000
0.000000
0.000000
0.000000
0.000000
0.000000
0.000000
0.000000
0.000000
0.000000
0.000000
0.000000
0.000000
0.000000
0.000000
0.000000
0.000000
0.000000
0.000000
0.000000
0.000000
0.000000
0.000000
0.000000
0.000000
0.000000
0.000000
0.000000
0.000000
0.000000
0.000000
0.000000
0.000000
0.000000
0.000000
0.000000
0.000000
0.000000
0.000000
0.000000
0.000000
0.000000
0.000000
0.000000
0.000000
0.000000
0.000000
0.000000
0.000000
0.000000
0.000000
0.000000
0.000000
0.000000
0.000000
0.000000
0.000000
0.000000
0.000000
0.000000
0.000000
0.000000
0.000000
0.000000
0.000000
0.000000
0.000000
0.000000
0.000000
0.000000
0.000000
0.000000
0.000000
0.000000
0.000000
0.000000
0.000000
0.000000
0.000000
0.000000
0.000000
0.000000
0.000000
0.000000
0.000000
0.000000
0.000000
0.000000
0.000000
0.000000
0.000000
0.000000
0.000000
0.000000
0.000000
0.000000
0.000000
0.000000
0.000000
0.000000
0.000000
0.000000
0.000000
0.000000
0.000000
0.000000
0.000000
0.000000
0.000000
0.000000
0.000000
0.000000
0.000000
0.000000
0.000000
0.000000
0.000000
0.000000
0.000000
0.000000
0.000000
0.000000
0.000000
0.000000
0.000000
0.000000
0.000000
0.000000
0.000000
0.000000
0.000000
0.000000
0.000000
0.000000
0.000000
0.000000
0.000000
0.000000
0.000000
0.000000
0.000000
0.000000
0.000000
0.000000
0.000000
0.000000
0.000000
0.000000
0.000000
</DataArray>
<DataArray NumberOfComponents='1' type='Float32' Name='pressure' format='ascii'>
0.000000
0.000000
0.000000
0.000000
0.000000
0.000000
0.000000
0.000000
0.000000
0.000000
0.000000
0.000000
0.000000
0.000000
0.000000
0.000000
0.000000
0.000000
0.000000
0.000000
0.000000
0.000000
0.000000
0.000000
0.000000
0.000000
0.000000
0.000000
0.000000
0.000000
0.000000
0.000000
0.000000
0.000000
0.000000
0.000000
0.000000
0.000000
0.000000
0.000000
0.000000
0.000000
0.000000
0.000000
0.000000
0.000000
0.000000
0.000000
0.000000
0.000000
0.000000
0.000000
0.000000
0.000000
0.000000
0.000000
0.000000
0.000000
2803.536865
2456.012207
1255.326416
1160.066772
1076.827148
719.440369
828.098633
196.441925
807.691162
309.934448
229.359863
0.000000
0.000000
0.000000
0.000000
0.000000
4.319866
0.000000
93.924522
0.000000
0.000000
0.000000
0.000000
0.000000
0.000000
0.000000
0.000000
0.000000
3111.119141
2936.078125
1923.928955
1900.102661
1911.830078
1762.803589
1511.827759
743.744019
1422.590820
1345.677612
1116.829834
698.380127
453.627594
371.032074
461.497040
363.314148
399.959412
84.682777
617.052185
0.000000
0.000000
0.000000
0.000000
0.000000
0.000000
0.000000
0.000000
0.000000
4077.958252
4027.227295
2467.853516
3204.603027
2309.580322
2876.039062
1987.396973
2463.454590
1861.183594
2033.105713
1432.030640
1483.486694
1196.861328
1331.929810
1098.613403
1147.127319
908.028442
355.333832
308.959961
0.000000
55.446804
0.000000
0.000000
0.000000
3936.590332
2750.288086
2567.099365
2451.593018
2173.969238
2269.329102
1959.308594
1853.210693
1802.887939
1449.519897
1577.078613
1573.252197
1190.413574
984.058167
968.058655
564.348328
510.832977
437.722931
308.429199
198.863098
150.925446
0.000000
0.000000
0.000000
4135.311035
2822.264648
2462.537598
2717.353516
2527.589600
2458.056641
2209.767822
2296.221436
2050.059814
2053.998291
1754.837891
1443.108398
1314.786133
1246.552002
1162.844849
812.089722
861.490051
540.517334
413.432465
246.260208
293.295837
0.000000
0.000000
0.000000
4215.210449
3984.892334
2269.503662
3030.137207
2104.629883
2504.904053
2080.816406
1948.779419
1703.991577
1622.388916
1539.453979
1310.228638
1371.662598
1173.215820
832.431946
768.406494
554.632263
444.613342
551.514893
240.577255
133.139694
0.000000
0.000000
0.000000
4126.938477
3148.677490
2825.075684
2141.058594
2383.952637
2425.657959
2176.476318
2276.555420
1941.765259
1969.123901
1713.186523
1577.152100
1233.365723
1106.400513
1045.949219
934.411499
972.926270
448.730347
437.602661
300.371124
339.129150
0.000000
0.000000
0.000000
4330.957520
2511.585693
2428.360352
2260.794434
3008.247314
1844.529663
2037.629761
1805.496704
1731.909546
1454.468994
1164.392090
1158.751099
1136.763306
931.844604
842.366699
508.456818
566.945923
394.382202
269.177216
108.619423
184.786758
0.000000
0.000000
0.000000
4735.927734
3533.651855
1990.977661
2481.898682
1285.741821
2288.935303
2312.781982
1399.651367
1580.882080
1542.581665
1578.600220
1151.161621
1110.422363
986.180786
845.715515
823.675110
664.013000
618.006592
505.110626
381.265503
200.602371
0.000000
0.000000
0.000000
4862.910156
4537.554688
1921.152222
2009.522339
1588.087646
1778.484253
635.335266
1114.315430
1317.886963
759.138733
649.488525
835.895020
467.521759
623.228394
513.221252
426.804138
344.162201
70.375870
62.794159
0.000000
158.408218
0.000000
0.000000
0.000000
4204.573730
2594.658203
1570.606689
2600.879150
834.761108
1133.608521
848.024353
1407.115356
529.691956
949.361206
815.733154
687.445740
681.242065
541.439453
435.405762
471.831390
382.217743
440.042969
339.716766
226.881821
77.655396
0.000000
0.000000
0.000000
2853.129883
1208.450806
0.000000
3175.096436
1515.950317
0.000000
0.000000
0.000000
0.000000
0.000000
0.000000
0.000000
0.000000
0.000000
0.000000
0.000000
0.000000
0.000000
0.000000
0.000000
0.000000
0.000000
0.000000
0.000000
4141.077637
3482.058105
0.000000
0.000000
3993.389648
2056.657471
0.000000
0.000000
2477.357666
1016.849731
0.000000
0.000000
2662.798584
2941.816162
0.000000
0.000000
1370.753052
0.000000
0.000000
0.000000
0.000000
0.000000
0.000000
0.000000
0.000000
0.000000
0.000000
0.000000
0.000000
0.000000
0.000000
0.000000
0.000000
0.000000
0.000000
0.000000
0.000000
0.000000
0.000000
0.000000
0.000000
0.000000
0.000000
0.000000
0.000000
0.000000
0.000000
0.000000
0.000000
0.000000
0.000000
0.000000
0.000000
0.000000
0.000000
0.000000
0.000000
0.000000
0.000000
0.000000
0.000000
0.000000
0.000000
0.000000
0.000000
0.000000
0.000000
0.000000
0.000000
0.000000
0.000000
0.000000
0.000000
0.000000
0.000000
0.000000
0.000000
0.000000
0.000000
0.000000
0.000000
0.000000
0.000000
0.000000
0.000000
0.000000
0.000000
0.000000
0.000000
0.000000
0.000000
0.000000
0.000000
0.000000
0.000000
0.000000
0.000000
0.000000
0.000000
0.000000
0.000000
0.000000
0.000000
0.000000
0.000000
0.000000
0.000000
0.000000
0.000000
0.000000
0.000000
0.000000
0.000000
0.000000
0.000000
0.000000
0.000000
0.000000
0.000000
0.000000
0.000000
0.000000
0.000000
0.000000
0.000000
0.000000
0.000000
0.000000
0.000000
0.000000
0.000000
0.000000
0.000000
0.000000
0.000000
0.000000
0.000000
0.000000
0.000000
0.000000
0.000000
0.000000
0.000000
0.000000
0.000000
0.000000
0.000000
0.000000
0.000000
0.000000
0.000000
0.000000
0.000000
0.000000
0.000000
0.000000
0.000000
0.000000
0.000000
0.000000
0.000000
0.000000
0.000000
0.000000
0.000000
0.000000
0.000000
0.000000
0.000000
0.000000
0.000000
0.000000
0.000000
0.000000
0.000000
0.000000
0.000000
0.000000
0.000000
0.000000
0.000000
0.000000
0.000000
0.000000
0.000000
0.000000
0.000000
0.000000
0.000000
0.000000
0.000000
0.000000
0.000000
0.000000
0.000000
0.000000
0.000000
0.000000
0.000000
0.000000
0.000000
0.000000
0.000000
0.000000
0.000000
0.000000
0.000000
0.000000
0.000000
0.000000
0.000000
0.000000
0.000000
0.000000
0.000000
0.000000
0.000000
0.000000
0.000000
0.000000
0.000000
0.000000
0.000000
0.000000
0.000000
0.000000
0.000000
0.000000
0.000000
0.000000
</DataArray>
</PointData>
<Cells>
<DataArray type='Int32' Name='connectivity' format='ascii'>
0
1
2
3
4
5
6
7
8
9
10
11
12
13
14
15
16
17
18
19
20
21
22
23
24
25
26
27
28
29
30
31
32
33
34
35
36
37
38
39
40
41
42
43
44
45
46
47
48
49
50
51
52
53
54
55
56
57
58
59
60
61
62
63
64
65
66
67
68
69
70
71
72
73
74
75
76
77
78
79
80
81
82
83
84
85
86
87
88
89
90
91
92
93
94
95
96
97
98
99
100
101
102
103
104
105
106
107
108
109
110
111
112
113
114
115
116
117
118
119
120
121
122
123
124
125
126
127
128
129
130
131
132
133
134
135
136
137
138
139
140
141
142
143
144
145
146
147
148
149
150
151
152
153
154
155
156
157
158
159
160
161
162
163
164
165
166
167
168
169
170
171
172
173
174
175
176
177
178
179
180
181
182
183
184
185
186
187
188
189
190
191
192
193
194
195
196
197
198
199
200
201
202
203
204
205
206
207
208
209
210
211
212
213
214
215
216
217
218
219
220
221
222
223
224
225
226
227
228
229
230
231
232
233
234
235
236
237
238
239
240
241
242
243
244
245
246
247
248
249
250
251
252
253
254
255
256
257
258
259
260
261
262
263
264
265
266
267
268
269
270
271
272
273
274
275
276
277
278
279
280
281
282
283
284
285
286
287