<?xml version='1.0' encoding='UTF-8'?>
<VTKFile xmlns='VTK' byte_order='LittleEndian' version='0.1' type='UnstructuredGrid'>
<UnstructuredGrid>
<Piece NumberOfCells='584' NumberOfPoints='584'>
<Points>
<DataArray NumberOfComponents='3' type='Float32' Name='Position' format='ascii'>
-0.075000 -0.075000 0.000000
-0.075000 -0.050000 0.000000
-0.075000 -0.025000 0.000000
-0.075000 0.000000 0.000000
-0.075000 0.025000 0.000000
-0.075000 0.050000 0.000000
-0.075000 0.075000 0.000000
-0.075000 0.100000 0.000000
-0.075000 0.125000 0.000000
-0.075000 0.150000 0.000000
-0.075000 0.175000 0.000000
-0.075000 0.200000 0.000000
-0.075000 0.225000 0.000000
-0.075000 0.250000 0.000000
-0.075000 0.275000 0.000000
-0.075000 0.300000 0.000000
-0.075000 0.325000 0.000000
-0.075000 0.350000 0.000000
-0.075000 0.375000 0.000000
-0.075000 0.400000 0.000000
-0.075000 0.425000 0.000000
-0.075000 0.450000 0.000000
-0.075000 0.475000 0.000000
-0.075000 0.500000 0.000000
-0.075000 0.525000 0.000000
-0.075000 0.550000 0.000000
-0.075000 0.575000 0.000000
-0.075000 0.600000 0.000000
-0.050000 -0.075000 0.000000
-0.050000 -0.050000 0.000000
-0.050000 -0.025000 0.000000
-0.050000 0.000000 0.000000
-0.050000 0.025000 0.000000
-0.050000 0.050000 0.000000
-0.050000 0.075000 0.000000
-0.050000 0.100000 0.000000
-0.050000 0.125000 0.000000
-0.050000 0.150000 0.000000
-0.050000 0.175000 0.000000
-0.050000 0.200000 0.000000
-0.050000 0.225000 0.000000
-0.050000 0.250000 0.000000
-0.050000 0.275000 0.000000
-0.050000 0.300000 0.000000
-0.050000 0.325000 0.000000
-0.050000 0.350000 0.000000
-0.050000 0.375000 0.000000
-0.050000 0.400000 0.000000
-0.050000 0.425000 0.000000
-0.050000 0.450000 0.000000
-0.050000 0.475000 0.000000
-0.050000 0.500000 0.000000
-0.050000 0.525000 0.000000
-0.050000 0.550000 0.000000
-0.050000 0.575000 0.000000
-0.050000 0.600000 0.000000
-0.025000 -0.075000 0.000000
-0.025000 -0.050000 0.000000
-0.025000 -0.025000 0.000000
-0.025000 0.000000 0.000000
-0.025000 0.025000 0.000000
-0.025000 0.050000 0.000000
-0.025000 0.075000 0.000000
-0.025000 0.100000 0.000000
-0.025000 0.125000 0.000000
-0.025000 0.150000 0.000000
-0.025000 0.175000 0.000000
-0.025000 0.200000 0.000000
-0.025000 0.225000 0.000000
-0.025000 0.250000 0.000000
-0.025000 0.275000 0.000000
-0.025000 0.300000 0.000000
-0.025000 0.325000 0.000000
-0.025000 0.350000 0.000000
-0.025000 0.375000 0.000000
-0.025000 0.400000 0.000000
-0.025000 0.425000 0.000000
-0.025000 0.450000 0.000000
-0.025000 0.475000 0.000000
-0.025000 0.500000 0.000000
-0.025000 0.525000 0.000000
-0.025000 0.550000 0.000000
-0.025000 0.575000 0.000000
-0.025000 0.600000 0.000000
0.000000 -0.075000 0.000000
0.000000 -0.050000 0.000000
0.000000 -0.025000 0.000000
0.000000 0.000000 0.000000
0.000000 0.025000 0.000000
0.000000 0.050000 0.000000
0.000000 0.075000 0.000000
0.000000 0.100000 0.000000
0.000000 0.125000 0.000000
0.000000 0.150000 0.000000
0.000000 0.175000 0.000000
0.000000 0.200000 0.000000
0.000000 0.225000 0.000000
0.000000 0.250000 0.000000
0.000000 0.275000 0.000000
0.000000 0.300000 0.000000
0.000000 0.325000 0.000000
0.000000 0.350000 0.000000
0.000000 0.375000 0.000000
0.000000 0.400000 0.000000
0.000000 0.425000 0.000000
0.000000 0.450000 0.000000
0.000000 0.475000 0.000000
0.000000 0.500000 0.000000
0.000000 0.525000 0.000000
0.000000 0.550000 0.000000
0.000000 0.575000 0.000000
0.000000 0.600000 0.000000
0.025000 -0.075000 0.000000
0.025000 -0.050000 0.000000
0.025000 -0.025000 0.000000
0.025000 0.000000 0.000000
0.288910 0.033285 0.000000
0.264114 0.022477 0.000000
0.267199 0.058014 0.000000
0.190537 0.019086 0.000000
0.377746 0.028169 0.000000
0.064571 0.020382 0.000000
0.467862 0.020180 0.000000
0.312674 0.022462 0.000000
0.227154 0.028221 0.000000
0.149260 0.043162 0.000000
0.311035 0.048228 0.000000
0.195308 0.047733 0.000000
0.156533 0.025938 0.000000
0.026868 0.024297 0.000000
0.021598 0.045738 0.000000
0.050384 0.037282 0.000000
0.109230 0.022016 0.000000
0.089941 0.037897 0.000000
0.095122 0.051840 0.000000
0.131691 0.027248 0.000000
0.050000 -0.075000 0.000000
0.050000 -0.050000 0.000000
0.050000 -0.025000 0.000000
0.050000 0.000000 0.000000
0.357827 0.024968 0.000000
0.509000 0.120956 0.000000
0.500735 0.105715 0.000000
0.322117 0.185888 0.000000
0.399619 0.152111 0.000000
0.637765 0.045280 0.000000
0.475287 0.097932 0.000000
0.759178 0.052806 0.000000
0.404246 0.022976 0.000000
0.428494 0.078060 0.000000
0.350399 0.115228 0.000000
0.460063 0.053589 0.000000
0.059574 0.051565 0.000000
0.449533 0.074389 0.000000
0.279630 0.053143 0.000000
0.319382 0.063828 0.000000
0.211832 0.043762 0.000000
0.336230 0.029003 0.000000
0.125667 0.055252 0.000000
0.180891 0.047132 0.000000
0.075000 -0.075000 0.000000
0.075000 -0.050000 0.000000
0.075000 -0.025000 0.000000
0.075000 0.000000 0.000000
0.394978 0.079055 0.000000
0.476985 0.136011 0.000000
0.534632 0.021588 0.000000
0.515764 0.027562 0.000000
0.794130 0.097238 0.000000
0.826619 0.027713 0.000000
0.824682 0.060800 0.000000
0.165611 0.111753 0.000000
0.775366 0.082518 0.000000
0.803482 0.053621 0.000000
0.635474 0.023159 0.000000
0.493391 0.077090 0.000000
0.338306 0.076275 0.000000
0.387177 0.049736 0.000000
0.425303 0.029362 0.000000
0.377022 0.060781 0.000000
0.341171 0.054787 0.000000
0.343075 0.093979 0.000000
0.374637 0.114987 0.000000
0.243973 0.027910 0.000000
0.100000 -0.075000 0.000000
0.100000 -0.050000 0.000000
0.100000 -0.025000 0.000000
0.100000 0.000000 0.000000
0.680508 0.022414 0.000000
0.603665 0.024432 0.000000
0.724834 0.080257 0.000000
0.902250 0.027598 0.000000
0.423764 0.056480 0.000000
0.879792 0.023613 0.000000
0.857603 0.089181 0.000000
0.620442 0.148209 0.000000
0.851611 0.024644 0.000000
0.844651 0.046502 0.000000
0.659808 0.030419 0.000000
0.673227 0.055374 0.000000
0.808343 0.082348 0.000000
0.782167 0.029759 0.000000
0.521265 0.080403 0.000000
0.443532 0.028076 0.000000
0.707654 0.023233 0.000000
0.722873 0.136551 0.000000
0.574403 0.041754 0.000000
0.495809 0.049607 0.000000
0.125000 -0.075000 0.000000
0.125000 -0.050000 0.000000
0.125000 -0.025000 0.000000
0.125000 0.000000 0.000000
0.893624 0.054879 0.000000
0.918425 0.110190 0.000000
1.000761 0.120150 0.000000
0.936752 0.021814 0.000000
0.908176 0.184044 0.000000
0.760214 0.020911 0.000000
0.620209 0.082751 0.000000
0.839734 0.127167 0.000000
0.922487 0.086526 0.000000
0.880235 0.108231 0.000000
0.949032 0.079379 0.000000
0.761042 0.191826 0.000000
0.691982 0.050103 0.000000
0.737950 0.066359 0.000000
0.545956 0.052427 0.000000
0.776570 0.059345 0.000000
0.732534 0.117289 0.000000
0.451878 0.119985 0.000000
0.700357 0.069751 0.000000
0.403454 0.118327 0.000000
0.150000 -0.075000 0.000000
0.150000 -0.050000 0.000000
0.150000 -0.025000 0.000000
0.150000 0.000000 0.000000
0.654861 0.127112 0.000000
1.002908 0.040733 0.000000
0.938821 0.235454 0.000000
0.591526 0.070976 0.000000
0.976708 0.056581 0.000000
0.424738 0.143745 0.000000
0.979416 0.107906 0.000000
0.718488 0.101852 0.000000
1.001234 0.090613 0.000000
0.951832 0.137607 0.000000
0.957412 0.045611 0.000000
0.869071 0.048227 0.000000
0.919174 0.039555 0.000000
0.935317 0.057901 0.000000
0.885406 0.089580 0.000000
0.815830 0.112603 0.000000
0.805023 0.024568 0.000000
0.841880 0.104733 0.000000
0.831634 0.082696 0.000000
0.645057 0.071392 0.000000
0.175000 -0.075000 0.000000
0.175000 -0.050000 0.000000
0.175000 -0.025000 0.000000
0.175000 0.000000 0.000000
0.332006 0.119191 0.000000
0.935901 0.161518 0.000000
0.963547 0.171137 0.000000
0.992721 0.143071 0.000000
0.970378 0.130899 0.000000
0.491515 0.135879 0.000000
0.962863 0.025079 0.000000
0.674464 0.157058 0.000000
0.562178 0.063442 0.000000
0.990240 0.022110 0.000000
0.839883 0.151910 0.000000
0.914312 0.136713 0.000000
0.749098 0.182161 0.000000
0.954339 0.099788 0.000000
0.974290 0.080747 0.000000
0.619227 0.059927 0.000000
0.998597 0.067124 0.000000
0.766352 0.110924 0.000000
0.685721 0.121785 0.000000
0.773502 0.172169 0.000000
0.200000 -0.075000 0.000000
0.200000 -0.050000 0.000000
0.200000 -0.025000 0.000000
0.200000 0.000000 0.000000
0.710207 0.143214 0.000000
0.433689 0.155506 0.000000
0.605151 0.101267 0.000000
0.956382 0.184815 0.000000
0.579261 0.088227 0.000000
0.752877 0.140121 0.000000
0.822153 0.150646 0.000000
0.980771 0.247349 0.000000
0.789231 0.130716 0.000000
0.422347 0.096531 0.000000
1.003270 0.164462 0.000000
0.910526 0.072281 0.000000
0.197344 0.107464 0.000000
0.692994 0.088283 0.000000
0.867362 0.134562 0.000000
0.528014 0.092796 0.000000
0.894190 0.150720 0.000000
0.684677 0.107990 0.000000
0.939030 0.121766 0.000000
0.871190 0.070535 0.000000
0.225000 -0.075000 0.000000
0.225000 -0.050000 0.000000
0.225000 -0.025000 0.000000
0.225000 0.000000 0.000000
0.650477 0.167625 0.000000
0.937435 0.953579 0.000000
0.880458 0.164909 0.000000
0.395158 0.101584 0.000000
0.365464 0.086872 0.000000
0.198322 0.131875 0.000000
0.808863 0.144585 0.000000
0.986319 0.169394 0.000000
0.878772 0.186593 0.000000
0.556065 0.095045 0.000000
0.933474 0.177111 0.000000
0.394149 0.164927 0.000000
0.528564 0.050765 0.000000
0.756606 0.093792 0.000000
0.456869 0.134539 0.000000
0.637436 0.112225 0.000000
0.724246 0.043523 0.000000
0.320334 0.166959 0.000000
0.519484 0.142980 0.000000
0.553851 0.155974 0.000000
0.250000 -0.075000 0.000000
0.250000 -0.050000 0.000000
0.250000 -0.025000 0.000000
0.250000 0.000000 0.000000
0.932095 0.475591 0.000000
0.698946 0.407998 0.000000
0.657816 0.077915 0.000000
0.673356 0.170586 0.000000
0.486324 0.565257 0.000000
0.769757 0.133034 0.000000
0.530025 0.327491 0.000000
0.600441 0.115403 0.000000
0.489209 0.034840 0.000000
0.859995 0.152764 0.000000
0.472234 0.068755 0.000000
0.284561 0.207532 0.000000
0.562467 0.109825 0.000000
0.736185 0.030671 0.000000
0.601035 0.045391 0.000000
0.585661 0.134236 0.000000
0.571097 0.023280 0.000000
0.897887 0.123688 0.000000
0.295277 0.192794 0.000000
0.899639 0.194075 0.000000
0.275000 -0.075000 0.000000
0.275000 -0.050000 0.000000
0.275000 -0.025000 0.000000
0.275000 0.000000 0.000000
0.300000 -0.075000 0.000000
0.300000 -0.050000 0.000000
0.300000 -0.025000 0.000000
0.300000 0.000000 0.000000
0.325000 -0.075000 0.000000
0.325000 -0.050000 0.000000
0.325000 -0.025000 0.000000
0.325000 0.000000 0.000000
0.350000 -0.075000 0.000000
0.350000 -0.050000 0.000000
0.350000 -0.025000 0.000000
0.350000 0.000000 0.000000
0.375000 -0.075000 0.000000
0.375000 -0.050000 0.000000
0.375000 -0.025000 0.000000
0.375000 0.000000 0.000000
0.400000 -0.075000 0.000000
0.400000 -0.050000 0.000000
0.400000 -0.025000 0.000000
0.400000 0.000000 0.000000
0.425000 -0.075000 0.000000
0.425000 -0.050000 0.000000
0.425000 -0.025000 0.000000
0.425000 0.000000 0.000000
0.450000 -0.075000 0.000000
0.450000 -0.050000 0.000000
0.450000 -0.025000 0.000000
0.450000 0.000000 0.000000
0.475000 -0.075000 0.000000
0.475000 -0.050000 0.000000
0.475000 -0.025000 0.000000
0.475000 0.000000 0.000000
0.500000 -0.075000 0.000000
0.500000 -0.050000 0.000000
0.500000 -0.025000 0.000000
0.500000 0.000000 0.000000
0.525000 -0.075000 0.000000
0.525000 -0.050000 0.000000
0.525000 -0.025000 0.000000
0.525000 0.000000 0.000000
0.550000 -0.075000 0.000000
0.550000 -0.050000 0.000000
0.550000 -0.025000 0.000000
0.550000 0.000000 0.000000
0.575000 -0.075000 0.000000
0.575000 -0.050000 0.000000
0.575000 -0.025000 0.000000
0.575000 0.000000 0.000000
0.600000 -0.075000 0.000000
0.600000 -0.050000 0.000000
0.600000 -0.025000 0.000000
0.600000 0.000000 0.000000
0.625000 -0.075000 0.000000
0.625000 -0.050000 0.000000
0.625000 -0.025000 0.000000
0.625000 0.000000 0.000000
0.650000 -0.075000 0.000000
0.650000 -0.050000 0.000000
0.650000 -0.025000 0.000000
0.650000 0.000000 0.000000
0.675000 -0.075000 0.000000
0.675000 -0.050000 0.000000
0.675000 -0.025000 0.000000
0.675000 0.000000 0.000000
0.700000 -0.075000 0.000000
0.700000 -0.050000 0.000000
0.700000 -0.025000 0.000000
0.700000 0.000000 0.000000
0.725000 -0.075000 0.000000
0.725000 -0.050000 0.000000
0.725000 -0.025000 0.000000
0.725000 0.000000 0.000000
0.750000 -0.075000 0.000000
0.750000 -0.050000 0.000000
0.750000 -0.025000 0.000000
0.750000 0.000000 0.000000
0.775000 -0.075000 0.000000
0.775000 -0.050000 0.000000
0.775000 -0.025000 0.000000
0.775000 0.000000 0.000000
0.800000 -0.075000 0.000000
0.800000 -0.050000 0.000000
0.800000 -0.025000 0.000000
0.800000 0.000000 0.000000
0.825000 -0.075000 0.000000
0.825000 -0.050000 0.000000
0.825000 -0.025000 0.000000
0.825000 0.000000 0.000000
0.850000 -0.075000 0.000000
0.850000 -0.050000 0.000000
0.850000 -0.025000 0.000000
0.850000 0.000000 0.000000
0.875000 -0.075000 0.000000
0.875000 -0.050000 0.000000
0.875000 -0.025000 0.000000
0.875000 0.000000 0.000000
0.900000 -0.075000 0.000000
0.900000 -0.050000 0.000000
0.900000 -0.025000 0.000000
0.900000 0.000000 0.000000
0.925000 -0.075000 0.000000
0.925000 -0.050000 0.000000
0.925000 -0.025000 0.000000
0.925000 0.000000 0.000000
0.950000 -0.075000 0.000000
0.950000 -0.050000 0.000000
0.950000 -0.025000 0.000000
0.950000 0.000000 0.000000
0.975000 -0.075000 0.000000
0.975000 -0.050000 0.000000
0.975000 -0.025000 0.000000
0.975000 0.000000 0.000000
1.000000 -0.075000 0.000000
1.000000 -0.050000 0.000000
1.000000 -0.025000 0.000000
1.000000 0.000000 0.000000
1.025000 -0.075000 0.000000
1.025000 -0.050000 0.000000
1.025000 -0.025000 0.000000
1.025000 0.000000 0.000000
1.025000 0.025000 0.000000
1.025000 0.050000 0.000000
1.025000 0.075000 0.000000
1.025000 0.100000 0.000000
1.025000 0.125000 0.000000
1.025000 0.150000 0.000000
1.025000 0.175000 0.000000
1.025000 0.200000 0.000000
1.025000 0.225000 0.000000
1.025000 0.250000 0.000000
1.025000 0.275000 0.000000
1.025000 0.300000 0.000000
1.025000 0.325000 0.000000
1.025000 0.350000 0.000000
1.025000 0.375000 0.000000
1.025000 0.400000 0.000000
1.025000 0.425000 0.000000
1.025000 0.450000 0.000000
1.025000 0.475000 0.000000
1.025000 0.500000 0.000000
1.025000 0.525000 0.000000
1.025000 0.550000 0.000000
1.025000 0.575000 0.000000
1.025000 0.600000 0.000000
1.050000 -0.075000 0.000000
1.050000 -0.050000 0.000000
1.050000 -0.025000 0.000000
1.050000 0.000000 0.000000
1.050000 0.025000 0.000000
1.050000 0.050000 0.000000
1.050000 0.075000 0.000000
1.050000 0.100000 0.000000
1.050000 0.125000 0.000000
1.050000 0.150000 0.000000
1.050000 0.175000 0.000000
1.050000 0.200000 0.000000
1.050000 0.225000 0.000000
1.050000 0.250000 0.000000
1.050000 0.275000 0.000000
1.050000 0.300000 0.000000
1.050000 0.325000 0.000000
1.050000 0.350000 0.000000
1.050000 0.375000 0.000000
1.050000 0.400000 0.000000
1.050000 0.425000 0.000000
1.050000 0.450000 0.000000
1.050000 0.475000 0.000000
1.050000 0.500000 0.000000
1.050000 0.525000 0.000000
1.050000 0.550000 0.000000
1.050000 0.575000 0.000000
1.050000 0.600000 0.000000
1.075000 -0.075000 0.000000
1.075000 -0.050000 0.000000
1.075000 -0.025000 0.000000
1.075000 0.000000 0.000000
1.075000 0.025000 0.000000
1.075000 0.050000 0.000000
1.075000 0.075000 0.000000
1.075000 0.100000 0.000000
1.075000 0.125000 0.000000
1.075000 0.150000 0.000000
1.075000 0.175000 0.000000
1.075000 0.200000 0.000000
1.075000 0.225000 0.000000
1.075000 0.250000 0.000000
1.075000 0.275000 0.000000
1.075000 0.300000 0.000000
1.075000 0.325000 0.000000
1.075000 0.350000 0.000000
1.075000 0.375000 0.000000
1.075000 0.400000 0.000000
1.075000 0.425000 0.000000
1.075000 0.450000 0.000000
1.075000 0.475000 0.000000
1.075000 0.500000 0.000000
1.075000 0.525000 0.000000
1.075000 0.550000 0.000000
1.075000 0.575000 0.000000
1.075000 0.600000 0.000000
1.100000 -0.075000 0.000000
1.100000 -0.050000 0.000000
1.100000 -0.025000 0.000000
1.100000 0.000000 0.000000
1.100000 0.025000 0.000000
1.100000 0.050000 0.000000
1.100000 0.075000 0.000000
1.100000 0.100000 0.000000
1.100000 0.125000 0.000000
1.100000 0.150000 0.000000
1.100000 0.175000 0.000000
1.100000 0.200000 0.000000
1.100000 0.225000 0.000000
1.100000 0.250000 0.000000
1.100000 0.275000 0.000000
1.100000 0.300000 0.000000
1.100000 0.325000 0.000000
1.100000 0.350000 0.000000
1.100000 0.375000 0.000000
1.100000 0.400000 0.000000
1.100000 0.425000 0.000000
1.100000 0.450000 0.000000
1.100000 0.475000 0.000000
1.100000 0.500000 0.000000
1.100000 0.525000 0.000000
1.100000 0.550000 0.000000
1.100000 0.575000 0.000000
1.100000 0.600000 0.000000
</DataArray>
</Points>
<PointData>
<DataArray NumberOfComponents='1' type='Int32' Name='ParticleType' format='ascii'>
3
3
3
3
3
3
3
3
3
3
3
3
3
3
3
3
3
3
3
3
3
3
3
3
3
3
2
2
3
3
3
3
3
3
3
3
3
3
3
3
3
3
3
3
3
3
3
3
3
3
3
3
3
3
2
2
3
3
2
2
2
2
2
2
2
2
2
2
2
2
2
2
2
2
2
2
2
2
2
2
2
2
2
2
3
3
2
2
2
2
2
2
2
2
2
2
2
2
2
2
2
2
2
2
2
2
2
2
2
2
2
2
3
3
2
2
0
0
0
0
0
0
0
0
0
0
0
0
0
0
0
0
0
0
0
0
3
3
2
2
0
0
0
0
0
0
0
0
0
0
0
0
0
0
0
0
0
0
0
0
3
3
2
2
0
0
0
0
0
0
0
0
0
0
0
0
0
0
0
0
0
0
0
0
3
3
2
2
0
0
0
0
0
0
0
0
0
0
0
0
0
0
0
0
0
0
0
0
3
3
2
2
0
0
0
0
0
0
0
0
0
0
0
0
0
0
0
0
0
0
0
0
3
3
2
2
0
0
0
0
0
0
0
0
0
0
0
0
0
0
0
0
0
0
0
0
3
3
2
2
0
0
0
0
0
0
0
0
0
0
0
0
0
0
0
0
0
0
0
0
3
3
2
2
0
0
0
0
0
0
0
0
0
0
0
0
0
0
0
0
0
0
0
0
3
3
2
2
0
0
0
0
0
0
0
0
0
0
0
0
0
0
0
0
0
0
0
0
3
3
2
2
0
0
0
0
0
0
0
0
0
0
0
0
0
0
0
0
0
0
0
0
3
3
2
2
3
3
2
2
3
3
2
2
3
3
2
2
3
3
2
2
3
3
2
2
3
3
2
2
3
3
2
2
3
3
2
2
3
3
2
2
3
3
2
2
3
3
2
2
3
3
2
2
3
3
2
2
3
3
2
2
3
3
2
2
3
3
2
2
3
3
2
2
3
3
2
2
3
3
2
2
3
3
2
2
3
3
2
2
3
3
2
2
3
3
2
2
3
3
2
2
3
3
2
2
3
3
2
2
3
3
2
2
3
3
2
2
3
3
2
2
3
3
2
2
2
2
2
2
2
2
2
2
2
2
2
2
2
2
2
2
2
2
2
2
2
2
2
2
3
3
2
2
2
2
2
2
2
2
2
2
2
2
2
2
2
2
2
2
2
2
2
2
2
2
2
2
3
3
3
3
3
3
3
3
3
3
3
3
3
3
3
3
3
3
3
3
3
3
3
3
3
3
2
2
3
3
3
3
3
3
3
3
3
3
3
3
3
3
3
3
3
3
3
3
3
3
3
3
3
3
2
2
</DataArray>
<DataArray NumberOfComponents='1' type='Float32' Name='Velocity' format='ascii'>
0.000000
0.000000
0.000000
0.000000
0.000000
0.000000
0.000000
0.000000
0.000000
0.000000
0.000000
0.000000
0.000000
0.000000
0.000000
0.000000
0.000000
0.000000
0.000000
0.000000
0.000000
0.000000
0.000000
0.000000
0.000000
0.000000
0.000000
0.000000
0.000000
0.000000
0.000000
0.000000
0.000000
0.000000
0.000000
0.000000
0.000000
0.000000
0.000000
0.000000
0.000000
0.000000
0.000000
0.000000
0.000000
0.000000
0.000000
0.000000
0.000000
0.000000
0.000000
0.000000
0.000000
0.000000
0.000000
0.000000
0.000000
0.000000
0.000000
0.000000
0.000000
0.000000
0.000000
0.000000
0.000000
0.000000
0.000000
0.000000
0.000000
0.000000
0.000000
0.000000
0.000000
0.000000
0.000000
0.000000
0.000000
0.000000
0.000000
0.000000
0.000000
0.000000
0.000000
0.000000
0.000000
0.000000
0.000000
0.000000
0.000000
0.000000
0.000000
0.000000
0.000000
0.000000
0.000000
0.000000
0.000000
0.000000
0.000000
0.000000
0.000000
0.000000
0.000000
0.000000
0.000000
0.000000
0.000000
0.000000
0.000000
0.000000
0.000000
0.000000
0.000000
0.000000
0.000000
0.000000
0.215238
0.164448
0.089246
0.090202
0.172682
0.220959
0.328213
0.161942
0.072306
0.038526
0.203576
0.216136
0.160058
0.249173
0.138510
0.052076
0.151928
0.030075
0.236992
0.275376
0.000000
0.000000
0.000000
0.000000
0.393181
1.376260
1.288502
2.295851
2.145509
0.112944
1.387882
0.246931
0.368785
0.345980
1.246994
0.283199
0.118310
0.293024
0.411112
0.727684
0.074991
0.514020
0.155930
0.335689
0.000000
0.000000
0.000000
0.000000
0.493432
1.916256
0.158015
0.291776
0.446590
0.128673
0.293117
2.838648
0.366862
0.433066
0.719681
1.571260
0.786728
0.351243
0.249278
0.204969
0.558400
1.502802
1.394325
0.149673
0.000000
0.000000
0.000000
0.000000
0.757837
0.429963
0.601578
0.000637
0.234927
0.080291
0.307483
2.066668
0.356043
0.148842
0.503199
0.436607
0.167995
0.212286
1.143247
0.275895
0.419591
0.978243
0.425013
0.088997
0.000000
0.000000
0.000000
0.000000
0.754603
0.123080
0.298968
0.117618
0.445881
0.182080
0.418162
0.690548
0.095669
0.178552
0.228136
0.229281
0.836112
0.644870
0.758630
0.516936
0.684881
1.407776
0.773097
1.662983
0.000000
0.000000
0.000000
0.000000
1.550694
0.325981
1.314848
0.952186
0.287828
1.767821
0.227956
1.223498
0.289593
0.184605
0.327295
0.218324
0.256819
0.383465
0.256979
0.951373
0.353858
0.352433
0.448790
1.375189
0.000000
0.000000
0.000000
0.000000
1.542768
0.583373
0.178527
0.523989
0.129568
1.720542
0.408582
2.310082
1.140941
0.192745
0.424739
0.345465
0.382340
0.333588
0.340977
0.625420
0.283183
0.767511
1.322560
0.524459
0.000000
0.000000
0.000000
0.000000
1.754013
1.527757
1.039201
0.555982
2.160213
1.193266
0.803482
1.289586
1.018324
1.610985
0.295959
0.231432
2.764159
0.558559
0.568183
1.022761
0.415791
0.683286
0.425364
0.641610
0.000000
0.000000
0.000000
0.000000
0.912591
2.611621
0.682231
1.546473
1.437466
2.771786
0.831479
0.408308
0.655989
1.815130
0.508216
1.203239
0.861534
0.810760
1.493987
2.013787
0.388891
2.730316
0.916935
1.083069
0.000000
0.000000
0.000000
0.000000
3.345244
3.334193
0.980661
1.694419
3.255580
1.350805
3.479805
2.560488
0.262051
0.722571
0.416970
2.556334
1.980747
0.255122
0.645899
2.528755
0.354807
0.281328
2.285185
0.609298
0.000000
0.000000
0.000000
0.000000
0.000000
0.000000
0.000000
0.000000
0.000000
0.000000
0.000000
0.000000
0.000000
0.000000
0.000000
0.000000
0.000000
0.000000
0.000000
0.000000
0.000000
0.000000
0.000000
0.000000
0.000000
0.000000
0.000000
0.000000
0.000000
0.000000
0.000000
0.000000
0.000000
0.000000
0.000000
0.000000
0.000000
0.000000
0.000000
0.000000
0.000000
0.000000
0.000000
0.000000
0.000000
0.000000
0.000000
0.000000
0.000000
0.000000
0.000000
0.000000
0.000000
0.000000
0.000000
0.000000
0.000000
0.000000
0.000000
0.000000
0.000000
0.000000
0.000000
0.000000
0.000000
0.000000
0.000000
0.000000
0.000000
0.000000
0.000000
0.000000
0.000000
0.000000
0.000000
0.000000
0.000000
0.000000
0.000000
0.000000
0.000000
0.000000
0.000000
0.000000
0.000000
0.000000
0.000000
0.000000
0.000000
0.000000
0.000000
0.000000
0.000000
0.000000
0.000000
0.000000
0.000000
0.000000
0.000000
0.000000
0.000000
0.000000
0.000000
0.000000
0.000000
0.000000
0.000000
0.000000
0.000000
0.000000
0.000000
0.000000
0.000000
0.000000
0.000000
0.000000
0.000000
0.000000
0.000000
0.000000
0.000000
0.000000
0.000000
0.000000
0.000000
0.000000
0.000000
0.000000
0.000000
0.000000
0.000000
0.000000
0.000000
0.000000
0.000000
0.000000
0.000000
0.000000
0.000000
0.000000
0.000000
0.000000
0.000000
0.000000
0.000000
0.000000
0.000000
0.000000
0.000000
0.000000
0.000000
0.000000
0.000000
0.000000
0.000000
0.000000
0.000000
0.000000
0.000000
0.000000
0.000000
0.000000
0.000000
0.000000
0.000000
0.000000
0.000000
0.000000
0.000000
0.000000
0.000000
0.000000
0.000000
0.000000
0.000000
0.000000
0.000000
0.000000
0.000000
0.000000
0.000000
0.000000
0.000000
0.000000
0.000000
0.000000
0.000000
0.000000
0.000000
0.000000
0.000000
0.000000
0.000000
0.000000
0.000000
0.000000
0.000000
0.000000
0.000000
0.000000
0.000000
0.000000
0.000000
0.000000
0.000000
0.000000
0.000000
0.000000
0.000000
0.000000
0.000000
0.000000
0.000000
0.000000
0.000000
0.000000
0.000000
0.000000
0.000000
0.000000
0.000000
0.000000
0.000000
0.000000
0.000000
0.000000
0.000000
0.000000
0.000000
0.000000
0.000000
0.000000
</DataArray>
<DataArray NumberOfComponents='1' type='Float32' Name='pressure' format='ascii'>
0.000000
0.000000
0.000000
0.000000
0.000000
0.000000
0.000000
0.000000
0.000000
0.000000
0.000000
0.000000
0.000000
0.000000
0.000000
0.000000
0.000000
0.000000
0.000000
0.000000
0.000000
0.000000
0.000000
0.000000
0.000000
0.000000
0.000000
0.000000
0.000000
0.000000
0.000000
0.000000
0.000000
0.000000
0.000000
0.000000
0.000000
0.000000
0.000000
0.000000
0.000000
0.000000
0.000000
0.000000
0.000000
0.000000
0.000000
0.000000
0.000000
0.000000
0.000000
0.000000
0.000000
0.000000
0.000000
0.000000
0.000000
0.000000
1146.631226
1087.053101
837.791138
1549.318359
0.000000
0.000000
0.000000
0.000000
0.000000
0.000000
0.000000
0.000000
0.000000
0.000000
0.000000
0.000000
0.000000
0.000000
0.000000
0.000000
0.000000
0.000000
0.000000
0.000000
0.000000
0.000000
0.000000
0.000000
1165.529541
1094.889404
1763.194824
0.000000
0.000000
0.000000
0.000000
0.000000
0.000000
0.000000
0.000000
0.000000
0.000000
0.000000
0.000000
0.000000
0.000000
0.000000
0.000000
0.000000
0.000000
0.000000
0.000000
0.000000
0.000000
0.000000
0.000000
0.000000
1385.280029
1000.179382
0.000000
214.437515
0.000000
122.042908
1061.282471
1228.329224
0.000000
2438.683105
0.000000
0.000000
1424.257202
0.000000
0.000000
771.307739
0.000000
0.000000
233.195084
0.000000
0.000000
829.589966
0.000000
0.000000
1918.093140
168.653015
1824.228638
0.000000
267.279663
0.000000
0.000000
515.380005
0.000000
0.000000
0.000000
0.000000
0.000000
1251.366211
0.000000
0.000000
0.000000
0.000000
0.000000
1630.705811
0.000000
0.000000
0.000000
0.000000
2227.555908
0.000000
0.000000
0.000000
384.043701
0.000000
508.264679
1242.927612
36.495953
0.000000
0.000000
0.000000
0.000000
0.000000
1373.469238
739.301819
511.355469
502.091309
278.476227
378.192841
0.000000
0.000000
0.000000
0.000000
1591.603516
148.926208
113.714180
0.000000
0.000000
1450.783813
0.000000
1458.070312
0.000000
0.000000
1363.920288
395.714020
0.000000
0.000000
1032.749146
0.000000
600.551819
0.000000
0.000000
0.000000
0.000000
233.277542
0.000000
0.000000
747.075317
998.103821
0.000000
12.670281
0.000000
887.264832
0.000000
170.035690
0.000000
2082.530518
290.014221
0.000000
1322.495361
0.000000
0.000000
0.000000
422.917938
0.000000
0.000000
0.000000
816.250183
0.000000
0.000000
0.000000
0.000000
0.000000
0.000000
1088.679810
0.000000
0.000000
915.867737
0.000000
1171.767700
0.000000
252.985672
200.822693
1652.156128
849.792358
1301.671509
0.000000
1053.693726
0.000000
331.902100
250.568512
1682.505615
1726.141235
0.000000
0.000000
1436.378296
0.000000
0.000000
0.000000
356.695343
0.000000
0.000000
0.000000
2272.333984
0.000000
0.000000
734.413391
0.000000
0.000000
0.000000
394.985626
542.404602
1313.302612
1357.158081
290.716827
0.000000
0.000000
0.000000
0.000000
2091.480713
140.291504
0.000000
0.000000
577.654297
0.000000
0.000000
0.000000
1396.326538
0.000000
0.000000
0.000000
759.837708
0.000000
0.000000
0.000000
859.853699
0.000000
209.288055
0.000000
394.384827
1025.060181
0.000000
0.000000
0.000000
0.000000
0.000000
0.000000
0.000000
0.000000
0.000000
0.000000
0.000000
0.000000
0.000000
0.000000
0.000000
0.000000
0.000000
0.000000
0.000000
0.000000
0.000000
0.000000
0.000000
0.000000
0.000000
0.000000
437.878876
1949.118896
0.000000
0.000000
0.000000
0.000000
0.000000
0.000000
0.000000
0.000000
1953.614380
1013.493652
2167.755371
0.000000
0.000000
0.000000
0.000000
0.000000
0.000000
783.569580
0.000000
0.000000
0.000000
0.000000
662.402283
0.000000
0.000000
0.000000
707.252075
0.000000
0.000000
0.000000
1086.129272
967.926880
0.000000
0.000000
765.663513
1712.967041
0.000000
0.000000
113.794930
823.998718
0.000000
0.000000
1373.521362
1244.935913
0.000000
0.000000
135.787216
982.362366
0.000000
0.000000
1323.722778
1096.944458
0.000000
0.000000
2128.977295
892.077271
0.000000
0.000000
0.000000
0.000000
0.000000
0.000000
0.000000
0.000000
0.000000
0.000000
0.000000
0.000000
0.000000
0.000000
0.000000
0.000000
0.000000
0.000000
0.000000
0.000000
0.000000
0.000000
0.000000
0.000000
0.000000
0.000000
0.000000
0.000000
0.000000
0.000000
792.137573
1609.067017
0.000000
0.000000
1117.966187
507.117859
0.000000
0.000000
18.719944
0.000000
0.000000
0.000000
1659.676025
569.864563
0.000000
0.000000
1429.924561
1258.085571
0.000000
0.000000
720.089172
807.898987
0.000000
0.000000
0.000000
0.000000
0.000000
0.000000
738.601624
666.287720
0.000000
0.000000
1212.216553
1292.016968
0.000000
0.000000
354.856628
0.000000
0.000000
0.000000
2253.093750
1131.805908
0.000000
0.000000
2960.231445
3438.952881
0.000000
0.000000
2675.057373
2515.555908
0.000000
0.000000
2255.705811
1297.545898
0.000000
0.000000
1029.375854
0.000000
0.000000
2166.674316
680.408203
222.722977
0.000000
1028.459961
0.000000
0.000000
0.000000
0.000000
0.000000
0.000000
0.000000
0.000000
0.000000
0.000000
0.000000
0.000000
0.000000
0.000000
0.000000
0.000000
0.000000
0.000000
0.000000
0.000000
756.840942
673.052002
882.831055
1626.741821
596.827271
652.444275
592.591675
821.245972
880.402283
0.000000
0.000000
0.000000
0.000000
0.000000
0.000000
0.000000
0.000000
0.000000
0.000000
0.000000
0.000000
0.000000
0.000000
0.000000
0.000000
0.000000
0.000000
0.000000
0.000000
0.000000
0.000000
0.000000
0.000000
0.000000
0.000000
0.000000
0.000000
0.000000
0.000000
0.000000
0.000000
0.000000
0.000000
0.000000
0.000000
0.000000
0.000000
0.000000
0.000000
0.000000
0.000000
0.000000
0.000000
0.000000
0.000000
0.000000
0.000000
0.000000
0.000000
0.000000
0.000000
0.000000
0.000000
0.000000
0.000000
0.000000
0.000000
0.000000
0.000000
0.000000
0.000000
0.000000
0.000000
0.000000
0.000000
0.000000
0.000000
0.000000
0.000000
0.000000
0.000000
0.000000
</DataArray>
</PointData>
<Cells>
<DataArray type='Int32' Name='connectivity' format='ascii'>
0
1
2
3
4
5
6
7
8
9
10
11
12
13
14
15
16
17
18
19
20
21
22
23
24
25
26
27
28
29
30
31
32
33
34
35
36
37
38
39
40
41
42
43
44
45
46
47
48
49
50
51
52
53
54
55
56
57
58
59
60
61
62
63
64
65
66
67
68
69
70
71
72
73
74
75
76
77
78
79
80
81
82
83
84
85
86
87
88
89
90
91
92
93
94
95
96
97
98
99
100
101
102
103
104
105
106
107
108
109
110
111
112
113
114
115
116
117
118
119
120
121
122
123
124
125
126
127
128
129
130
131
132
133
134
135
136
137
138
139
140
141
142
143
144
145
146
147
148
149
150
151
152
153
154
155
156
157
158
159
160
161
162
163
164
165
166
167
168
169
170
171
172
173
174
175
176
177
178
179
180
181
182
183
184
185
186
187
188
189
190
191
192
193
194
195
196
197
198
199
200
201
202
203
204
205
206
207
208
209
210
211
212
213
214
215
216
217
218
219
220
221
222
223
224
225
226
227
228
229
230
231
232
233
234
235
236
237
238
239
240
241
242
243
244
245
246
247
248
249
250
251
252
253
254
255
256
257
258
259
260
261
262
263
264
265
266
267
268
269
270
271
272
273
274
275
276
277
278
279
280
281
282
283
284
285
286
287
288
289
290
291
292
293
294
295
296
297
298
299
300
301
302
303
304
305
306
307
308
309
310
311
312
313
314
315
316
317
318
319
320
321
322
323
324
325
326
327
328
329
330
331
332
333
334
335
336
337
338
339
340
341
342
343
344
345
346