<?xml version='1.0' encoding='UTF-8'?>
<VTKFile xmlns='VTK' byte_order='LittleEndian' version='0.1' type='UnstructuredGrid'>
<UnstructuredGrid>
<Piece NumberOfCells='584' NumberOfPoints='584'>
<Points>
<DataArray NumberOfComponents='3' type='Float32' Name='Position' format='ascii'>
-0.075000 -0.075000 0.000000
-0.075000 -0.050000 0.000000
-0.075000 -0.025000 0.000000
-0.075000 0.000000 0.000000
-0.075000 0.025000 0.000000
-0.075000 0.050000 0.000000
-0.075000 0.075000 0.000000
-0.075000 0.100000 0.000000
-0.075000 0.125000 0.000000
-0.075000 0.150000 0.000000
-0.075000 0.175000 0.000000
-0.075000 0.200000 0.000000
-0.075000 0.225000 0.000000
-0.075000 0.250000 0.000000
-0.075000 0.275000 0.000000
-0.075000 0.300000 0.000000
-0.075000 0.325000 0.000000
-0.075000 0.350000 0.000000
-0.075000 0.375000 0.000000
-0.075000 0.400000 0.000000
-0.075000 0.425000 0.000000
-0.075000 0.450000 0.000000
-0.075000 0.475000 0.000000
-0.075000 0.500000 0.000000
-0.075000 0.525000 0.000000
-0.075000 0.550000 0.000000
-0.075000 0.575000 0.000000
-0.075000 0.600000 0.000000
-0.050000 -0.075000 0.000000
-0.050000 -0.050000 0.000000
-0.050000 -0.025000 0.000000
-0.050000 0.000000 0.000000
-0.050000 0.025000 0.000000
-0.050000 0.050000 0.000000
-0.050000 0.075000 0.000000
-0.050000 0.100000 0.000000
-0.050000 0.125000 0.000000
-0.050000 0.150000 0.000000
-0.050000 0.175000 0.000000
-0.050000 0.200000 0.000000
-0.050000 0.225000 0.000000
-0.050000 0.250000 0.000000
-0.050000 0.275000 0.000000
-0.050000 0.300000 0.000000
-0.050000 0.325000 0.000000
-0.050000 0.350000 0.000000
-0.050000 0.375000 0.000000
-0.050000 0.400000 0.000000
-0.050000 0.425000 0.000000
-0.050000 0.450000 0.000000
-0.050000 0.475000 0.000000
-0.050000 0.500000 0.000000
-0.050000 0.525000 0.000000
-0.050000 0.550000 0.000000
-0.050000 0.575000 0.000000
-0.050000 0.600000 0.000000
-0.025000 -0.075000 0.000000
-0.025000 -0.050000 0.000000
-0.025000 -0.025000 0.000000
-0.025000 0.000000 0.000000
-0.025000 0.025000 0.000000
-0.025000 0.050000 0.000000
-0.025000 0.075000 0.000000
-0.025000 0.100000 0.000000
-0.025000 0.125000 0.000000
-0.025000 0.150000 0.000000
-0.025000 0.175000 0.000000
-0.025000 0.200000 0.000000
-0.025000 0.225000 0.000000
-0.025000 0.250000 0.000000
-0.025000 0.275000 0.000000
-0.025000 0.300000 0.000000
-0.025000 0.325000 0.000000
-0.025000 0.350000 0.000000
-0.025000 0.375000 0.000000
-0.025000 0.400000 0.000000
-0.025000 0.425000 0.000000
-0.025000 0.450000 0.000000
-0.025000 0.475000 0.000000
-0.025000 0.500000 0.000000
-0.025000 0.525000 0.000000
-0.025000 0.550000 0.000000
-0.025000 0.575000 0.000000
-0.025000 0.600000 0.000000
0.000000 -0.075000 0.000000
0.000000 -0.050000 0.000000
0.000000 -0.025000 0.000000
0.000000 0.000000 0.000000
0.000000 0.025000 0.000000
0.000000 0.050000 0.000000
0.000000 0.075000 0.000000
0.000000 0.100000 0.000000
0.000000 0.125000 0.000000
0.000000 0.150000 0.000000
0.000000 0.175000 0.000000
0.000000 0.200000 0.000000
0.000000 0.225000 0.000000
0.000000 0.250000 0.000000
0.000000 0.275000 0.000000
0.000000 0.300000 0.000000
0.000000 0.325000 0.000000
0.000000 0.350000 0.000000
0.000000 0.375000 0.000000
0.000000 0.400000 0.000000
0.000000 0.425000 0.000000
0.000000 0.450000 0.000000
0.000000 0.475000 0.000000
0.000000 0.500000 0.000000
0.000000 0.525000 0.000000
0.000000 0.550000 0.000000
0.000000 0.575000 0.000000
0.000000 0.600000 0.000000
0.025000 -0.075000 0.000000
0.025000 -0.050000 0.000000
0.025000 -0.025000 0.000000
0.025000 0.000000 0.000000
0.284789 0.036547 0.000000
0.267629 0.024660 0.000000
0.267121 0.058123 0.000000
0.191060 0.020515 0.000000
0.378228 0.025441 0.000000
0.060518 0.019172 0.000000
0.463159 0.024288 0.000000
0.306899 0.022783 0.000000
0.228145 0.028088 0.000000
0.150245 0.042815 0.000000
0.310963 0.051464 0.000000
0.199097 0.049766 0.000000
0.160868 0.025686 0.000000
0.026721 0.027597 0.000000
0.023428 0.046380 0.000000
0.050997 0.039266 0.000000
0.108240 0.020762 0.000000
0.091086 0.036683 0.000000
0.098929 0.047908 0.000000
0.136990 0.026429 0.000000
0.050000 -0.075000 0.000000
0.050000 -0.050000 0.000000
0.050000 -0.025000 0.000000
0.050000 0.000000 0.000000
0.356887 0.032751 0.000000
0.488245 0.138239 0.000000
0.481085 0.122960 0.000000
0.276218 0.185111 0.000000
0.356821 0.146969 0.000000
0.635000 0.047912 0.000000
0.447208 0.104640 0.000000
0.751466 0.052171 0.000000
0.399470 0.027978 0.000000
0.433418 0.080250 0.000000
0.325941 0.113232 0.000000
0.449452 0.052164 0.000000
0.060137 0.053040 0.000000
0.448657 0.076036 0.000000
0.280884 0.060714 0.000000
0.301897 0.073542 0.000000
0.213496 0.042393 0.000000
0.335948 0.023251 0.000000
0.128292 0.052943 0.000000
0.185153 0.046694 0.000000
0.075000 -0.075000 0.000000
0.075000 -0.050000 0.000000
0.075000 -0.025000 0.000000
0.075000 0.000000 0.000000
0.393789 0.085231 0.000000
0.442740 0.141279 0.000000
0.535430 0.022452 0.000000
0.502739 0.022963 0.000000
0.785275 0.098716 0.000000
0.824704 0.028664 0.000000
0.817991 0.057914 0.000000
0.111618 0.092145 0.000000
0.766985 0.084961 0.000000
0.796941 0.049883 0.000000
0.621208 0.023464 0.000000
0.473879 0.100318 0.000000
0.323907 0.071666 0.000000
0.383856 0.054568 0.000000
0.419110 0.026988 0.000000
0.372279 0.064527 0.000000
0.337118 0.043966 0.000000
0.313877 0.103954 0.000000
0.346345 0.109072 0.000000
0.245154 0.027444 0.000000
0.100000 -0.075000 0.000000
0.100000 -0.050000 0.000000
0.100000 -0.025000 0.000000
0.100000 0.000000 0.000000
0.671353 0.024806 0.000000
0.599556 0.025264 0.000000
0.715579 0.076126 0.000000
0.901458 0.024630 0.000000
0.419402 0.055437 0.000000
0.878988 0.023948 0.000000
0.851487 0.093632 0.000000
0.579110 0.145611 0.000000
0.845002 0.023690 0.000000
0.842344 0.048414 0.000000
0.646161 0.032531 0.000000
0.660922 0.063811 0.000000
0.802724 0.077349 0.000000
0.778052 0.036632 0.000000
0.494425 0.080592 0.000000
0.440942 0.030110 0.000000
0.703191 0.023430 0.000000
0.706523 0.124766 0.000000
0.567451 0.044902 0.000000
0.491379 0.056489 0.000000
0.125000 -0.075000 0.000000
0.125000 -0.050000 0.000000
0.125000 -0.025000 0.000000
0.125000 0.000000 0.000000
0.880830 0.059218 0.000000
0.917876 0.107244 0.000000
1.002557 0.115736 0.000000
0.933078 0.024945 0.000000
0.900100 0.178807 0.000000
0.759104 0.022507 0.000000
0.609817 0.085967 0.000000
0.826040 0.127096 0.000000
0.921529 0.085247 0.000000
0.875654 0.107008 0.000000
0.948418 0.075515 0.000000
0.756637 0.191042 0.000000
0.681483 0.041563 0.000000
0.727985 0.062562 0.000000
0.531347 0.043444 0.000000
0.768256 0.062414 0.000000
0.721155 0.110411 0.000000
0.424073 0.123446 0.000000
0.687719 0.060978 0.000000
0.370582 0.120904 0.000000
0.150000 -0.075000 0.000000
0.150000 -0.050000 0.000000
0.150000 -0.025000 0.000000
0.150000 0.000000 0.000000
0.624045 0.129493 0.000000
1.003548 0.033513 0.000000
0.934343 0.207484 0.000000
0.571974 0.076184 0.000000
0.974266 0.050526 0.000000
0.388987 0.141487 0.000000
0.978263 0.103691 0.000000
0.699259 0.098087 0.000000
1.002056 0.085265 0.000000
0.949198 0.135926 0.000000
0.951448 0.047957 0.000000
0.866879 0.043474 0.000000
0.914803 0.041925 0.000000
0.927638 0.061120 0.000000
0.885749 0.085511 0.000000
0.801058 0.107256 0.000000
0.798121 0.023185 0.000000
0.834892 0.103965 0.000000
0.823964 0.079907 0.000000
0.630098 0.072019 0.000000
0.175000 -0.075000 0.000000
0.175000 -0.050000 0.000000
0.175000 -0.025000 0.000000
0.175000 0.000000 0.000000
0.300879 0.116008 0.000000
0.923633 0.159205 0.000000
0.962642 0.166524 0.000000
0.992938 0.133480 0.000000
0.967559 0.132035 0.000000
0.458560 0.130282 0.000000
0.955672 0.024686 0.000000
0.628266 0.154404 0.000000
0.546218 0.058752 0.000000
0.985684 0.022004 0.000000
0.832122 0.152638 0.000000
0.914929 0.131922 0.000000
0.741453 0.180267 0.000000
0.958083 0.098004 0.000000
0.976233 0.073903 0.000000
0.606425 0.055351 0.000000
0.995398 0.062383 0.000000
0.750203 0.105185 0.000000
0.657401 0.120260 0.000000
0.765318 0.163550 0.000000
0.200000 -0.075000 0.000000
0.200000 -0.050000 0.000000
0.200000 -0.025000 0.000000
0.200000 0.000000 0.000000
0.682272 0.121506 0.000000
0.402511 0.153777 0.000000
0.582754 0.090491 0.000000
0.951891 0.175626 0.000000
0.541718 0.078879 0.000000
0.729022 0.142090 0.000000
0.809398 0.139038 0.000000
0.971949 0.221055 0.000000
0.769205 0.128698 0.000000
0.402077 0.095703 0.000000
0.998309 0.161541 0.000000
0.901752 0.070913 0.000000
0.145701 0.085676 0.000000
0.681650 0.084091 0.000000
0.861794 0.123696 0.000000
0.504547 0.100361 0.000000
0.887882 0.144434 0.000000
0.668550 0.106338 0.000000
0.942521 0.114712 0.000000
0.858388 0.073919 0.000000
0.225000 -0.075000 0.000000
0.225000 -0.050000 0.000000
0.225000 -0.025000 0.000000
0.225000 0.000000 0.000000
0.629365 0.169652 0.000000
0.936088 0.899306 0.000000
0.872070 0.152825 0.000000
0.361192 0.097708 0.000000
0.341961 0.076934 0.000000
0.145686 0.112422 0.000000
0.793058 0.133227 0.000000
0.984329 0.162007 0.000000
0.868889 0.176421 0.000000
0.523123 0.095385 0.000000
0.925654 0.173232 0.000000
0.370229 0.165502 0.000000
0.509948 0.050487 0.000000
0.739424 0.085289 0.000000
0.427560 0.141762 0.000000
0.606567 0.100712 0.000000
0.716624 0.038591 0.000000
0.266126 0.158312 0.000000
0.507203 0.154625 0.000000
0.532390 0.156851 0.000000
0.250000 -0.075000 0.000000
0.250000 -0.050000 0.000000
0.250000 -0.025000 0.000000
0.250000 0.000000 0.000000
0.930008 0.406661 0.000000
0.691240 0.339703 0.000000
0.649481 0.084960 0.000000
0.642826 0.166044 0.000000
0.472651 0.499539 0.000000
0.743979 0.125733 0.000000
0.518051 0.256874 0.000000
0.551994 0.101744 0.000000
0.480759 0.032229 0.000000
0.848866 0.144312 0.000000
0.474954 0.074248 0.000000
0.233586 0.201541 0.000000
0.525841 0.122470 0.000000
0.733901 0.024299 0.000000
0.588751 0.046038 0.000000
0.538971 0.118675 0.000000
0.562502 0.022206 0.000000
0.897317 0.118007 0.000000
0.249714 0.187152 0.000000
0.889286 0.185658 0.000000
0.275000 -0.075000 0.000000
0.275000 -0.050000 0.000000
0.275000 -0.025000 0.000000
0.275000 0.000000 0.000000
0.300000 -0.075000 0.000000
0.300000 -0.050000 0.000000
0.300000 -0.025000 0.000000
0.300000 0.000000 0.000000
0.325000 -0.075000 0.000000
0.325000 -0.050000 0.000000
0.325000 -0.025000 0.000000
0.325000 0.000000 0.000000
0.350000 -0.075000 0.000000
0.350000 -0.050000 0.000000
0.350000 -0.025000 0.000000
0.350000 0.000000 0.000000
0.375000 -0.075000 0.000000
0.375000 -0.050000 0.000000
0.375000 -0.025000 0.000000
0.375000 0.000000 0.000000
0.400000 -0.075000 0.000000
0.400000 -0.050000 0.000000
0.400000 -0.025000 0.000000
0.400000 0.000000 0.000000
0.425000 -0.075000 0.000000
0.425000 -0.050000 0.000000
0.425000 -0.025000 0.000000
0.425000 0.000000 0.000000
0.450000 -0.075000 0.000000
0.450000 -0.050000 0.000000
0.450000 -0.025000 0.000000
0.450000 0.000000 0.000000
0.475000 -0.075000 0.000000
0.475000 -0.050000 0.000000
0.475000 -0.025000 0.000000
0.475000 0.000000 0.000000
0.500000 -0.075000 0.000000
0.500000 -0.050000 0.000000
0.500000 -0.025000 0.000000
0.500000 0.000000 0.000000
0.525000 -0.075000 0.000000
0.525000 -0.050000 0.000000
0.525000 -0.025000 0.000000
0.525000 0.000000 0.000000
0.550000 -0.075000 0.000000
0.550000 -0.050000 0.000000
0.550000 -0.025000 0.000000
0.550000 0.000000 0.000000
0.575000 -0.075000 0.000000
0.575000 -0.050000 0.000000
0.575000 -0.025000 0.000000
0.575000 0.000000 0.000000
0.600000 -0.075000 0.000000
0.600000 -0.050000 0.000000
0.600000 -0.025000 0.000000
0.600000 0.000000 0.000000
0.625000 -0.075000 0.000000
0.625000 -0.050000 0.000000
0.625000 -0.025000 0.000000
0.625000 0.000000 0.000000
0.650000 -0.075000 0.000000
0.650000 -0.050000 0.000000
0.650000 -0.025000 0.000000
0.650000 0.000000 0.000000
0.675000 -0.075000 0.000000
0.675000 -0.050000 0.000000
0.675000 -0.025000 0.000000
0.675000 0.000000 0.000000
0.700000 -0.075000 0.000000
0.700000 -0.050000 0.000000
0.700000 -0.025000 0.000000
0.700000 0.000000 0.000000
0.725000 -0.075000 0.000000
0.725000 -0.050000 0.000000
0.725000 -0.025000 0.000000
0.725000 0.000000 0.000000
0.750000 -0.075000 0.000000
0.750000 -0.050000 0.000000
0.750000 -0.025000 0.000000
0.750000 0.000000 0.000000
0.775000 -0.075000 0.000000
0.775000 -0.050000 0.000000
0.775000 -0.025000 0.000000
0.775000 0.000000 0.000000
0.800000 -0.075000 0.000000
0.800000 -0.050000 0.000000
0.800000 -0.025000 0.000000
0.800000 0.000000 0.000000
0.825000 -0.075000 0.000000
0.825000 -0.050000 0.000000
0.825000 -0.025000 0.000000
0.825000 0.000000 0.000000
0.850000 -0.075000 0.000000
0.850000 -0.050000 0.000000
0.850000 -0.025000 0.000000
0.850000 0.000000 0.000000
0.875000 -0.075000 0.000000
0.875000 -0.050000 0.000000
0.875000 -0.025000 0.000000
0.875000 0.000000 0.000000
0.900000 -0.075000 0.000000
0.900000 -0.050000 0.000000
0.900000 -0.025000 0.000000
0.900000 0.000000 0.000000
0.925000 -0.075000 0.000000
0.925000 -0.050000 0.000000
0.925000 -0.025000 0.000000
0.925000 0.000000 0.000000
0.950000 -0.075000 0.000000
0.950000 -0.050000 0.000000
0.950000 -0.025000 0.000000
0.950000 0.000000 0.000000
0.975000 -0.075000 0.000000
0.975000 -0.050000 0.000000
0.975000 -0.025000 0.000000
0.975000 0.000000 0.000000
1.000000 -0.075000 0.000000
1.000000 -0.050000 0.000000
1.000000 -0.025000 0.000000
1.000000 0.000000 0.000000
1.025000 -0.075000 0.000000
1.025000 -0.050000 0.000000
1.025000 -0.025000 0.000000
1.025000 0.000000 0.000000
1.025000 0.025000 0.000000
1.025000 0.050000 0.000000
1.025000 0.075000 0.000000
1.025000 0.100000 0.000000
1.025000 0.125000 0.000000
1.025000 0.150000 0.000000
1.025000 0.175000 0.000000
1.025000 0.200000 0.000000
1.025000 0.225000 0.000000
1.025000 0.250000 0.000000
1.025000 0.275000 0.000000
1.025000 0.300000 0.000000
1.025000 0.325000 0.000000
1.025000 0.350000 0.000000
1.025000 0.375000 0.000000
1.025000 0.400000 0.000000
1.025000 0.425000 0.000000
1.025000 0.450000 0.000000
1.025000 0.475000 0.000000
1.025000 0.500000 0.000000
1.025000 0.525000 0.000000
1.025000 0.550000 0.000000
1.025000 0.575000 0.000000
1.025000 0.600000 0.000000
1.050000 -0.075000 0.000000
1.050000 -0.050000 0.000000
1.050000 -0.025000 0.000000
1.050000 0.000000 0.000000
1.050000 0.025000 0.000000
1.050000 0.050000 0.000000
1.050000 0.075000 0.000000
1.050000 0.100000 0.000000
1.050000 0.125000 0.000000
1.050000 0.150000 0.000000
1.050000 0.175000 0.000000
1.050000 0.200000 0.000000
1.050000 0.225000 0.000000
1.050000 0.250000 0.000000
1.050000 0.275000 0.000000
1.050000 0.300000 0.000000
1.050000 0.325000 0.000000
1.050000 0.350000 0.000000
1.050000 0.375000 0.000000
1.050000 0.400000 0.000000
1.050000 0.425000 0.000000
1.050000 0.450000 0.000000
1.050000 0.475000 0.000000
1.050000 0.500000 0.000000
1.050000 0.525000 0.000000
1.050000 0.550000 0.000000
1.050000 0.575000 0.000000
1.050000 0.600000 0.000000
1.075000 -0.075000 0.000000
1.075000 -0.050000 0.000000
1.075000 -0.025000 0.000000
1.075000 0.000000 0.000000
1.075000 0.025000 0.000000
1.075000 0.050000 0.000000
1.075000 0.075000 0.000000
1.075000 0.100000 0.000000
1.075000 0.125000 0.000000
1.075000 0.150000 0.000000
1.075000 0.175000 0.000000
1.075000 0.200000 0.000000
1.075000 0.225000 0.000000
1.075000 0.250000 0.000000
1.075000 0.275000 0.000000
1.075000 0.300000 0.000000
1.075000 0.325000 0.000000
1.075000 0.350000 0.000000
1.075000 0.375000 0.000000
1.075000 0.400000 0.000000
1.075000 0.425000 0.000000
1.075000 0.450000 0.000000
1.075000 0.475000 0.000000
1.075000 0.500000 0.000000
1.075000 0.525000 0.000000
1.075000 0.550000 0.000000
1.075000 0.575000 0.000000
1.075000 0.600000 0.000000
1.100000 -0.075000 0.000000
1.100000 -0.050000 0.000000
1.100000 -0.025000 0.000000
1.100000 0.000000 0.000000
1.100000 0.025000 0.000000
1.100000 0.050000 0.000000
1.100000 0.075000 0.000000
1.100000 0.100000 0.000000
1.100000 0.125000 0.000000
1.100000 0.150000 0.000000
1.100000 0.175000 0.000000
1.100000 0.200000 0.000000
1.100000 0.225000 0.000000
1.100000 0.250000 0.000000
1.100000 0.275000 0.000000
1.100000 0.300000 0.000000
1.100000 0.325000 0.000000
1.100000 0.350000 0.000000
1.100000 0.375000 0.000000
1.100000 0.400000 0.000000
1.100000 0.425000 0.000000
1.100000 0.450000 0.000000
1.100000 0.475000 0.000000
1.100000 0.500000 0.000000
1.100000 0.525000 0.000000
1.100000 0.550000 0.000000
1.100000 0.575000 0.000000
1.100000 0.600000 0.000000
</DataArray>
</Points>
<PointData>
<DataArray NumberOfComponents='1' type='Int32' Name='ParticleType' format='ascii'>
3
3
3
3
3
3
3
3
3
3
3
3
3
3
3
3
3
3
3
3
3
3
3
3
3
3
2
2
3
3
3
3
3
3
3
3
3
3
3
3
3
3
3
3
3
3
3
3
3
3
3
3
3
3
2
2
3
3
2
2
2
2
2
2
2
2
2
2
2
2
2
2
2
2
2
2
2
2
2
2
2
2
2
2
3
3
2
2
2
2
2
2
2
2
2
2
2
2
2
2
2
2
2
2
2
2
2
2
2
2
2
2
3
3
2
2
0
0
0
0
0
0
0
0
0
0
0
0
0
0
0
0
0
0
0
0
3
3
2
2
0
0
0
0
0
0
0
0
0
0
0
0
0
0
0
0
0
0
0
0
3
3
2
2
0
0
0
0
0
0
0
0
0
0
0
0
0
0
0
0
0
0
0
0
3
3
2
2
0
0
0
0
0
0
0
0
0
0
0
0
0
0
0
0
0
0
0
0
3
3
2
2
0
0
0
0
0
0
0
0
0
0
0
0
0
0
0
0
0
0
0
0
3
3
2
2
0
0
0
0
0
0
0
0
0
0
0
0
0
0
0
0
0
0
0
0
3
3
2
2
0
0
0
0
0
0
0
0
0
0
0
0
0
0
0
0
0
0
0
0
3
3
2
2
0
0
0
0
0
0
0
0
0
0
0
0
0
0
0
0
0
0
0
0
3
3
2
2
0
0
0
0
0
0
0
0
0
0
0
0
0
0
0
0
0
0
0
0
3
3
2
2
0
0
0
0
0
0
0
0
0
0
0
0
0
0
0
0
0
0
0
0
3
3
2
2
3
3
2
2
3
3
2
2
3
3
2
2
3
3
2
2
3
3
2
2
3
3
2
2
3
3
2
2
3
3
2
2
3
3
2
2
3
3
2
2
3
3
2
2
3
3
2
2
3
3
2
2
3
3
2
2
3
3
2
2
3
3
2
2
3
3
2
2
3
3
2
2
3
3
2
2
3
3
2
2
3
3
2
2
3
3
2
2
3
3
2
2
3
3
2
2
3
3
2
2
3
3
2
2
3
3
2
2
3
3
2
2
3
3
2
2
3
3
2
2
2
2
2
2
2
2
2
2
2
2
2
2
2
2
2
2
2
2
2
2
2
2
2
2
3
3
2
2
2
2
2
2
2
2
2
2
2
2
2
2
2
2
2
2
2
2
2
2
2
2
2
2
3
3
3
3
3
3
3
3
3
3
3
3
3
3
3
3
3
3
3
3
3
3
3
3
3
3
2
2
3
3
3
3
3
3
3
3
3
3
3
3
3
3
3
3
3
3
3
3
3
3
3
3
3
3
2
2
</DataArray>
<DataArray NumberOfComponents='1' type='Float32' Name='Velocity' format='ascii'>
0.000000
0.000000
0.000000
0.000000
0.000000
0.000000
0.000000
0.000000
0.000000
0.000000
0.000000
0.000000
0.000000
0.000000
0.000000
0.000000
0.000000
0.000000
0.000000
0.000000
0.000000
0.000000
0.000000
0.000000
0.000000
0.000000
0.000000
0.000000
0.000000
0.000000
0.000000
0.000000
0.000000
0.000000
0.000000
0.000000
0.000000
0.000000
0.000000
0.000000
0.000000
0.000000
0.000000
0.000000
0.000000
0.000000
0.000000
0.000000
0.000000
0.000000
0.000000
0.000000
0.000000
0.000000
0.000000
0.000000
0.000000
0.000000
0.000000
0.000000
0.000000
0.000000
0.000000
0.000000
0.000000
0.000000
0.000000
0.000000
0.000000
0.000000
0.000000
0.000000
0.000000
0.000000
0.000000
0.000000
0.000000
0.000000
0.000000
0.000000
0.000000
0.000000
0.000000
0.000000
0.000000
0.000000
0.000000
0.000000
0.000000
0.000000
0.000000
0.000000
0.000000
0.000000
0.000000
0.000000
0.000000
0.000000
0.000000
0.000000
0.000000
0.000000
0.000000
0.000000
0.000000
0.000000
0.000000
0.000000
0.000000
0.000000
0.000000
0.000000
0.000000
0.000000
0.000000
0.000000
0.223874
0.018891
0.191830
0.038037
0.274887
0.206147
0.481779
0.497657
0.068586
0.061793
0.071092
0.214615
0.243936
0.086407
0.116354
0.131902
0.062841
0.131773
0.305163
0.217308
0.000000
0.000000
0.000000
0.000000
0.624334
1.357262
1.338514
2.298754
2.168350
0.441966
1.483879
0.447384
0.363561
0.278989
1.063995
0.661203
0.032607
0.188727
0.508452
1.370303
0.025274
0.056001
0.209213
0.162055
0.000000
0.000000
0.000000
0.000000
0.187156
1.643353
0.233770
0.770362
0.494862
0.201674
0.356025
2.905211
0.593395
0.312617
0.654593
1.616152
0.733929
0.388911
0.402895
0.357735
0.436737
1.592036
1.448049
0.083614
0.000000
0.000000
0.000000
0.000000
0.566297
0.077022
0.715049
0.095804
0.249256
0.215971
0.389783
2.078706
0.276712
0.282644
0.661204
0.950388
0.491680
0.500149
1.482166
0.573082
0.293736
1.007230
0.547073
0.823080
0.000000
0.000000
0.000000
0.000000
0.630121
0.143026
0.215087
0.288549
0.524458
0.166333
0.590787
0.688291
0.081052
0.245299
0.186226
0.256934
0.451018
0.467564
0.965721
0.471617
0.575207
1.424919
0.755585
1.649107
0.000000
0.000000
0.000000
0.000000
1.548319
0.286774
1.508078
0.900429
0.390151
1.808499
0.247494
0.767369
0.374833
0.276033
0.315771
0.438923
0.287652
0.401628
0.205851
0.444086
0.422425
0.492610
0.383485
0.399643
0.000000
0.000000
0.000000
0.000000
1.661522
0.653502
0.300207
0.385170
0.195740
1.687393
0.334293
2.320869
0.715729
0.264792
0.397383
0.177343
0.425903
0.169251
0.317454
0.439204
0.259995
0.876694
1.617943
0.664889
0.000000
0.000000
0.000000
0.000000
1.697813
1.582729
1.486410
0.547277
1.648929
1.191039
0.954374
1.475279
1.020119
0.550838
0.218756
0.493109
2.840003
0.803363
0.596605
1.607924
0.483574
1.018340
0.331316
0.687893
0.000000
0.000000
0.000000
0.000000
1.332601
2.807561
0.796565
1.854898
0.940206
2.839392
1.028977
0.430365
0.762423
1.428144
0.450460
1.197756
0.474497
0.952681
1.506677
1.431922
0.458650
2.760822
0.800381
1.070313
0.000000
0.000000
0.000000
0.000000
3.541154
3.528953
0.472913
1.273160
3.447456
1.308864
3.673037
2.400563
0.282668
0.670318
0.370024
2.578823
1.942750
0.311068
0.620189
2.076589
0.475571
0.267251
2.308840
0.725660
0.000000
0.000000
0.000000
0.000000
0.000000
0.000000
0.000000
0.000000
0.000000
0.000000
0.000000
0.000000
0.000000
0.000000
0.000000
0.000000
0.000000
0.000000
0.000000
0.000000
0.000000
0.000000
0.000000
0.000000
0.000000
0.000000
0.000000
0.000000
0.000000
0.000000
0.000000
0.000000
0.000000
0.000000
0.000000
0.000000
0.000000
0.000000
0.000000
0.000000
0.000000
0.000000
0.000000
0.000000
0.000000
0.000000
0.000000
0.000000
0.000000
0.000000
0.000000
0.000000
0.000000
0.000000
0.000000
0.000000
0.000000
0.000000
0.000000
0.000000
0.000000
0.000000
0.000000
0.000000
0.000000
0.000000
0.000000
0.000000
0.000000
0.000000
0.000000
0.000000
0.000000
0.000000
0.000000
0.000000
0.000000
0.000000
0.000000
0.000000
0.000000
0.000000
0.000000
0.000000
0.000000
0.000000
0.000000
0.000000
0.000000
0.000000
0.000000
0.000000
0.000000
0.000000
0.000000
0.000000
0.000000
0.000000
0.000000
0.000000
0.000000
0.000000
0.000000
0.000000
0.000000
0.000000
0.000000
0.000000
0.000000
0.000000
0.000000
0.000000
0.000000
0.000000
0.000000
0.000000
0.000000
0.000000
0.000000
0.000000
0.000000
0.000000
0.000000
0.000000
0.000000
0.000000
0.000000
0.000000
0.000000
0.000000
0.000000
0.000000
0.000000
0.000000
0.000000
0.000000
0.000000
0.000000
0.000000
0.000000
0.000000
0.000000
0.000000
0.000000
0.000000
0.000000
0.000000
0.000000
0.000000
0.000000
0.000000
0.000000
0.000000
0.000000
0.000000
0.000000
0.000000
0.000000
0.000000
0.000000
0.000000
0.000000
0.000000
0.000000
0.000000
0.000000
0.000000
0.000000
0.000000
0.000000
0.000000
0.000000
0.000000
0.000000
0.000000
0.000000
0.000000
0.000000
0.000000
0.000000
0.000000
0.000000
0.000000
0.000000
0.000000
0.000000
0.000000
0.000000
0.000000
0.000000
0.000000
0.000000
0.000000
0.000000
0.000000
0.000000
0.000000
0.000000
0.000000
0.000000
0.000000
0.000000
0.000000
0.000000
0.000000
0.000000
0.000000
0.000000
0.000000
0.000000
0.000000
0.000000
0.000000
0.000000
0.000000
0.000000
0.000000
0.000000
0.000000
0.000000
0.000000
0.000000
0.000000
0.000000
0.000000
0.000000
0.000000
0.000000
0.000000
0.000000
0.000000
0.000000
</DataArray>
<DataArray NumberOfComponents='1' type='Float32' Name='pressure' format='ascii'>
0.000000
0.000000
0.000000
0.000000
0.000000
0.000000
0.000000
0.000000
0.000000
0.000000
0.000000
0.000000
0.000000
0.000000
0.000000
0.000000
0.000000
0.000000
0.000000
0.000000
0.000000
0.000000
0.000000
0.000000
0.000000
0.000000
0.000000
0.000000
0.000000
0.000000
0.000000
0.000000
0.000000
0.000000
0.000000
0.000000
0.000000
0.000000
0.000000
0.000000
0.000000
0.000000
0.000000
0.000000
0.000000
0.000000
0.000000
0.000000
0.000000
0.000000
0.000000
0.000000
0.000000
0.000000
0.000000
0.000000
0.000000
0.000000
0.000000
0.000000
0.000000
0.000000
0.000000
0.000000
0.000000
0.000000
0.000000
0.000000
0.000000
0.000000
0.000000
0.000000
0.000000
0.000000
0.000000
0.000000
0.000000
0.000000
0.000000
0.000000
0.000000
0.000000
0.000000
0.000000
0.000000
0.000000
0.000000
0.000000
0.000000
0.000000
0.000000
0.000000
0.000000
0.000000
0.000000
0.000000
0.000000
0.000000
0.000000
0.000000
0.000000
0.000000
0.000000
0.000000
0.000000
0.000000
0.000000
0.000000
0.000000
0.000000
0.000000
0.000000
0.000000
0.000000
0.000000
0.000000
1308.427979
916.772949
0.000000
1149.772339
2089.101074
1062.388550
4717.256348
0.000000
797.796143
0.000000
308.509003
0.000000
410.196625
867.638428
0.000000
0.000000
0.000000
92.063171
0.000000
591.466980
0.000000
0.000000
1901.272461
906.453003
784.056030
0.000000
0.000000
0.000000
0.000000
249.271423
0.000000
0.000000
3003.221436
0.000000
0.000000
0.000000
0.000000
3783.645020
0.000000
0.000000
0.000000
3433.414795
0.000000
0.000000
0.000000
0.000000
2220.164795
0.000000
0.000000
0.000000
4911.335938
1694.295776
518.629578
783.386169
1005.889648
0.000000
0.000000
691.594727
499.490967
0.000000
1677.936401
0.000000
2854.337158
0.000000
229.388992
1404.406494
0.000000
0.000000
0.000000
0.000000
2412.415527
1446.494751
0.000000
1290.234131
0.000000
1015.562195
0.000000
173.624924
1299.273926
0.000000
1920.892456
0.000000
0.000000
0.000000
0.000000
1554.820068
2526.919678
2748.099121
2076.196289
0.000000
721.421692
3559.767822
0.000000
0.000000
1367.739136
158.899826
1346.315063
952.619873
467.609833
1049.149048
70.073235
1218.976074
0.000000
656.114746
714.300171
1931.496948
0.000000
0.000000
1459.687378
1546.073120
2421.177734
465.897064
2156.363770
0.000000
0.000000
0.000000
0.000000
0.000000
207.831100
1009.732544
0.000000
723.055115
0.000000
0.000000
754.040894
0.000000
0.000000
1732.635620
0.000000
0.000000
1295.865112
1195.535645
821.913147
1367.460205
1348.149902
315.296692
0.000000
0.000000
0.000000
0.000000
0.000000
0.000000
1076.189331
182.777374
0.000000
0.000000
256.592377
0.000000
185.388794
0.000000
1152.069092
0.000000
1136.186035
1241.771851
0.000000
0.000000
0.000000
1255.818970
494.366425
0.000000
1004.558960
456.137695
0.000000
0.000000
0.000000
0.000000
1239.967163
0.000000
0.000000
0.000000
0.000000
0.000000
0.000000
0.000000
0.000000
0.000000
0.000000
0.000000
0.000000
1300.943115
0.000000
1102.584106
0.000000
1353.111450
0.000000
1493.450562
0.000000
0.000000
0.000000
0.000000
0.000000
0.000000
0.000000
0.000000
0.000000
0.000000
0.000000
0.000000
0.000000
485.201477
0.000000
12.877203
0.000000
0.000000
702.251587
1386.981567
0.000000
0.000000
946.010010
0.000000
0.000000
0.000000
0.000000
0.000000
0.000000
0.000000
0.000000
0.000000
0.000000
0.000000
0.000000
0.000000
0.000000
0.000000
4176.767578
0.000000
4428.741211
0.000000
0.000000
931.849304
1057.380127
0.000000
1228.233521
0.000000
0.000000
0.000000
0.000000
0.000000
0.000000
0.000000
0.000000
0.000000
910.220886
0.000000
0.000000
0.000000
1389.671021
1228.261841
0.000000
0.000000
709.297302
844.824829
0.000000
0.000000
295.890289
0.000000
0.000000
0.000000
0.000000
183.093018
0.000000
0.000000
0.000000
0.000000
0.000000
0.000000
1192.909668
954.959473
0.000000
0.000000
2384.733154
3270.086914
0.000000
0.000000
4053.070557
3421.326904
0.000000
0.000000
4126.723145
3934.145020
0.000000
0.000000
4370.728027
3961.824219
0.000000
0.000000
2283.804932
0.000000
0.000000
0.000000
802.903931
0.000000
0.000000
0.000000
721.873901
0.000000
0.000000
0.000000
0.000000
0.000000
0.000000
0.000000
769.726074
0.000000
0.000000
0.000000
2224.519287
3284.862305
0.000000
0.000000
2130.470703
3802.392090
0.000000
0.000000
2424.551025
1744.317627
0.000000
0.000000
906.954712
0.000000
0.000000
0.000000
963.156555
0.000000
0.000000
0.000000
0.000000
0.000000
0.000000
0.000000
1335.422974
1114.534912
0.000000
0.000000
1852.839844
2017.707397
0.000000
0.000000
1906.139526
2774.130127
0.000000
0.000000
1575.797729
1483.708130
0.000000
0.000000
1776.923950
2045.496460
0.000000
0.000000
2321.678955
1631.370728
0.000000
0.000000
1916.963257
963.696533
0.000000
0.000000
1561.986694
1404.995850
1812.942993
0.000000
0.000000
869.385559
0.000000
0.000000
0.000000
0.000000
0.000000
0.000000
0.000000
0.000000
0.000000
0.000000
0.000000
0.000000
0.000000
0.000000
0.000000
0.000000
0.000000
0.000000
0.000000
0.000000
0.000000
0.000000
1557.269409
1475.929688
2117.220947
902.609375
736.773438
1025.946289
459.668823
0.000000
0.000000
0.000000
0.000000
0.000000
0.000000
0.000000
0.000000
0.000000
0.000000
0.000000
0.000000
0.000000
0.000000
0.000000
0.000000
0.000000
0.000000
0.000000
0.000000
0.000000
0.000000
0.000000
0.000000
0.000000
0.000000
0.000000
0.000000
0.000000
0.000000
0.000000
0.000000
0.000000
0.000000
0.000000
0.000000
0.000000
0.000000
0.000000
0.000000
0.000000
0.000000
0.000000
0.000000
0.000000
0.000000
0.000000
0.000000
0.000000
0.000000
0.000000
0.000000
0.000000
0.000000
0.000000
0.000000
0.000000
0.000000
0.000000
0.000000
0.000000
0.000000
0.000000
0.000000
0.000000
0.000000
0.000000
0.000000
0.000000
0.000000
0.000000
0.000000
0.000000
0.000000
0.000000
</DataArray>
</PointData>
<Cells>
<DataArray type='Int32' Name='connectivity' format='ascii'>
0
1
2
3
4
5
6
7
8
9
10
11
12
13
14
15
16
17
18
19
20
21
22
23
24
25
26
27
28
29
30
31
32
33
34
35
36
37
38
39
40
41
42
43
44
45
46
47
48
49
50
51
52
53
54
55
56
57
58
59
60
61
62
63
64
65
66
67
68
69
70
71
72
73
74
75
76
77
78
79
80
81
82
83
84
85
86
87
88
89
90
91
92
93
94
95
96
97
98
99
100
101
102
103
104
105
106
107
108
109
110
111
112
113
114
115
116
117
118
119
120
121
122
123
124
125
126
127
128
129
130
131
132
133
134
135
136
137
138
139
140
141
142
143
144
145
146
147
148
149
150
151
152
153
154
155
156
157
158
159
160
161
162
163
164
165
166
167
168
169
170
171
172
173
174
175
176
177
178
179
180
181
182
183
184
185
186
187
188
189
190
191
192
193
194
195
196
197
198
199
200
201
202
203
204
205
206
207
208
209
210
211
212
213
214
215
216
217
218
219
220
221
222
223
224
225
226
227
228
229
230
231
232
233
234
235
236
237
238
239
240
241
242
243
244
245
246
247
248
249
250
251
252
253
254
255
256
257
258
259
260
261
262
263
264
265
266
267
268
269
270
271
272
273
274
275
276
277
278
279
280
281
282
283
284
285
286
287
288
289
290
291
292
293
294
295
296
297
298
299
300
301
302
303
304
305
306
307
308
309
310
311
312
313
314
315
316
317
318
319
320
321
322
323
324
325
326
327
328
329
330
331
332
333
334
335
336
337
338