<?xml version='1.0' encoding='UTF-8'?>
<VTKFile xmlns='VTK' byte_order='LittleEndian' version='0.1' type='UnstructuredGrid'>
<UnstructuredGrid>
<Piece NumberOfCells='584' NumberOfPoints='584'>
<Points>
<DataArray NumberOfComponents='3' type='Float32' Name='Position' format='ascii'>
-0.075000 -0.075000 0.000000
-0.075000 -0.050000 0.000000
-0.075000 -0.025000 0.000000
-0.075000 0.000000 0.000000
-0.075000 0.025000 0.000000
-0.075000 0.050000 0.000000
-0.075000 0.075000 0.000000
-0.075000 0.100000 0.000000
-0.075000 0.125000 0.000000
-0.075000 0.150000 0.000000
-0.075000 0.175000 0.000000
-0.075000 0.200000 0.000000
-0.075000 0.225000 0.000000
-0.075000 0.250000 0.000000
-0.075000 0.275000 0.000000
-0.075000 0.300000 0.000000
-0.075000 0.325000 0.000000
-0.075000 0.350000 0.000000
-0.075000 0.375000 0.000000
-0.075000 0.400000 0.000000
-0.075000 0.425000 0.000000
-0.075000 0.450000 0.000000
-0.075000 0.475000 0.000000
-0.075000 0.500000 0.000000
-0.075000 0.525000 0.000000
-0.075000 0.550000 0.000000
-0.075000 0.575000 0.000000
-0.075000 0.600000 0.000000
-0.050000 -0.075000 0.000000
-0.050000 -0.050000 0.000000
-0.050000 -0.025000 0.000000
-0.050000 0.000000 0.000000
-0.050000 0.025000 0.000000
-0.050000 0.050000 0.000000
-0.050000 0.075000 0.000000
-0.050000 0.100000 0.000000
-0.050000 0.125000 0.000000
-0.050000 0.150000 0.000000
-0.050000 0.175000 0.000000
-0.050000 0.200000 0.000000
-0.050000 0.225000 0.000000
-0.050000 0.250000 0.000000
-0.050000 0.275000 0.000000
-0.050000 0.300000 0.000000
-0.050000 0.325000 0.000000
-0.050000 0.350000 0.000000
-0.050000 0.375000 0.000000
-0.050000 0.400000 0.000000
-0.050000 0.425000 0.000000
-0.050000 0.450000 0.000000
-0.050000 0.475000 0.000000
-0.050000 0.500000 0.000000
-0.050000 0.525000 0.000000
-0.050000 0.550000 0.000000
-0.050000 0.575000 0.000000
-0.050000 0.600000 0.000000
-0.025000 -0.075000 0.000000
-0.025000 -0.050000 0.000000
-0.025000 -0.025000 0.000000
-0.025000 0.000000 0.000000
-0.025000 0.025000 0.000000
-0.025000 0.050000 0.000000
-0.025000 0.075000 0.000000
-0.025000 0.100000 0.000000
-0.025000 0.125000 0.000000
-0.025000 0.150000 0.000000
-0.025000 0.175000 0.000000
-0.025000 0.200000 0.000000
-0.025000 0.225000 0.000000
-0.025000 0.250000 0.000000
-0.025000 0.275000 0.000000
-0.025000 0.300000 0.000000
-0.025000 0.325000 0.000000
-0.025000 0.350000 0.000000
-0.025000 0.375000 0.000000
-0.025000 0.400000 0.000000
-0.025000 0.425000 0.000000
-0.025000 0.450000 0.000000
-0.025000 0.475000 0.000000
-0.025000 0.500000 0.000000
-0.025000 0.525000 0.000000
-0.025000 0.550000 0.000000
-0.025000 0.575000 0.000000
-0.025000 0.600000 0.000000
0.000000 -0.075000 0.000000
0.000000 -0.050000 0.000000
0.000000 -0.025000 0.000000
0.000000 0.000000 0.000000
0.000000 0.025000 0.000000
0.000000 0.050000 0.000000
0.000000 0.075000 0.000000
0.000000 0.100000 0.000000
0.000000 0.125000 0.000000
0.000000 0.150000 0.000000
0.000000 0.175000 0.000000
0.000000 0.200000 0.000000
0.000000 0.225000 0.000000
0.000000 0.250000 0.000000
0.000000 0.275000 0.000000
0.000000 0.300000 0.000000
0.000000 0.325000 0.000000
0.000000 0.350000 0.000000
0.000000 0.375000 0.000000
0.000000 0.400000 0.000000
0.000000 0.425000 0.000000
0.000000 0.450000 0.000000
0.000000 0.475000 0.000000
0.000000 0.500000 0.000000
0.000000 0.525000 0.000000
0.000000 0.550000 0.000000
0.000000 0.575000 0.000000
0.000000 0.600000 0.000000
0.025000 -0.075000 0.000000
0.025000 -0.050000 0.000000
0.025000 -0.025000 0.000000
0.025000 0.000000 0.000000
0.087654 0.019646 0.000000
0.057118 0.024884 0.000000
0.052763 0.044814 0.000000
0.028344 0.023523 0.000000
0.093919 0.040320 0.000000
0.022393 0.044854 0.000000
0.103289 0.062998 0.000000
0.075394 0.056051 0.000000
0.066212 0.079856 0.000000
0.044317 0.067102 0.000000
0.079535 0.100080 0.000000
0.047012 0.095621 0.000000
0.024979 0.076141 0.000000
0.019826 0.108148 0.000000
0.025224 0.139391 0.000000
0.031778 0.162779 0.000000
0.054642 0.179530 0.000000
0.022971 0.180563 0.000000
0.037966 0.219679 0.000000
0.020647 0.214269 0.000000
0.050000 -0.075000 0.000000
0.050000 -0.050000 0.000000
0.050000 -0.025000 0.000000
0.050000 0.000000 0.000000
0.134557 0.020834 0.000000
0.118259 0.040794 0.000000
0.141302 0.043577 0.000000
0.208079 0.062805 0.000000
0.150711 0.070666 0.000000
0.156743 0.089749 0.000000
0.129258 0.070468 0.000000
0.180062 0.106136 0.000000
0.097248 0.084812 0.000000
0.121213 0.094089 0.000000
0.102701 0.113807 0.000000
0.127869 0.119396 0.000000
0.044705 0.115893 0.000000
0.096868 0.134709 0.000000
0.070968 0.126006 0.000000
0.074540 0.146352 0.000000
0.047800 0.141900 0.000000
0.071184 0.171398 0.000000
0.052103 0.204571 0.000000
0.069425 0.218556 0.000000
0.075000 -0.075000 0.000000
0.075000 -0.050000 0.000000
0.075000 -0.025000 0.000000
0.075000 0.000000 0.000000
0.171669 0.022385 0.000000
0.183762 0.059999 0.000000
0.212631 0.022085 0.000000
0.164947 0.039724 0.000000
0.228205 0.043721 0.000000
0.296925 0.049040 0.000000
0.288706 0.083282 0.000000
0.183682 0.085496 0.000000
0.240980 0.061589 0.000000
0.197539 0.124199 0.000000
0.208201 0.105438 0.000000
0.152402 0.111021 0.000000
0.147376 0.138656 0.000000
0.122864 0.140213 0.000000
0.099757 0.167545 0.000000
0.086989 0.193357 0.000000
0.117615 0.186267 0.000000
0.111943 0.211349 0.000000
0.140841 0.205361 0.000000
0.083512 0.214527 0.000000
0.100000 -0.075000 0.000000
0.100000 -0.050000 0.000000
0.100000 -0.025000 0.000000
0.100000 0.000000 0.000000
0.267426 0.029403 0.000000
0.238537 0.023211 0.000000
0.269258 0.050168 0.000000
0.338409 0.064241 0.000000
0.196176 0.041864 0.000000
0.341375 0.028159 0.000000
0.317773 0.047549 0.000000
0.315068 0.072010 0.000000
0.267958 0.070360 0.000000
0.300870 0.112686 0.000000
0.217837 0.081565 0.000000
0.254915 0.088714 0.000000
0.237050 0.099235 0.000000
0.230340 0.122699 0.000000
0.174514 0.137085 0.000000
0.122083 0.170481 0.000000
0.195780 0.158772 0.000000
0.161433 0.152769 0.000000
0.168611 0.204474 0.000000
0.152521 0.174785 0.000000
0.125000 -0.075000 0.000000
0.125000 -0.050000 0.000000
0.125000 -0.025000 0.000000
0.125000 0.000000 0.000000
0.403129 0.022400 0.000000
0.320422 0.023779 0.000000
0.498967 0.023661 0.000000
0.463134 0.027257 0.000000
0.480039 0.038878 0.000000
0.287566 0.021893 0.000000
0.366107 0.024533 0.000000
0.386074 0.039560 0.000000
0.363012 0.070580 0.000000
0.311416 0.092654 0.000000
0.350968 0.090780 0.000000
0.340316 0.102309 0.000000
0.268815 0.109479 0.000000
0.230713 0.161367 0.000000
0.217638 0.185401 0.000000
0.216779 0.139495 0.000000
0.283526 0.168610 0.000000
0.200305 0.175715 0.000000
0.237573 0.184175 0.000000
0.170566 0.184570 0.000000
0.150000 -0.075000 0.000000
0.150000 -0.050000 0.000000
0.150000 -0.025000 0.000000
0.150000 0.000000 0.000000
0.588112 0.028580 0.000000
0.522076 0.024904 0.000000
0.574938 0.047237 0.000000
0.514214 0.048282 0.000000
0.562276 0.021303 0.000000
0.609356 0.044639 0.000000
0.447623 0.048824 0.000000
0.536528 0.056686 0.000000
0.437565 0.021968 0.000000
0.462908 0.059605 0.000000
0.414973 0.041193 0.000000
0.362476 0.046925 0.000000
0.400182 0.062683 0.000000
0.391478 0.099247 0.000000
0.339378 0.126476 0.000000
0.283456 0.126491 0.000000
0.255293 0.130441 0.000000
0.277743 0.147733 0.000000
0.272992 0.176309 0.000000
0.253954 0.155269 0.000000
0.175000 -0.075000 0.000000
0.175000 -0.050000 0.000000
0.175000 -0.025000 0.000000
0.175000 0.000000 0.000000
0.756679 0.043511 0.000000
0.649077 0.022397 0.000000
0.722839 0.036405 0.000000
0.744457 0.020551 0.000000
0.699319 0.025174 0.000000
0.613001 0.023876 0.000000
0.679863 0.024071 0.000000
0.671182 0.046938 0.000000
0.585785 0.069751 0.000000
0.638164 0.040838 0.000000
0.499846 0.062749 0.000000
0.534631 0.081330 0.000000
0.428276 0.062224 0.000000
0.444192 0.107578 0.000000
0.384588 0.079267 0.000000
0.422656 0.081484 0.000000
0.386753 0.117245 0.000000
0.352911 0.145859 0.000000
0.328570 0.143520 0.000000
0.317116 0.131216 0.000000
0.200000 -0.075000 0.000000
0.200000 -0.050000 0.000000
0.200000 -0.025000 0.000000
0.200000 0.000000 0.000000
0.975137 0.073154 0.000000
0.841241 0.024591 0.000000
0.939485 0.060624 0.000000
0.789269 0.020558 0.000000
0.914112 0.024242 0.000000
0.871612 0.022625 0.000000
0.822024 0.028711 0.000000
0.776384 0.039529 0.000000
0.701674 0.062868 0.000000
0.699873 0.087666 0.000000
0.655935 0.067584 0.000000
0.547637 0.036663 0.000000
0.610397 0.072307 0.000000
0.559438 0.075152 0.000000
0.460764 0.089555 0.000000
0.513067 0.113262 0.000000
0.483320 0.095589 0.000000
0.415597 0.103768 0.000000
0.432876 0.122722 0.000000
0.381749 0.146668 0.000000
0.225000 -0.075000 0.000000
0.225000 -0.050000 0.000000
0.225000 -0.025000 0.000000
0.225000 0.000000 0.000000
0.983144 0.022403 0.000000
0.987304 0.114778 0.000000
0.959793 0.028819 0.000000
0.910968 0.069325 0.000000
0.937490 0.025224 0.000000
0.948907 0.083440 0.000000
0.960705 0.051667 0.000000
0.892944 0.032137 0.000000
0.851213 0.046587 0.000000
0.875339 0.051018 0.000000
0.805132 0.042646 0.000000
0.779241 0.066496 0.000000
0.773964 0.077708 0.000000
0.719683 0.070367 0.000000
0.650273 0.085528 0.000000
0.598688 0.090046 0.000000
0.585934 0.095313 0.000000
0.532371 0.106868 0.000000
0.464981 0.107691 0.000000
0.383903 0.133273 0.000000
0.250000 -0.075000 0.000000
0.250000 -0.050000 0.000000
0.250000 -0.025000 0.000000
0.250000 0.000000 0.000000
1.004198 0.190213 0.000000
1.003020 0.101148 0.000000
0.985544 0.048412 0.000000
1.005067 0.042155 0.000000
1.005852 0.157815 0.000000
1.001996 0.077584 0.000000
0.972215 0.112706 0.000000
0.964586 0.095157 0.000000
0.926792 0.091359 0.000000
0.913585 0.049231 0.000000
0.891960 0.075741 0.000000
0.879362 0.083305 0.000000
0.853613 0.065736 0.000000
0.841199 0.083584 0.000000
0.811742 0.061289 0.000000
0.735917 0.047916 0.000000
0.681293 0.064588 0.000000
0.633580 0.061804 0.000000
0.549945 0.091897 0.000000
0.494069 0.078394 0.000000
0.275000 -0.075000 0.000000
0.275000 -0.050000 0.000000
0.275000 -0.025000 0.000000
0.275000 0.000000 0.000000
0.300000 -0.075000 0.000000
0.300000 -0.050000 0.000000
0.300000 -0.025000 0.000000
0.300000 0.000000 0.000000
0.325000 -0.075000 0.000000
0.325000 -0.050000 0.000000
0.325000 -0.025000 0.000000
0.325000 0.000000 0.000000
0.350000 -0.075000 0.000000
0.350000 -0.050000 0.000000
0.350000 -0.025000 0.000000
0.350000 0.000000 0.000000
0.375000 -0.075000 0.000000
0.375000 -0.050000 0.000000
0.375000 -0.025000 0.000000
0.375000 0.000000 0.000000
0.400000 -0.075000 0.000000
0.400000 -0.050000 0.000000
0.400000 -0.025000 0.000000
0.400000 0.000000 0.000000
0.425000 -0.075000 0.000000
0.425000 -0.050000 0.000000
0.425000 -0.025000 0.000000
0.425000 0.000000 0.000000
0.450000 -0.075000 0.000000
0.450000 -0.050000 0.000000
0.450000 -0.025000 0.000000
0.450000 0.000000 0.000000
0.475000 -0.075000 0.000000
0.475000 -0.050000 0.000000
0.475000 -0.025000 0.000000
0.475000 0.000000 0.000000
0.500000 -0.075000 0.000000
0.500000 -0.050000 0.000000
0.500000 -0.025000 0.000000
0.500000 0.000000 0.000000
0.525000 -0.075000 0.000000
0.525000 -0.050000 0.000000
0.525000 -0.025000 0.000000
0.525000 0.000000 0.000000
0.550000 -0.075000 0.000000
0.550000 -0.050000 0.000000
0.550000 -0.025000 0.000000
0.550000 0.000000 0.000000
0.575000 -0.075000 0.000000
0.575000 -0.050000 0.000000
0.575000 -0.025000 0.000000
0.575000 0.000000 0.000000
0.600000 -0.075000 0.000000
0.600000 -0.050000 0.000000
0.600000 -0.025000 0.000000
0.600000 0.000000 0.000000
0.625000 -0.075000 0.000000
0.625000 -0.050000 0.000000
0.625000 -0.025000 0.000000
0.625000 0.000000 0.000000
0.650000 -0.075000 0.000000
0.650000 -0.050000 0.000000
0.650000 -0.025000 0.000000
0.650000 0.000000 0.000000
0.675000 -0.075000 0.000000
0.675000 -0.050000 0.000000
0.675000 -0.025000 0.000000
0.675000 0.000000 0.000000
0.700000 -0.075000 0.000000
0.700000 -0.050000 0.000000
0.700000 -0.025000 0.000000
0.700000 0.000000 0.000000
0.725000 -0.075000 0.000000
0.725000 -0.050000 0.000000
0.725000 -0.025000 0.000000
0.725000 0.000000 0.000000
0.750000 -0.075000 0.000000
0.750000 -0.050000 0.000000
0.750000 -0.025000 0.000000
0.750000 0.000000 0.000000
0.775000 -0.075000 0.000000
0.775000 -0.050000 0.000000
0.775000 -0.025000 0.000000
0.775000 0.000000 0.000000
0.800000 -0.075000 0.000000
0.800000 -0.050000 0.000000
0.800000 -0.025000 0.000000
0.800000 0.000000 0.000000
0.825000 -0.075000 0.000000
0.825000 -0.050000 0.000000
0.825000 -0.025000 0.000000
0.825000 0.000000 0.000000
0.850000 -0.075000 0.000000
0.850000 -0.050000 0.000000
0.850000 -0.025000 0.000000
0.850000 0.000000 0.000000
0.875000 -0.075000 0.000000
0.875000 -0.050000 0.000000
0.875000 -0.025000 0.000000
0.875000 0.000000 0.000000
0.900000 -0.075000 0.000000
0.900000 -0.050000 0.000000
0.900000 -0.025000 0.000000
0.900000 0.000000 0.000000
0.925000 -0.075000 0.000000
0.925000 -0.050000 0.000000
0.925000 -0.025000 0.000000
0.925000 0.000000 0.000000
0.950000 -0.075000 0.000000
0.950000 -0.050000 0.000000
0.950000 -0.025000 0.000000
0.950000 0.000000 0.000000
0.975000 -0.075000 0.000000
0.975000 -0.050000 0.000000
0.975000 -0.025000 0.000000
0.975000 0.000000 0.000000
1.000000 -0.075000 0.000000
1.000000 -0.050000 0.000000
1.000000 -0.025000 0.000000
1.000000 0.000000 0.000000
1.025000 -0.075000 0.000000
1.025000 -0.050000 0.000000
1.025000 -0.025000 0.000000
1.025000 0.000000 0.000000
1.025000 0.025000 0.000000
1.025000 0.050000 0.000000
1.025000 0.075000 0.000000
1.025000 0.100000 0.000000
1.025000 0.125000 0.000000
1.025000 0.150000 0.000000
1.025000 0.175000 0.000000
1.025000 0.200000 0.000000
1.025000 0.225000 0.000000
1.025000 0.250000 0.000000
1.025000 0.275000 0.000000
1.025000 0.300000 0.000000
1.025000 0.325000 0.000000
1.025000 0.350000 0.000000
1.025000 0.375000 0.000000
1.025000 0.400000 0.000000
1.025000 0.425000 0.000000
1.025000 0.450000 0.000000
1.025000 0.475000 0.000000
1.025000 0.500000 0.000000
1.025000 0.525000 0.000000
1.025000 0.550000 0.000000
1.025000 0.575000 0.000000
1.025000 0.600000 0.000000
1.050000 -0.075000 0.000000
1.050000 -0.050000 0.000000
1.050000 -0.025000 0.000000
1.050000 0.000000 0.000000
1.050000 0.025000 0.000000
1.050000 0.050000 0.000000
1.050000 0.075000 0.000000
1.050000 0.100000 0.000000
1.050000 0.125000 0.000000
1.050000 0.150000 0.000000
1.050000 0.175000 0.000000
1.050000 0.200000 0.000000
1.050000 0.225000 0.000000
1.050000 0.250000 0.000000
1.050000 0.275000 0.000000
1.050000 0.300000 0.000000
1.050000 0.325000 0.000000
1.050000 0.350000 0.000000
1.050000 0.375000 0.000000
1.050000 0.400000 0.000000
1.050000 0.425000 0.000000
1.050000 0.450000 0.000000
1.050000 0.475000 0.000000
1.050000 0.500000 0.000000
1.050000 0.525000 0.000000
1.050000 0.550000 0.000000
1.050000 0.575000 0.000000
1.050000 0.600000 0.000000
1.075000 -0.075000 0.000000
1.075000 -0.050000 0.000000
1.075000 -0.025000 0.000000
1.075000 0.000000 0.000000
1.075000 0.025000 0.000000
1.075000 0.050000 0.000000
1.075000 0.075000 0.000000
1.075000 0.100000 0.000000
1.075000 0.125000 0.000000
1.075000 0.150000 0.000000
1.075000 0.175000 0.000000
1.075000 0.200000 0.000000
1.075000 0.225000 0.000000
1.075000 0.250000 0.000000
1.075000 0.275000 0.000000
1.075000 0.300000 0.000000
1.075000 0.325000 0.000000
1.075000 0.350000 0.000000
1.075000 0.375000 0.000000
1.075000 0.400000 0.000000
1.075000 0.425000 0.000000
1.075000 0.450000 0.000000
1.075000 0.475000 0.000000
1.075000 0.500000 0.000000
1.075000 0.525000 0.000000
1.075000 0.550000 0.000000
1.075000 0.575000 0.000000
1.075000 0.600000 0.000000
1.100000 -0.075000 0.000000
1.100000 -0.050000 0.000000
1.100000 -0.025000 0.000000
1.100000 0.000000 0.000000
1.100000 0.025000 0.000000
1.100000 0.050000 0.000000
1.100000 0.075000 0.000000
1.100000 0.100000 0.000000
1.100000 0.125000 0.000000
1.100000 0.150000 0.000000
1.100000 0.175000 0.000000
1.100000 0.200000 0.000000
1.100000 0.225000 0.000000
1.100000 0.250000 0.000000
1.100000 0.275000 0.000000
1.100000 0.300000 0.000000
1.100000 0.325000 0.000000
1.100000 0.350000 0.000000
1.100000 0.375000 0.000000
1.100000 0.400000 0.000000
1.100000 0.425000 0.000000
1.100000 0.450000 0.000000
1.100000 0.475000 0.000000
1.100000 0.500000 0.000000
1.100000 0.525000 0.000000
1.100000 0.550000 0.000000
1.100000 0.575000 0.000000
1.100000 0.600000 0.000000
</DataArray>
</Points>
<PointData>
<DataArray NumberOfComponents='1' type='Int32' Name='ParticleType' format='ascii'>
3
3
3
3
3
3
3
3
3
3
3
3
3
3
3
3
3
3
3
3
3
3
3
3
3
3
2
2
3
3
3
3
3
3
3
3
3
3
3
3
3
3
3
3
3
3
3
3
3
3
3
3
3
3
2
2
3
3
2
2
2
2
2
2
2
2
2
2
2
2
2
2
2
2
2
2
2
2
2
2
2
2
2
2
3
3
2
2
2
2
2
2
2
2
2
2
2
2
2
2
2
2
2
2
2
2
2
2
2
2
2
2
3
3
2
2
0
0
0
0
0
0
0
0
0
0
0
0
0
0
0
0
0
0
0
0
3
3
2
2
0
0
0
0
0
0
0
0
0
0
0
0
0
0
0
0
0
0
0
0
3
3
2
2
0
0
0
0
0
0
0
0
0
0
0
0
0
0
0
0
0
0
0
0
3
3
2
2
0
0
0
0
0
0
0
0
0
0
0
0
0
0
0
0
0
0
0
0
3
3
2
2
0
0
0
0
0
0
0
0
0
0
0
0
0
0
0
0
0
0
0
0
3
3
2
2
0
0
0
0
0
0
0
0
0
0
0
0
0
0
0
0
0
0
0
0
3
3
2
2
0
0
0
0
0
0
0
0
0
0
0
0
0
0
0
0
0
0
0
0
3
3
2
2
0
0
0
0
0
0
0
0
0
0
0
0
0
0
0
0
0
0
0
0
3
3
2
2
0
0
0
0
0
0
0
0
0
0
0
0
0
0
0
0
0
0
0
0
3
3
2
2
0
0
0
0
0
0
0
0
0
0
0
0
0
0
0
0
0
0
0
0
3
3
2
2
3
3
2
2
3
3
2
2
3
3
2
2
3
3
2
2
3
3
2
2
3
3
2
2
3
3
2
2
3
3
2
2
3
3
2
2
3
3
2
2
3
3
2
2
3
3
2
2
3
3
2
2
3
3
2
2
3
3
2
2
3
3
2
2
3
3
2
2
3
3
2
2
3
3
2
2
3
3
2
2
3
3
2
2
3
3
2
2
3
3
2
2
3
3
2
2
3
3
2
2
3
3
2
2
3
3
2
2
3
3
2
2
3
3
2
2
3
3
2
2
2
2
2
2
2
2
2
2
2
2
2
2
2
2
2
2
2
2
2
2
2
2
2
2
3
3
2
2
2
2
2
2
2
2
2
2
2
2
2
2
2
2
2
2
2
2
2
2
2
2
2
2
3
3
3
3
3
3
3
3
3
3
3
3
3
3
3
3
3
3
3
3
3
3
3
3
3
3
2
2
3
3
3
3
3
3
3
3
3
3
3
3
3
3
3
3
3
3
3
3
3
3
3
3
3
3
2
2
</DataArray>
<DataArray NumberOfComponents='1' type='Float32' Name='Velocity' format='ascii'>
0.000000
0.000000
0.000000
0.000000
0.000000
0.000000
0.000000
0.000000
0.000000
0.000000
0.000000
0.000000
0.000000
0.000000
0.000000
0.000000
0.000000
0.000000
0.000000
0.000000
0.000000
0.000000
0.000000
0.000000
0.000000
0.000000
0.000000
0.000000
0.000000
0.000000
0.000000
0.000000
0.000000
0.000000
0.000000
0.000000
0.000000
0.000000
0.000000
0.000000
0.000000
0.000000
0.000000
0.000000
0.000000
0.000000
0.000000
0.000000
0.000000
0.000000
0.000000
0.000000
0.000000
0.000000
0.000000
0.000000
0.000000
0.000000
0.000000
0.000000
0.000000
0.000000
0.000000
0.000000
0.000000
0.000000
0.000000
0.000000
0.000000
0.000000
0.000000
0.000000
0.000000
0.000000
0.000000
0.000000
0.000000
0.000000
0.000000
0.000000
0.000000
0.000000
0.000000
0.000000
0.000000
0.000000
0.000000
0.000000
0.000000
0.000000
0.000000
0.000000
0.000000
0.000000
0.000000
0.000000
0.000000
0.000000
0.000000
0.000000
0.000000
0.000000
0.000000
0.000000
0.000000
0.000000
0.000000
0.000000
0.000000
0.000000
0.000000
0.000000
0.000000
0.000000
0.000000
0.000000
0.205438
0.572913
0.031218
0.237968
0.206086
0.662460
0.471911
0.776285
0.489500
0.240272
0.114191
0.182956
0.685451
0.973263
0.432808
0.935551
0.644722
0.755545
0.731289
1.021504
0.000000
0.000000
0.000000
0.000000
0.153809
0.848764
0.274169
0.674861
0.827339
0.749146
0.918252
1.035581
0.450452
0.493062
0.885391
0.252963
0.219638
0.641814
0.861053
0.583666
0.739871
0.457689
0.594896
0.710285
0.000000
0.000000
0.000000
0.000000
0.457244
0.443048
0.143477
0.617632
0.944663
1.341232
0.766604
0.748410
0.363050
1.040055
0.825938
0.624980
0.534379
0.409088
0.825261
0.442672
0.285222
0.817012
1.146621
0.628635
0.000000
0.000000
0.000000
0.000000
0.529696
0.426495
1.224391
1.340780
0.539893
0.762908
1.239646
1.043709
0.897464
0.934967
0.953338
0.979756
0.961071
0.813558
0.787340
0.107381
1.114951
0.996480
0.717540
1.052681
0.000000
0.000000
0.000000
0.000000
1.151197
0.726413
2.102708
1.943604
1.798967
0.410334
1.176891
1.012788
1.357666
1.155819
1.279281
1.313313
1.108034
0.600604
0.656737
0.994726
1.252163
0.824802
1.331936
0.762356
0.000000
0.000000
0.000000
0.000000
2.339418
1.951835
2.015164
1.832177
2.236427
1.686216
1.587687
2.298983
1.819911
1.546490
1.777414
1.278571
1.453129
1.834497
1.235457
0.866300
1.030384
0.786780
0.944233
1.154698
0.000000
0.000000
0.000000
0.000000
2.608017
2.032162
2.438949
2.890635
2.546624
1.876010
2.773344
2.400827
2.229959
2.333853
1.833623
2.101872
1.600714
1.525142
1.503367
1.834558
1.326946
1.508644
1.114033
1.431108
0.000000
0.000000
0.000000
0.000000
2.332942
2.591252
2.146908
2.706668
1.975006
2.526770
2.829814
2.625561
2.259223
2.355414
2.241807
1.965078
2.849600
1.899545
1.556942
1.541887
2.325699
1.383441
1.644146
1.375251
0.000000
0.000000
0.000000
0.000000
1.968404
3.890229
1.821682
2.494433
2.264308
2.370557
2.020007
2.904087
2.623180
2.725567
2.492803
2.765245
2.721484
2.328151
2.148537
2.304970
2.211417
1.734092
1.706124
1.426013
0.000000
0.000000
0.000000
0.000000
4.101797
2.710392
1.313245
0.593506
4.320139
2.207217
3.200487
3.342831
2.503101
2.458447
1.993048
2.096448
2.731922
2.885145
2.776265
2.573674
2.395705
2.324211
2.131079
1.651154
0.000000
0.000000
0.000000
0.000000
0.000000
0.000000
0.000000
0.000000
0.000000
0.000000
0.000000
0.000000
0.000000
0.000000
0.000000
0.000000
0.000000
0.000000
0.000000
0.000000
0.000000
0.000000
0.000000
0.000000
0.000000
0.000000
0.000000
0.000000
0.000000
0.000000
0.000000
0.000000
0.000000
0.000000
0.000000
0.000000
0.000000
0.000000
0.000000
0.000000
0.000000
0.000000
0.000000
0.000000
0.000000
0.000000
0.000000
0.000000
0.000000
0.000000
0.000000
0.000000
0.000000
0.000000
0.000000
0.000000
0.000000
0.000000
0.000000
0.000000
0.000000
0.000000
0.000000
0.000000
0.000000
0.000000
0.000000
0.000000
0.000000
0.000000
0.000000
0.000000
0.000000
0.000000
0.000000
0.000000
0.000000
0.000000
0.000000
0.000000
0.000000
0.000000
0.000000
0.000000
0.000000
0.000000
0.000000
0.000000
0.000000
0.000000
0.000000
0.000000
0.000000
0.000000
0.000000
0.000000
0.000000
0.000000
0.000000
0.000000
0.000000
0.000000
0.000000
0.000000
0.000000
0.000000
0.000000
0.000000
0.000000
0.000000
0.000000
0.000000
0.000000
0.000000
0.000000
0.000000
0.000000
0.000000
0.000000
0.000000
0.000000
0.000000
0.000000
0.000000
0.000000
0.000000
0.000000
0.000000
0.000000
0.000000
0.000000
0.000000
0.000000
0.000000
0.000000
0.000000
0.000000
0.000000
0.000000
0.000000
0.000000
0.000000
0.000000
0.000000
0.000000
0.000000
0.000000
0.000000
0.000000
0.000000
0.000000
0.000000
0.000000
0.000000
0.000000
0.000000
0.000000
0.000000
0.000000
0.000000
0.000000
0.000000
0.000000
0.000000
0.000000
0.000000
0.000000
0.000000
0.000000
0.000000
0.000000
0.000000
0.000000
0.000000
0.000000
0.000000
0.000000
0.000000
0.000000
0.000000
0.000000
0.000000
0.000000
0.000000
0.000000
0.000000
0.000000
0.000000
0.000000
0.000000
0.000000
0.000000
0.000000
0.000000
0.000000
0.000000
0.000000
0.000000
0.000000
0.000000
0.000000
0.000000
0.000000
0.000000
0.000000
0.000000
0.000000
0.000000
0.000000
0.000000
0.000000
0.000000
0.000000
0.000000
0.000000
0.000000
0.000000
0.000000
0.000000
0.000000
0.000000
0.000000
0.000000
0.000000
0.000000
0.000000
0.000000
0.000000
0.000000
0.000000
0.000000
0.000000
</DataArray>
<DataArray NumberOfComponents='1' type='Float32' Name='pressure' format='ascii'>
0.000000
0.000000
0.000000
0.000000
0.000000
0.000000
0.000000
0.000000
0.000000
0.000000
0.000000
0.000000
0.000000
0.000000
0.000000
0.000000
0.000000
0.000000
0.000000
0.000000
0.000000
0.000000
0.000000
0.000000
0.000000
0.000000
0.000000
0.000000
0.000000
0.000000
0.000000
0.000000
0.000000
0.000000
0.000000
0.000000
0.000000
0.000000
0.000000
0.000000
0.000000
0.000000
0.000000
0.000000
0.000000
0.000000
0.000000
0.000000
0.000000
0.000000
0.000000
0.000000
0.000000
0.000000
0.000000
0.000000
0.000000
0.000000
5467.948242
5394.305176
4980.883789
6233.889648
5454.685547
6712.372559
4944.059082
2615.817383
2832.894043
2639.815674
1942.350708
0.000000
0.000000
0.000000
0.000000
0.000000
0.000000
0.000000
0.000000
0.000000
0.000000
0.000000
0.000000
0.000000
0.000000
0.000000
0.000000
0.000000
5572.553711
5315.843262
5010.631348
6067.679688
4201.321777
6797.759766
3280.307373
1727.790894
2148.579834
1475.063110
0.000000
0.000000
0.000000
0.000000
0.000000
0.000000
0.000000
0.000000
0.000000
0.000000
0.000000
0.000000
0.000000
0.000000
0.000000
0.000000
0.000000
0.000000
6183.426270
5938.129883
6085.731934
4786.284180
5369.016602
5006.323730
5292.244141
5120.307617
4413.618164
2840.349365
3845.046631
5981.358398
2050.336182
3035.525391
2656.552979
4124.559570
1990.779663
1373.592651
935.926636
576.117676
0.000000
0.000000
0.000000
0.000000
5845.822266
5164.088867
2300.895996
3043.819580
3130.679199
2688.741943
2251.327148
2958.474365
2533.655762
1566.517334
3053.480469
1099.331909
3613.634033
2712.849609
3948.621338
1300.767212
2081.752197
1449.128418
2067.676514
955.810486
0.000000
0.000000
0.000000
0.000000
7294.049805
6451.433105
2322.831787
959.774109
1667.218140
2537.357910
1271.880127
601.518860
0.000000
1333.786255
0.000000
1674.576294
1669.551514
2352.336914
1137.220459
152.706421
0.000000
568.432007
281.215424
0.000000
0.000000
0.000000
0.000000
0.000000
6843.278320
4706.622559
1259.233643
970.063721
2388.987305
263.338318
1663.231323
2085.609863
1857.758911
1714.304688
1384.648560
0.000000
768.954529
1375.825562
971.194458
628.086426
0.000000
1353.150024
0.000000
2709.623535
0.000000
0.000000
0.000000
0.000000
5749.922363
2484.462402
2077.229248
2576.379883
973.540588
710.300598
1625.496948
2173.523438
1965.775879
2322.402832
1230.822876
1501.536987
134.139755
590.702942
859.534790
0.000000
0.000000
429.977051
0.000000
0.000000
0.000000
0.000000
0.000000
0.000000
4525.045410
3524.523438
759.011902
1619.722656
0.000000
1808.556152
2476.104492
577.461243
1599.036255
0.000000
0.000000
0.000000
1006.203491
2469.760498
1630.503540
1721.098389
567.082092
1454.537842
399.451263
0.000000
0.000000
0.000000
0.000000
0.000000
4068.975586
2199.975586
0.000000
0.000000
1276.297241
1183.583618
0.000000
1356.480591
2397.441650
1097.232300
1243.272827
2529.774414
2785.766846
142.134232
933.785156
0.000000
2003.559204
0.000000
1207.845215
0.000000
0.000000
0.000000
0.000000
0.000000
3298.654297
416.362732
6606.097168
2741.968750
3076.630127
1389.223511
7184.349121
2261.560547
1163.685791
2185.829590
227.159424
0.000000
0.000000
514.761597
0.000000
945.879761
2478.329102
0.000000
0.000000
0.000000
0.000000
0.000000
0.000000
0.000000
3974.676514
3987.999268
4182.811523
0.000000
8077.204102
2042.825317
5017.430664
1686.646851
7728.689453
4310.685547
858.818115
2039.775024
0.000000
0.000000
0.000000
0.000000
0.000000
0.000000
0.000000
0.000000
0.000000
1976.510132
0.000000
0.000000
2726.100586
1439.303345
0.000000
6668.871094
7581.302246
7928.751953
0.000000
5760.970703
0.000000
7277.867188
0.000000
4305.477051
1318.167725
0.000000
0.000000
0.000000
0.000000
0.000000
0.000000
0.000000
0.000000
116.043388
0.000000
0.000000
2915.588135
1744.083252
0.000000
0.000000
2816.789062
2043.842041
0.000000
0.000000
2380.679443
2670.999756
0.000000
0.000000
1034.765625
793.642944
0.000000
0.000000
1524.332520
640.180786
0.000000
0.000000
2536.821045
2866.075439
0.000000
0.000000
1830.108154
974.404236
0.000000
0.000000
1174.538696
0.000000
0.000000
0.000000
0.000000
0.000000
0.000000
0.000000
1495.719727
1778.647339
0.000000
0.000000
1477.423706
1028.603271
0.000000
0.000000
2341.192383
985.245300
0.000000
0.000000
2152.763428
2407.406494
0.000000
0.000000
865.551575
0.000000
0.000000
0.000000
908.312256
0.000000
0.000000
0.000000
2230.708252
1514.509521
0.000000
0.000000
1785.104614
3179.598145
0.000000
0.000000
1289.026611
274.903778
0.000000
0.000000
1531.468872
0.000000
0.000000
0.000000
3118.532471
1651.559692
0.000000
0.000000
2619.298584
0.000000
0.000000
0.000000
2978.538330
2086.314941
0.000000
0.000000
1376.178955
513.145569
0.000000
0.000000
2602.140137
2539.049561
0.000000
0.000000
4292.940918
3810.990967
0.000000
0.000000
3885.766602
4268.352539
0.000000
0.000000
4599.348145
5760.423340
0.000000
0.000000
3610.248047
4571.074707
0.000000
0.000000
3754.128906
2863.379150
0.000000
0.000000
1978.767212
0.000000
0.000000
0.000000
1620.679688
0.000000
0.000000
8150.896484
9352.448242
8059.873047
0.000000
0.000000
599.479370
0.000000
0.000000
0.000000
0.000000
0.000000
0.000000
0.000000
0.000000
0.000000
0.000000
0.000000
0.000000
0.000000
0.000000
0.000000
0.000000
0.000000
0.000000
0.000000
1708.051758
2407.542969
4716.345215
7839.328613
7766.199219
6990.169434
3130.961182
4410.905273
4140.364746
2185.535156
0.000000
0.000000
0.000000
0.000000
0.000000
0.000000
0.000000
0.000000
0.000000
0.000000
0.000000
0.000000
0.000000
0.000000
0.000000
0.000000
0.000000
0.000000
0.000000
0.000000
0.000000
0.000000
0.000000
0.000000
0.000000
0.000000
0.000000
0.000000
0.000000
0.000000
0.000000
0.000000
0.000000
0.000000
0.000000
0.000000
0.000000
0.000000
0.000000
0.000000
0.000000
0.000000
0.000000
0.000000
0.000000
0.000000
0.000000
0.000000
0.000000
0.000000
0.000000
0.000000
0.000000
0.000000
0.000000
0.000000
0.000000
0.000000
0.000000
0.000000
0.000000
0.000000
0.000000
0.000000
0.000000
0.000000
0.000000
0.000000
0.000000
0.000000
0.000000
0.000000
</DataArray>
</PointData>
<Cells>
<DataArray type='Int32' Name='connectivity' format='ascii'>
0
1
2
3
4
5
6
7
8
9
10
11
12
13
14
15
16
17
18
19
20
21
22
23
24
25
26
27
28
29
30
31
32
33
34
35
36
37
38
39
40
41
42
43
44
45
46
47
48
49
50
51
52
53
54
55
56
57
58
59
60
61
62
63
64
65
66
67
68
69
70
71
72
73
74
75
76
77
78
79
80
81
82
83
84
85
86
87
88
89
90
91
92
93
94
95
96
97
98
99
100
101
102
103
104
105
106
107
108
109
110
111
112
113
114
115
116
117
118
119
120
121
122
123
124
125
126
127
128
129
130
131
132
133
134
135
136
137
138
139
140
141
142
143
144
145
146
147
148
149
150
151
152
153
154
155
156
157
158
159
160
161
162
163
164
165
166
167
168
169
170
171
172
173
174
175
176
177
178
179
180
181
182
183
184
185
186
187
188
189
190
191
192
193
194
195
196
197
198
199
200
201
202
203
204
205
206
207
208
209
210
211
212
213
214
215
216
217
218
219
220
221
222
223
224
225
226
227
228
229
230
231
232
233
234
235
236
237
238
239
240
241
242
243
244
245
246
247
248
249
250
251
252
253
254
255
256
257
258
259
260
261
262
263
264
265