<?xml version='1.0' encoding='UTF-8'?>
<VTKFile xmlns='VTK' byte_order='LittleEndian' version='0.1' type='UnstructuredGrid'>
<UnstructuredGrid>
<Piece NumberOfCells='584' NumberOfPoints='584'>
<Points>
<DataArray NumberOfComponents='3' type='Float32' Name='Position' format='ascii'>
-0.075000 -0.075000 0.000000
-0.075000 -0.050000 0.000000
-0.075000 -0.025000 0.000000
-0.075000 0.000000 0.000000
-0.075000 0.025000 0.000000
-0.075000 0.050000 0.000000
-0.075000 0.075000 0.000000
-0.075000 0.100000 0.000000
-0.075000 0.125000 0.000000
-0.075000 0.150000 0.000000
-0.075000 0.175000 0.000000
-0.075000 0.200000 0.000000
-0.075000 0.225000 0.000000
-0.075000 0.250000 0.000000
-0.075000 0.275000 0.000000
-0.075000 0.300000 0.000000
-0.075000 0.325000 0.000000
-0.075000 0.350000 0.000000
-0.075000 0.375000 0.000000
-0.075000 0.400000 0.000000
-0.075000 0.425000 0.000000
-0.075000 0.450000 0.000000
-0.075000 0.475000 0.000000
-0.075000 0.500000 0.000000
-0.075000 0.525000 0.000000
-0.075000 0.550000 0.000000
-0.075000 0.575000 0.000000
-0.075000 0.600000 0.000000
-0.050000 -0.075000 0.000000
-0.050000 -0.050000 0.000000
-0.050000 -0.025000 0.000000
-0.050000 0.000000 0.000000
-0.050000 0.025000 0.000000
-0.050000 0.050000 0.000000
-0.050000 0.075000 0.000000
-0.050000 0.100000 0.000000
-0.050000 0.125000 0.000000
-0.050000 0.150000 0.000000
-0.050000 0.175000 0.000000
-0.050000 0.200000 0.000000
-0.050000 0.225000 0.000000
-0.050000 0.250000 0.000000
-0.050000 0.275000 0.000000
-0.050000 0.300000 0.000000
-0.050000 0.325000 0.000000
-0.050000 0.350000 0.000000
-0.050000 0.375000 0.000000
-0.050000 0.400000 0.000000
-0.050000 0.425000 0.000000
-0.050000 0.450000 0.000000
-0.050000 0.475000 0.000000
-0.050000 0.500000 0.000000
-0.050000 0.525000 0.000000
-0.050000 0.550000 0.000000
-0.050000 0.575000 0.000000
-0.050000 0.600000 0.000000
-0.025000 -0.075000 0.000000
-0.025000 -0.050000 0.000000
-0.025000 -0.025000 0.000000
-0.025000 0.000000 0.000000
-0.025000 0.025000 0.000000
-0.025000 0.050000 0.000000
-0.025000 0.075000 0.000000
-0.025000 0.100000 0.000000
-0.025000 0.125000 0.000000
-0.025000 0.150000 0.000000
-0.025000 0.175000 0.000000
-0.025000 0.200000 0.000000
-0.025000 0.225000 0.000000
-0.025000 0.250000 0.000000
-0.025000 0.275000 0.000000
-0.025000 0.300000 0.000000
-0.025000 0.325000 0.000000
-0.025000 0.350000 0.000000
-0.025000 0.375000 0.000000
-0.025000 0.400000 0.000000
-0.025000 0.425000 0.000000
-0.025000 0.450000 0.000000
-0.025000 0.475000 0.000000
-0.025000 0.500000 0.000000
-0.025000 0.525000 0.000000
-0.025000 0.550000 0.000000
-0.025000 0.575000 0.000000
-0.025000 0.600000 0.000000
0.000000 -0.075000 0.000000
0.000000 -0.050000 0.000000
0.000000 -0.025000 0.000000
0.000000 0.000000 0.000000
0.000000 0.025000 0.000000
0.000000 0.050000 0.000000
0.000000 0.075000 0.000000
0.000000 0.100000 0.000000
0.000000 0.125000 0.000000
0.000000 0.150000 0.000000
0.000000 0.175000 0.000000
0.000000 0.200000 0.000000
0.000000 0.225000 0.000000
0.000000 0.250000 0.000000
0.000000 0.275000 0.000000
0.000000 0.300000 0.000000
0.000000 0.325000 0.000000
0.000000 0.350000 0.000000
0.000000 0.375000 0.000000
0.000000 0.400000 0.000000
0.000000 0.425000 0.000000
0.000000 0.450000 0.000000
0.000000 0.475000 0.000000
0.000000 0.500000 0.000000
0.000000 0.525000 0.000000
0.000000 0.550000 0.000000
0.000000 0.575000 0.000000
0.000000 0.600000 0.000000
0.025000 -0.075000 0.000000
0.025000 -0.050000 0.000000
0.025000 -0.025000 0.000000
0.025000 0.000000 0.000000
0.245090 0.074500 0.000000
0.155083 0.131751 0.000000
0.241033 0.044508 0.000000
0.226301 0.024561 0.000000
0.263823 0.048582 0.000000
0.164081 0.056164 0.000000
0.336929 0.022477 0.000000
0.260392 0.091515 0.000000
0.208300 0.115009 0.000000
0.160440 0.201062 0.000000
0.253684 0.024010 0.000000
0.145346 0.079664 0.000000
0.196555 0.025102 0.000000
0.168406 0.021387 0.000000
0.139558 0.111482 0.000000
0.090951 0.038937 0.000000
0.030116 0.135541 0.000000
0.103720 0.023783 0.000000
0.041394 0.097787 0.000000
0.219739 0.066311 0.000000
0.050000 -0.075000 0.000000
0.050000 -0.050000 0.000000
0.050000 -0.025000 0.000000
0.050000 0.000000 0.000000
0.113813 0.176843 0.000000
0.124199 0.088699 0.000000
0.086699 0.142235 0.000000
0.042428 0.021474 0.000000
0.022581 0.085293 0.000000
0.431756 0.074438 0.000000
0.222190 0.129772 0.000000
0.592965 0.024347 0.000000
0.095666 0.118775 0.000000
0.256350 0.220865 0.000000
0.148493 0.036628 0.000000
0.259217 0.143638 0.000000
0.036045 0.159758 0.000000
0.268516 0.228656 0.000000
0.184227 0.046987 0.000000
0.056080 0.045205 0.000000
0.236626 0.098439 0.000000
0.282756 0.085857 0.000000
0.092848 0.190891 0.000000
0.112208 0.060004 0.000000
0.075000 -0.075000 0.000000
0.075000 -0.050000 0.000000
0.075000 -0.025000 0.000000
0.075000 0.000000 0.000000
0.167252 0.082085 0.000000
0.178618 0.128683 0.000000
0.409971 0.102793 0.000000
0.369741 0.023319 0.000000
0.413166 0.136650 0.000000
0.553979 0.117400 0.000000
0.537356 0.102828 0.000000
0.072250 0.078804 0.000000
0.311384 0.098305 0.000000
0.562487 0.041158 0.000000
0.443822 0.026374 0.000000
0.105564 0.080718 0.000000
0.255806 0.114666 0.000000
0.256574 0.160335 0.000000
0.311552 0.079839 0.000000
0.076897 0.058098 0.000000
0.165474 0.109895 0.000000
0.047966 0.070051 0.000000
0.190391 0.096210 0.000000
0.211611 0.045392 0.000000
0.100000 -0.075000 0.000000
0.100000 -0.050000 0.000000
0.100000 -0.025000 0.000000
0.100000 0.000000 0.000000
0.488071 0.021770 0.000000
0.337448 0.208609 0.000000
0.474491 0.115789 0.000000
0.784919 0.022584 0.000000
0.278646 0.066287 0.000000
0.711948 0.026542 0.000000
0.545152 0.059609 0.000000
0.292488 0.043523 0.000000
0.662338 0.022060 0.000000
0.662644 0.043487 0.000000
0.465636 0.030496 0.000000
0.319881 0.122122 0.000000
0.487841 0.092562 0.000000
0.626051 0.052885 0.000000
0.066668 0.152135 0.000000
0.283292 0.024245 0.000000
0.509613 0.064933 0.000000
0.314941 0.051023 0.000000
0.346536 0.103014 0.000000
0.137172 0.198622 0.000000
0.125000 -0.075000 0.000000
0.125000 -0.050000 0.000000
0.125000 -0.025000 0.000000
0.125000 0.000000 0.000000
0.691266 0.054635 0.000000
0.587267 0.070282 0.000000
0.979964 0.066252 0.000000
0.838885 0.025162 0.000000
0.510297 0.085493 0.000000
0.612173 0.036710 0.000000
0.082758 0.173560 0.000000
0.453400 0.062259 0.000000
0.787081 0.067888 0.000000
0.723297 0.064709 0.000000
0.819158 0.074563 0.000000
0.481652 0.048533 0.000000
0.507797 0.044221 0.000000
0.361057 0.148058 0.000000
0.419626 0.026385 0.000000
0.380170 0.159758 0.000000
0.215907 0.177101 0.000000
0.190863 0.071667 0.000000
0.390890 0.135194 0.000000
0.067026 0.113489 0.000000
0.150000 -0.075000 0.000000
0.150000 -0.050000 0.000000
0.150000 -0.025000 0.000000
0.150000 0.000000 0.000000
0.178393 0.172918 0.000000
0.955240 0.024176 0.000000
0.643789 0.057677 0.000000
0.336615 0.051886 0.000000
0.889863 0.021514 0.000000
0.214398 0.090858 0.000000
0.904221 0.053670 0.000000
0.437118 0.163710 0.000000
0.956409 0.057979 0.000000
0.464601 0.150403 0.000000
0.930081 0.023853 0.000000
0.692802 0.024625 0.000000
0.859794 0.065068 0.000000
0.802721 0.071409 0.000000
0.754216 0.026154 0.000000
0.565751 0.072640 0.000000
0.630364 0.021906 0.000000
0.588671 0.091236 0.000000
0.616496 0.091529 0.000000
0.298562 0.143364 0.000000
0.175000 -0.075000 0.000000
0.175000 -0.050000 0.000000
0.175000 -0.025000 0.000000
0.175000 0.000000 0.000000
0.119678 0.118628 0.000000
0.524246 0.118229 0.000000
0.870382 0.053262 0.000000
0.765024 0.054234 0.000000
0.987913 0.021138 0.000000
0.140656 0.151947 0.000000
0.867880 0.025806 0.000000
0.386111 0.051069 0.000000
0.406377 0.055150 0.000000
0.909909 0.039056 0.000000
0.476267 0.070641 0.000000
0.745376 0.079898 0.000000
0.367477 0.097436 0.000000
0.944352 0.050486 0.000000
0.981855 0.043005 0.000000
0.432822 0.049054 0.000000
1.006223 0.039715 0.000000
0.454065 0.089880 0.000000
0.109438 0.140155 0.000000
0.363116 0.124270 0.000000
0.200000 -0.075000 0.000000
0.200000 -0.050000 0.000000
0.200000 -0.025000 0.000000
0.200000 0.000000 0.000000
0.339767 0.127270 0.000000
0.130891 0.023752 0.000000
0.294676 0.116814 0.000000
0.813623 0.023918 0.000000
0.404033 0.083802 0.000000
0.336906 0.184382 0.000000
0.590525 0.049534 0.000000
0.975052 0.078464 0.000000
0.341860 0.164236 0.000000
0.080816 0.099036 0.000000
0.792956 0.041778 0.000000
0.628642 0.084410 0.000000
0.069829 0.024369 0.000000
0.438647 0.176102 0.000000
0.521655 0.021959 0.000000
0.198191 0.168789 0.000000
0.709718 0.061619 0.000000
0.368717 0.205797 0.000000
0.847147 0.045361 0.000000
0.667529 0.062850 0.000000
0.225000 -0.075000 0.000000
0.225000 -0.050000 0.000000
0.225000 -0.025000 0.000000
0.225000 0.000000 0.000000
0.358018 0.071573 0.000000
0.821925 0.049677 0.000000
0.519709 0.140207 0.000000
0.282706 0.192425 0.000000
0.047476 0.166268 0.000000
0.087005 0.205424 0.000000
0.440212 0.141916 0.000000
0.899213 0.070197 0.000000
0.533234 0.041744 0.000000
0.025862 0.113001 0.000000
0.549085 0.086951 0.000000
0.212875 0.199311 0.000000
0.397112 0.024722 0.000000
0.435760 0.098948 0.000000
0.130756 0.054095 0.000000
0.201916 0.141001 0.000000
0.501416 0.108937 0.000000
0.020618 0.035373 0.000000
0.277565 0.129311 0.000000
0.360232 0.041581 0.000000
0.250000 -0.075000 0.000000
0.250000 -0.050000 0.000000
0.250000 -0.025000 0.000000
0.250000 0.000000 0.000000
0.736025 0.027260 0.000000
0.363113 0.180723 0.000000
0.267219 0.208542 0.000000
0.336678 0.075795 0.000000
0.313165 0.024082 0.000000
0.302787 0.174680 0.000000
0.126152 0.159648 0.000000
0.319017 0.202765 0.000000
0.284652 0.176197 0.000000
0.446778 0.121719 0.000000
0.236450 0.147243 0.000000
0.053106 0.131601 0.000000
0.177149 0.157546 0.000000
0.561396 0.021384 0.000000
0.391343 0.115012 0.000000
0.382073 0.074185 0.000000
0.316168 0.153478 0.000000
0.748771 0.059372 0.000000
0.030447 0.057047 0.000000
0.470608 0.132764 0.000000
0.275000 -0.075000 0.000000
0.275000 -0.050000 0.000000
0.275000 -0.025000 0.000000
0.275000 0.000000 0.000000
0.300000 -0.075000 0.000000
0.300000 -0.050000 0.000000
0.300000 -0.025000 0.000000
0.300000 0.000000 0.000000
0.325000 -0.075000 0.000000
0.325000 -0.050000 0.000000
0.325000 -0.025000 0.000000
0.325000 0.000000 0.000000
0.350000 -0.075000 0.000000
0.350000 -0.050000 0.000000
0.350000 -0.025000 0.000000
0.350000 0.000000 0.000000
0.375000 -0.075000 0.000000
0.375000 -0.050000 0.000000
0.375000 -0.025000 0.000000
0.375000 0.000000 0.000000
0.400000 -0.075000 0.000000
0.400000 -0.050000 0.000000
0.400000 -0.025000 0.000000
0.400000 0.000000 0.000000
0.425000 -0.075000 0.000000
0.425000 -0.050000 0.000000
0.425000 -0.025000 0.000000
0.425000 0.000000 0.000000
0.450000 -0.075000 0.000000
0.450000 -0.050000 0.000000
0.450000 -0.025000 0.000000
0.450000 0.000000 0.000000
0.475000 -0.075000 0.000000
0.475000 -0.050000 0.000000
0.475000 -0.025000 0.000000
0.475000 0.000000 0.000000
0.500000 -0.075000 0.000000
0.500000 -0.050000 0.000000
0.500000 -0.025000 0.000000
0.500000 0.000000 0.000000
0.525000 -0.075000 0.000000
0.525000 -0.050000 0.000000
0.525000 -0.025000 0.000000
0.525000 0.000000 0.000000
0.550000 -0.075000 0.000000
0.550000 -0.050000 0.000000
0.550000 -0.025000 0.000000
0.550000 0.000000 0.000000
0.575000 -0.075000 0.000000
0.575000 -0.050000 0.000000
0.575000 -0.025000 0.000000
0.575000 0.000000 0.000000
0.600000 -0.075000 0.000000
0.600000 -0.050000 0.000000
0.600000 -0.025000 0.000000
0.600000 0.000000 0.000000
0.625000 -0.075000 0.000000
0.625000 -0.050000 0.000000
0.625000 -0.025000 0.000000
0.625000 0.000000 0.000000
0.650000 -0.075000 0.000000
0.650000 -0.050000 0.000000
0.650000 -0.025000 0.000000
0.650000 0.000000 0.000000
0.675000 -0.075000 0.000000
0.675000 -0.050000 0.000000
0.675000 -0.025000 0.000000
0.675000 0.000000 0.000000
0.700000 -0.075000 0.000000
0.700000 -0.050000 0.000000
0.700000 -0.025000 0.000000
0.700000 0.000000 0.000000
0.725000 -0.075000 0.000000
0.725000 -0.050000 0.000000
0.725000 -0.025000 0.000000
0.725000 0.000000 0.000000
0.750000 -0.075000 0.000000
0.750000 -0.050000 0.000000
0.750000 -0.025000 0.000000
0.750000 0.000000 0.000000
0.775000 -0.075000 0.000000
0.775000 -0.050000 0.000000
0.775000 -0.025000 0.000000
0.775000 0.000000 0.000000
0.800000 -0.075000 0.000000
0.800000 -0.050000 0.000000
0.800000 -0.025000 0.000000
0.800000 0.000000 0.000000
0.825000 -0.075000 0.000000
0.825000 -0.050000 0.000000
0.825000 -0.025000 0.000000
0.825000 0.000000 0.000000
0.850000 -0.075000 0.000000
0.850000 -0.050000 0.000000
0.850000 -0.025000 0.000000
0.850000 0.000000 0.000000
0.875000 -0.075000 0.000000
0.875000 -0.050000 0.000000
0.875000 -0.025000 0.000000
0.875000 0.000000 0.000000
0.900000 -0.075000 0.000000
0.900000 -0.050000 0.000000
0.900000 -0.025000 0.000000
0.900000 0.000000 0.000000
0.925000 -0.075000 0.000000
0.925000 -0.050000 0.000000
0.925000 -0.025000 0.000000
0.925000 0.000000 0.000000
0.950000 -0.075000 0.000000
0.950000 -0.050000 0.000000
0.950000 -0.025000 0.000000
0.950000 0.000000 0.000000
0.975000 -0.075000 0.000000
0.975000 -0.050000 0.000000
0.975000 -0.025000 0.000000
0.975000 0.000000 0.000000
1.000000 -0.075000 0.000000
1.000000 -0.050000 0.000000
1.000000 -0.025000 0.000000
1.000000 0.000000 0.000000
1.025000 -0.075000 0.000000
1.025000 -0.050000 0.000000
1.025000 -0.025000 0.000000
1.025000 0.000000 0.000000
1.025000 0.025000 0.000000
1.025000 0.050000 0.000000
1.025000 0.075000 0.000000
1.025000 0.100000 0.000000
1.025000 0.125000 0.000000
1.025000 0.150000 0.000000
1.025000 0.175000 0.000000
1.025000 0.200000 0.000000
1.025000 0.225000 0.000000
1.025000 0.250000 0.000000
1.025000 0.275000 0.000000
1.025000 0.300000 0.000000
1.025000 0.325000 0.000000
1.025000 0.350000 0.000000
1.025000 0.375000 0.000000
1.025000 0.400000 0.000000
1.025000 0.425000 0.000000
1.025000 0.450000 0.000000
1.025000 0.475000 0.000000
1.025000 0.500000 0.000000
1.025000 0.525000 0.000000
1.025000 0.550000 0.000000
1.025000 0.575000 0.000000
1.025000 0.600000 0.000000
1.050000 -0.075000 0.000000
1.050000 -0.050000 0.000000
1.050000 -0.025000 0.000000
1.050000 0.000000 0.000000
1.050000 0.025000 0.000000
1.050000 0.050000 0.000000
1.050000 0.075000 0.000000
1.050000 0.100000 0.000000
1.050000 0.125000 0.000000
1.050000 0.150000 0.000000
1.050000 0.175000 0.000000
1.050000 0.200000 0.000000
1.050000 0.225000 0.000000
1.050000 0.250000 0.000000
1.050000 0.275000 0.000000
1.050000 0.300000 0.000000
1.050000 0.325000 0.000000
1.050000 0.350000 0.000000
1.050000 0.375000 0.000000
1.050000 0.400000 0.000000
1.050000 0.425000 0.000000
1.050000 0.450000 0.000000
1.050000 0.475000 0.000000
1.050000 0.500000 0.000000
1.050000 0.525000 0.000000
1.050000 0.550000 0.000000
1.050000 0.575000 0.000000
1.050000 0.600000 0.000000
1.075000 -0.075000 0.000000
1.075000 -0.050000 0.000000
1.075000 -0.025000 0.000000
1.075000 0.000000 0.000000
1.075000 0.025000 0.000000
1.075000 0.050000 0.000000
1.075000 0.075000 0.000000
1.075000 0.100000 0.000000
1.075000 0.125000 0.000000
1.075000 0.150000 0.000000
1.075000 0.175000 0.000000
1.075000 0.200000 0.000000
1.075000 0.225000 0.000000
1.075000 0.250000 0.000000
1.075000 0.275000 0.000000
1.075000 0.300000 0.000000
1.075000 0.325000 0.000000
1.075000 0.350000 0.000000
1.075000 0.375000 0.000000
1.075000 0.400000 0.000000
1.075000 0.425000 0.000000
1.075000 0.450000 0.000000
1.075000 0.475000 0.000000
1.075000 0.500000 0.000000
1.075000 0.525000 0.000000
1.075000 0.550000 0.000000
1.075000 0.575000 0.000000
1.075000 0.600000 0.000000
1.100000 -0.075000 0.000000
1.100000 -0.050000 0.000000
1.100000 -0.025000 0.000000
1.100000 0.000000 0.000000
1.100000 0.025000 0.000000
1.100000 0.050000 0.000000
1.100000 0.075000 0.000000
1.100000 0.100000 0.000000
1.100000 0.125000 0.000000
1.100000 0.150000 0.000000
1.100000 0.175000 0.000000
1.100000 0.200000 0.000000
1.100000 0.225000 0.000000
1.100000 0.250000 0.000000
1.100000 0.275000 0.000000
1.100000 0.300000 0.000000
1.100000 0.325000 0.000000
1.100000 0.350000 0.000000
1.100000 0.375000 0.000000
1.100000 0.400000 0.000000
1.100000 0.425000 0.000000
1.100000 0.450000 0.000000
1.100000 0.475000 0.000000
1.100000 0.500000 0.000000
1.100000 0.525000 0.000000
1.100000 0.550000 0.000000
1.100000 0.575000 0.000000
1.100000 0.600000 0.000000
</DataArray>
</Points>
<PointData>
<DataArray NumberOfComponents='1' type='Int32' Name='ParticleType' format='ascii'>
3
3
3
3
3
3
3
3
3
3
3
3
3
3
3
3
3
3
3
3
3
3
3
3
3
3
2
2
3
3
3
3
3
3
3
3
3
3
3
3
3
3
3
3
3
3
3
3
3
3
3
3
3
3
2
2
3
3
2
2
2
2
2
2
2
2
2
2
2
2
2
2
2
2
2
2
2
2
2
2
2
2
2
2
3
3
2
2
2
2
2
2
2
2
2
2
2
2
2
2
2
2
2
2
2
2
2
2
2
2
2
2
3
3
2
2
0
0
0
0
0
0
0
0
0
0
0
0
0
0
0
0
0
0
0
0
3
3
2
2
0
0
0
0
0
0
0
0
0
0
0
0
0
0
0
0
0
0
0
0
3
3
2
2
0
0
0
0
0
0
0
0
0
0
0
0
0
0
0
0
0
0
0
0
3
3
2
2
0
0
0
0
0
0
0
0
0
0
0
0
0
0
0
0
0
0
0
0
3
3
2
2
0
0
0
0
0
0
0
0
0
0
0
0
0
0
0
0
0
0
0
0
3
3
2
2
0
0
0
0
0
0
0
0
0
0
0
0
0
0
0
0
0
0
0
0
3
3
2
2
0
0
0
0
0
0
0
0
0
0
0
0
0
0
0
0
0
0
0
0
3
3
2
2
0
0
0
0
0
0
0
0
0
0
0
0
0
0
0
0
0
0
0
0
3
3
2
2
0
0
0
0
0
0
0
0
0
0
0
0
0
0
0
0
0
0
0
0
3
3
2
2
0
0
0
0
0
0
0
0
0
0
0
0
0
0
0
0
0
0
0
0
3
3
2
2
3
3
2
2
3
3
2
2
3
3
2
2
3
3
2
2
3
3
2
2
3
3
2
2
3
3
2
2
3
3
2
2
3
3
2
2
3
3
2
2
3
3
2
2
3
3
2
2
3
3
2
2
3
3
2
2
3
3
2
2
3
3
2
2
3
3
2
2
3
3
2
2
3
3
2
2
3
3
2
2
3
3
2
2
3
3
2
2
3
3
2
2
3
3
2
2
3
3
2
2
3
3
2
2
3
3
2
2
3
3
2
2
3
3
2
2
3
3
2
2
2
2
2
2
2
2
2
2
2
2
2
2
2
2
2
2
2
2
2
2
2
2
2
2
3
3
2
2
2
2
2
2
2
2
2
2
2
2
2
2
2
2
2
2
2
2
2
2
2
2
2
2
3
3
3
3
3
3
3
3
3
3
3
3
3
3
3
3
3
3
3
3
3
3
3
3
3
3
2
2
3
3
3
3
3
3
3
3
3
3
3
3
3
3
3
3
3
3
3
3
3
3
3
3
3
3
2
2
</DataArray>
<DataArray NumberOfComponents='1' type='Float32' Name='Velocity' format='ascii'>
0.000000
0.000000
0.000000
0.000000
0.000000
0.000000
0.000000
0.000000
0.000000
0.000000
0.000000
0.000000
0.000000
0.000000
0.000000
0.000000
0.000000
0.000000
0.000000
0.000000
0.000000
0.000000
0.000000
0.000000
0.000000
0.000000
0.000000
0.000000
0.000000
0.000000
0.000000
0.000000
0.000000
0.000000
0.000000
0.000000
0.000000
0.000000
0.000000
0.000000
0.000000
0.000000
0.000000
0.000000
0.000000
0.000000
0.000000
0.000000
0.000000
0.000000
0.000000
0.000000
0.000000
0.000000
0.000000
0.000000
0.000000
0.000000
0.000000
0.000000
0.000000
0.000000
0.000000
0.000000
0.000000
0.000000
0.000000
0.000000
0.000000
0.000000
0.000000
0.000000
0.000000
0.000000
0.000000
0.000000
0.000000
0.000000
0.000000
0.000000
0.000000
0.000000
0.000000
0.000000
0.000000
0.000000
0.000000
0.000000
0.000000
0.000000
0.000000
0.000000
0.000000
0.000000
0.000000
0.000000
0.000000
0.000000
0.000000
0.000000
0.000000
0.000000
0.000000
0.000000
0.000000
0.000000
0.000000
0.000000
0.000000
0.000000
0.000000
0.000000
0.000000
0.000000
0.000000
0.000000
0.461683
0.132375
0.476057
0.391061
0.655243
0.559777
0.648224
0.469534
0.484093
0.504704
0.136463
0.511692
0.422336
0.241505
0.297317
0.107741
0.430280
0.319590
0.289596
0.668550
0.000000
0.000000
0.000000
0.000000
0.199302
0.710271
0.375859
0.180069
0.270691
0.268925
0.228278
0.447210
0.519199
0.672234
0.509277
0.388060
0.341109
0.983915
0.586368
0.256275
0.687408
0.537623
0.642840
0.378307
0.000000
0.000000
0.000000
0.000000
0.482411
0.200908
0.401077
0.348829
0.592791
0.410462
0.265475
0.360483
0.672671
0.321315
0.273976
0.429645
0.450713
0.212709
0.423987
0.214973
0.175027
0.210179
0.433014
0.702861
0.000000
0.000000
0.000000
0.000000
0.507889
0.396767
0.157730
0.065795
0.667527
0.063263
0.229832
0.284717
0.257585
0.263941
0.572430
0.429511
0.699310
0.148810
0.630346
0.403615
0.220025
0.667961
0.455226
0.539555
0.000000
0.000000
0.000000
0.000000
0.101511
0.211918
0.239571
0.121356
0.188339
0.337727
0.692917
0.430361
0.047652
0.176172
0.422515
0.146209
0.451994
0.582931
0.498595
0.384084
0.225826
0.508848
0.453459
0.559409
0.000000
0.000000
0.000000
0.000000
0.118959
0.159119
0.262886
0.297245
0.134307
0.284906
0.116991
0.365225
0.253433
0.541483
0.091199
0.102767
0.291426
0.394189
0.220447
0.157578
0.103257
0.299979
0.155158
0.735617
0.000000
0.000000
0.000000
0.000000
0.276830
0.438955
0.311880
0.153967
0.132396
0.591447
0.086006
0.695300
0.503683
0.138907
0.271909
0.116933
0.655325
0.297169
0.036062
0.709427
0.273144
0.507753
0.323020
0.307474
0.000000
0.000000
0.000000
0.000000
0.285161
0.184291
0.261690
0.175619
0.847028
0.404442
0.137444
0.159252
0.202338
0.460494
0.231979
0.280762
0.237178
0.369168
0.082022
0.741343
0.329631
0.411667
0.248656
0.198694
0.000000
0.000000
0.000000
0.000000
0.729647
0.182747
0.443884
0.862072
0.257436
0.496926
0.389382
0.388279
0.209559
0.338268
0.205728
0.043104
0.312955
0.336302
0.519254
0.446035
0.284994
0.213059
0.349661
0.373489
0.000000
0.000000
0.000000
0.000000
0.182192
0.956246
0.752912
0.870761
0.354604
0.571829
0.297164
1.527628
0.797172
0.486969
0.278807
0.482336
0.055069
0.376832
0.361475
0.672367
0.522089
0.245873
0.163743
0.397239
0.000000
0.000000
0.000000
0.000000
0.000000
0.000000
0.000000
0.000000
0.000000
0.000000
0.000000
0.000000
0.000000
0.000000
0.000000
0.000000
0.000000
0.000000
0.000000
0.000000
0.000000
0.000000
0.000000
0.000000
0.000000
0.000000
0.000000
0.000000
0.000000
0.000000
0.000000
0.000000
0.000000
0.000000
0.000000
0.000000
0.000000
0.000000
0.000000
0.000000
0.000000
0.000000
0.000000
0.000000
0.000000
0.000000
0.000000
0.000000
0.000000
0.000000
0.000000
0.000000
0.000000
0.000000
0.000000
0.000000
0.000000
0.000000
0.000000
0.000000
0.000000
0.000000
0.000000
0.000000
0.000000
0.000000
0.000000
0.000000
0.000000
0.000000
0.000000
0.000000
0.000000
0.000000
0.000000
0.000000
0.000000
0.000000
0.000000
0.000000
0.000000
0.000000
0.000000
0.000000
0.000000
0.000000
0.000000
0.000000
0.000000
0.000000
0.000000
0.000000
0.000000
0.000000
0.000000
0.000000
0.000000
0.000000
0.000000
0.000000
0.000000
0.000000
0.000000
0.000000
0.000000
0.000000
0.000000
0.000000
0.000000
0.000000
0.000000
0.000000
0.000000
0.000000
0.000000
0.000000
0.000000
0.000000
0.000000
0.000000
0.000000
0.000000
0.000000
0.000000
0.000000
0.000000
0.000000
0.000000
0.000000
0.000000
0.000000
0.000000
0.000000
0.000000
0.000000
0.000000
0.000000
0.000000
0.000000
0.000000
0.000000
0.000000
0.000000
0.000000
0.000000
0.000000
0.000000
0.000000
0.000000
0.000000
0.000000
0.000000
0.000000
0.000000
0.000000
0.000000
0.000000
0.000000
0.000000
0.000000
0.000000
0.000000
0.000000
0.000000
0.000000
0.000000
0.000000
0.000000
0.000000
0.000000
0.000000
0.000000
0.000000
0.000000
0.000000
0.000000
0.000000
0.000000
0.000000
0.000000
0.000000
0.000000
0.000000
0.000000
0.000000
0.000000
0.000000
0.000000
0.000000
0.000000
0.000000
0.000000
0.000000
0.000000
0.000000
0.000000
0.000000
0.000000
0.000000
0.000000
0.000000
0.000000
0.000000
0.000000
0.000000
0.000000
0.000000
0.000000
0.000000
0.000000
0.000000
0.000000
0.000000
0.000000
0.000000
0.000000
0.000000
0.000000
0.000000
0.000000
0.000000
0.000000
0.000000
0.000000
0.000000
0.000000
0.000000
0.000000
0.000000
0.000000
0.000000
0.000000
</DataArray>
<DataArray NumberOfComponents='1' type='Float32' Name='pressure' format='ascii'>
0.000000
0.000000
0.000000
0.000000
0.000000
0.000000
0.000000
0.000000
0.000000
0.000000
0.000000
0.000000
0.000000
0.000000
0.000000
0.000000
0.000000
0.000000
0.000000
0.000000
0.000000
0.000000
0.000000
0.000000
0.000000
0.000000
0.000000
0.000000
0.000000
0.000000
0.000000
0.000000
0.000000
0.000000
0.000000
0.000000
0.000000
0.000000
0.000000
0.000000
0.000000
0.000000
0.000000
0.000000
0.000000
0.000000
0.000000
0.000000
0.000000
0.000000
0.000000
0.000000
0.000000
0.000000
0.000000
0.000000
0.000000
0.000000
1765.199097
1945.059082
3328.051758
2914.078125
2245.067627
1141.292480
0.000000
0.000000
0.000000
0.000000
0.000000
0.000000
0.000000
0.000000
0.000000
0.000000
0.000000
0.000000
0.000000
0.000000
0.000000
0.000000
0.000000
0.000000
0.000000
0.000000
0.000000
0.000000
1780.685913
630.937317
2689.394775
1232.391968
1727.187866
1665.322144
0.000000
0.000000
0.000000
0.000000
0.000000
0.000000
0.000000
0.000000
0.000000
0.000000
0.000000
0.000000
0.000000
0.000000
0.000000
0.000000
0.000000
0.000000
0.000000
0.000000
0.000000
0.000000
2289.103027
0.000000
1182.602295
0.000000
1477.298706
2118.109375
1287.101685
1025.343872
1060.981567
1606.604370
1144.346436
0.000000
1680.984741
1308.592529
449.789703
1948.956421
1224.630859
2589.213867
0.000000
1751.917114
2454.920166
1028.098999
0.000000
0.000000
3855.886719
4217.001953
0.000000
859.957214
756.843811
1578.104004
1471.829956
1094.719238
0.000000
0.000000
1918.528320
0.000000
2435.259277
753.558167
0.000000
0.000000
1893.163574
2646.163330
0.000000
453.609680
0.000000
1909.147583
0.000000
0.000000
3307.313965
3598.051514
889.077026
0.000000
542.562683
1139.925903
0.000000
0.000000
955.381897
1542.818970
943.374939
1213.096558
1491.540283
834.786194
0.000000
0.000000
689.199524
2843.487549
316.405334
1939.456299
1026.763428
1743.864380
0.000000
0.000000
3371.078369
3539.930664
1367.367676
0.000000
889.984985
0.000000
1244.713135
0.000000
201.910767
1659.260254
0.000000
1267.058228
1608.014282
766.223450
1340.121216
1103.023193
10.491666
1792.562988
349.197510
1064.459717
479.865936
0.000000
0.000000
0.000000
2969.930664
2072.571045
0.000000
46.364559
0.164100
1898.136597
494.389404
616.152832
0.000000
974.244385
0.000000
0.000000
0.000000
368.262238
1793.141724
0.000000
1743.319824
0.000000
0.000000
1157.821533
0.000000
1716.437256
0.000000
0.000000
2645.887939
1190.083252
0.000000
0.000000
0.000000
1301.163940
0.000000
2023.488037
0.000000
0.000000
0.000000
0.000000
0.000000
0.000000
0.000000
0.000000
0.000000
244.958115
73.730827
0.000000
0.000000
0.000000
0.000000
0.000000
3664.641602
3573.336182
2352.466064
0.000000
0.000000
0.000000
943.347900
0.000000
418.154541
1503.317017
253.488739
0.000000
850.076233
0.000000
0.000000
0.000000
333.669739
1032.331543
0.000000
138.729080
545.833130
247.355911
0.000000
0.000000
2392.025879
1793.360352
0.000000
996.499146
834.978821
454.027954
845.455139
0.000000
0.000000
0.000000
0.000000
2009.541138
765.883301
0.000000
1586.217163
0.000000
448.860718
0.000000
0.000000
0.000000
944.521545
0.000000
0.000000
0.000000
2407.519287
2324.664551
458.996277
0.000000
0.000000
0.000000
0.000000
0.000000
83.947517
0.000000
92.816879
2081.452148
0.000000
0.000000
1177.658447
255.490326
1563.407837
0.000000
0.000000
2459.727539
0.000000
1480.377808
0.000000
0.000000
2358.995117
2477.643311
0.000000
0.000000
0.000000
594.202393
1681.678833
0.000000
0.000000
0.000000
336.352661
715.862366
0.000000
3639.480469
392.273407
1134.674561
505.602997
566.533813
0.000000
0.000000
1875.602051
0.000000
0.000000
0.000000
1933.132568
676.625305
0.000000
0.000000
1964.881104
1688.235352
0.000000
0.000000
3262.690186
2473.806641
0.000000
0.000000
2677.255371
2447.031494
0.000000
0.000000
2393.503662
2337.550049
0.000000
0.000000
1321.995605
1097.666260
0.000000
0.000000
169.685440
222.987762
0.000000
0.000000
91.399818
0.000000
0.000000
0.000000
1660.951782
763.293091
0.000000
0.000000
2633.400146
1751.599365
0.000000
0.000000
2993.451904
2135.333984
0.000000
0.000000
2429.814697
825.424316
0.000000
0.000000
1858.989136
26.510067
0.000000
0.000000
1297.981079
157.331223
0.000000
0.000000
2353.064697
1767.765869
0.000000
0.000000
2293.786133
572.619141
0.000000
0.000000
1410.768799
1159.488159
0.000000
0.000000
306.923096
1199.003052
0.000000
0.000000
0.000000
310.808105
0.000000
0.000000
0.000000
0.000000
0.000000
0.000000
325.397552
0.000000
0.000000
0.000000
992.407043
1269.462158
0.000000
0.000000
783.940735
427.952972
0.000000
0.000000
475.251892
598.457581
0.000000
0.000000
1732.220337
1191.990112
0.000000
0.000000
1653.672852
816.473511
0.000000
0.000000
817.856750
0.000000
0.000000
0.000000
653.237427
0.000000
0.000000
0.000000
1408.476929
0.000000
0.000000
0.000000
1784.565796
651.999023
0.000000
0.000000
1199.837646
465.600220
2123.476562
0.000000
0.000000
0.000000
0.000000
0.000000
0.000000
0.000000
0.000000
0.000000
0.000000
0.000000
0.000000
0.000000
0.000000
0.000000
0.000000
0.000000
0.000000
0.000000
0.000000
0.000000
0.000000
0.000000
0.000000
0.000000
1349.049927
1459.785278
2838.429199
2806.147705
0.000000
0.000000
0.000000
0.000000
0.000000
0.000000
0.000000
0.000000
0.000000
0.000000
0.000000
0.000000
0.000000
0.000000
0.000000
0.000000
0.000000
0.000000
0.000000
0.000000
0.000000
0.000000
0.000000
0.000000
0.000000
0.000000
0.000000
0.000000
0.000000
0.000000
0.000000
0.000000
0.000000
0.000000
0.000000
0.000000
0.000000
0.000000
0.000000
0.000000
0.000000
0.000000
0.000000
0.000000
0.000000
0.000000
0.000000
0.000000
0.000000
0.000000
0.000000
0.000000
0.000000
0.000000
0.000000
0.000000
0.000000
0.000000
0.000000
0.000000
0.000000
0.000000
0.000000
0.000000
0.000000
0.000000
0.000000
0.000000
0.000000
0.000000
0.000000
0.000000
0.000000
0.000000
0.000000
0.000000
0.000000
0.000000
</DataArray>
</PointData>
<Cells>
<DataArray type='Int32' Name='connectivity' format='ascii'>
0
1
2
3
4
5
6
7
8
9
10
11
12
13
14
15
16
17
18
19
20
21
22
23
24
25
26
27
28
29
30
31
32
33
34
35
36
37
38
39
40
41
42
43
44
45
46
47
48
49
50
51
52
53
54
55
56
57
58
59
60
61
62
63
64
65
66
67
68
69
70
71
72
73
74
75
76
77
78
79
80
81
82
83
84
85
86
87
88
89
90
91
92
93
94
95
96
97
98
99
100
101
102
103
104
105
106
107
108
109
110
111
112
113
114
115
116
117
118
119
120
121
122
123
124
125
126
127
128
129
130
131
132
133
134
135
136
137
138
139
140
141
142
143
144
145
146
147
148
149
150
151
152
153
154
155
156
157
158
159
160
161
162
163
164
165
166
167
168
169
170
171
172
173
174
175
176
177
178
179
180
181
182
183
184
185
186
187
188
189
190
191
192
193
194
195
196
197
198
199
200
201
202
203
204
205
206
207
208
209
210
211
212
213
214
215
216
217
218
219
220
221
222
223
224
225
226
227
228
229
230
231
232
233
234
235
236
237
238
239
240
241
242
243
244
245
246
247
248
249
250
251
252
253
254
255
256
257
258
259
260
261
262
263
264
265
266
267
268
269
270
271
272
273
274
275
276
277
278
279
280
281
282
283
284
285
286
287
288
289
290
291
292
293
294
295
296
297
298
299
300
301
302
303
304
305