<?xml version='1.0' encoding='UTF-8'?>
<VTKFile xmlns='VTK' byte_order='LittleEndian' version='0.1' type='UnstructuredGrid'>
<UnstructuredGrid>
<Piece NumberOfCells='584' NumberOfPoints='584'>
<Points>
<DataArray NumberOfComponents='3' type='Float32' Name='Position' format='ascii'>
-0.075000 -0.075000 0.000000
-0.075000 -0.050000 0.000000
-0.075000 -0.025000 0.000000
-0.075000 0.000000 0.000000
-0.075000 0.025000 0.000000
-0.075000 0.050000 0.000000
-0.075000 0.075000 0.000000
-0.075000 0.100000 0.000000
-0.075000 0.125000 0.000000
-0.075000 0.150000 0.000000
-0.075000 0.175000 0.000000
-0.075000 0.200000 0.000000
-0.075000 0.225000 0.000000
-0.075000 0.250000 0.000000
-0.075000 0.275000 0.000000
-0.075000 0.300000 0.000000
-0.075000 0.325000 0.000000
-0.075000 0.350000 0.000000
-0.075000 0.375000 0.000000
-0.075000 0.400000 0.000000
-0.075000 0.425000 0.000000
-0.075000 0.450000 0.000000
-0.075000 0.475000 0.000000
-0.075000 0.500000 0.000000
-0.075000 0.525000 0.000000
-0.075000 0.550000 0.000000
-0.075000 0.575000 0.000000
-0.075000 0.600000 0.000000
-0.050000 -0.075000 0.000000
-0.050000 -0.050000 0.000000
-0.050000 -0.025000 0.000000
-0.050000 0.000000 0.000000
-0.050000 0.025000 0.000000
-0.050000 0.050000 0.000000
-0.050000 0.075000 0.000000
-0.050000 0.100000 0.000000
-0.050000 0.125000 0.000000
-0.050000 0.150000 0.000000
-0.050000 0.175000 0.000000
-0.050000 0.200000 0.000000
-0.050000 0.225000 0.000000
-0.050000 0.250000 0.000000
-0.050000 0.275000 0.000000
-0.050000 0.300000 0.000000
-0.050000 0.325000 0.000000
-0.050000 0.350000 0.000000
-0.050000 0.375000 0.000000
-0.050000 0.400000 0.000000
-0.050000 0.425000 0.000000
-0.050000 0.450000 0.000000
-0.050000 0.475000 0.000000
-0.050000 0.500000 0.000000
-0.050000 0.525000 0.000000
-0.050000 0.550000 0.000000
-0.050000 0.575000 0.000000
-0.050000 0.600000 0.000000
-0.025000 -0.075000 0.000000
-0.025000 -0.050000 0.000000
-0.025000 -0.025000 0.000000
-0.025000 0.000000 0.000000
-0.025000 0.025000 0.000000
-0.025000 0.050000 0.000000
-0.025000 0.075000 0.000000
-0.025000 0.100000 0.000000
-0.025000 0.125000 0.000000
-0.025000 0.150000 0.000000
-0.025000 0.175000 0.000000
-0.025000 0.200000 0.000000
-0.025000 0.225000 0.000000
-0.025000 0.250000 0.000000
-0.025000 0.275000 0.000000
-0.025000 0.300000 0.000000
-0.025000 0.325000 0.000000
-0.025000 0.350000 0.000000
-0.025000 0.375000 0.000000
-0.025000 0.400000 0.000000
-0.025000 0.425000 0.000000
-0.025000 0.450000 0.000000
-0.025000 0.475000 0.000000
-0.025000 0.500000 0.000000
-0.025000 0.525000 0.000000
-0.025000 0.550000 0.000000
-0.025000 0.575000 0.000000
-0.025000 0.600000 0.000000
0.000000 -0.075000 0.000000
0.000000 -0.050000 0.000000
0.000000 -0.025000 0.000000
0.000000 0.000000 0.000000
0.000000 0.025000 0.000000
0.000000 0.050000 0.000000
0.000000 0.075000 0.000000
0.000000 0.100000 0.000000
0.000000 0.125000 0.000000
0.000000 0.150000 0.000000
0.000000 0.175000 0.000000
0.000000 0.200000 0.000000
0.000000 0.225000 0.000000
0.000000 0.250000 0.000000
0.000000 0.275000 0.000000
0.000000 0.300000 0.000000
0.000000 0.325000 0.000000
0.000000 0.350000 0.000000
0.000000 0.375000 0.000000
0.000000 0.400000 0.000000
0.000000 0.425000 0.000000
0.000000 0.450000 0.000000
0.000000 0.475000 0.000000
0.000000 0.500000 0.000000
0.000000 0.525000 0.000000
0.000000 0.550000 0.000000
0.000000 0.575000 0.000000
0.000000 0.600000 0.000000
0.025000 -0.075000 0.000000
0.025000 -0.050000 0.000000
0.025000 -0.025000 0.000000
0.025000 0.000000 0.000000
0.286434 0.040337 0.000000
0.265970 0.024134 0.000000
0.258080 0.058244 0.000000
0.191633 0.021669 0.000000
0.372274 0.023341 0.000000
0.058811 0.018691 0.000000
0.453129 0.025267 0.000000
0.298486 0.023651 0.000000
0.227846 0.025970 0.000000
0.152556 0.044761 0.000000
0.307088 0.047503 0.000000
0.202290 0.052709 0.000000
0.165094 0.026135 0.000000
0.025112 0.027659 0.000000
0.023867 0.048276 0.000000
0.051095 0.041349 0.000000
0.108964 0.021063 0.000000
0.089625 0.033627 0.000000
0.106616 0.047732 0.000000
0.141439 0.025183 0.000000
0.050000 -0.075000 0.000000
0.050000 -0.050000 0.000000
0.050000 -0.025000 0.000000
0.050000 0.000000 0.000000
0.358568 0.046091 0.000000
0.469577 0.157686 0.000000
0.461481 0.140576 0.000000
0.230319 0.180413 0.000000
0.314124 0.138540 0.000000
0.628348 0.053436 0.000000
0.415562 0.108471 0.000000
0.740707 0.047810 0.000000
0.392543 0.033426 0.000000
0.419669 0.082742 0.000000
0.300120 0.113408 0.000000
0.435978 0.055287 0.000000
0.062221 0.054204 0.000000
0.439297 0.077018 0.000000
0.279413 0.071644 0.000000
0.276445 0.087125 0.000000
0.213119 0.044436 0.000000
0.334836 0.019330 0.000000
0.131236 0.049440 0.000000
0.187178 0.048137 0.000000
0.075000 -0.075000 0.000000
0.075000 -0.050000 0.000000
0.075000 -0.025000 0.000000
0.075000 0.000000 0.000000
0.390180 0.084558 0.000000
0.409372 0.145114 0.000000
0.540160 0.022842 0.000000
0.492077 0.020878 0.000000
0.772864 0.096500 0.000000
0.816627 0.028170 0.000000
0.814550 0.053204 0.000000
0.057591 0.069558 0.000000
0.755182 0.086009 0.000000
0.791690 0.049759 0.000000
0.613846 0.027204 0.000000
0.452355 0.126882 0.000000
0.311010 0.067119 0.000000
0.380141 0.061734 0.000000
0.410100 0.021785 0.000000
0.364456 0.065940 0.000000
0.336156 0.040630 0.000000
0.282719 0.114053 0.000000
0.318656 0.100323 0.000000
0.246343 0.028604 0.000000
0.100000 -0.075000 0.000000
0.100000 -0.050000 0.000000
0.100000 -0.025000 0.000000
0.100000 0.000000 0.000000
0.656455 0.021101 0.000000
0.590597 0.022710 0.000000
0.695766 0.076520 0.000000
0.899769 0.024680 0.000000
0.411283 0.058360 0.000000
0.876435 0.025914 0.000000
0.843426 0.095747 0.000000
0.537776 0.139092 0.000000
0.839987 0.022285 0.000000
0.839794 0.053129 0.000000
0.634941 0.031189 0.000000
0.643043 0.073411 0.000000
0.792479 0.073555 0.000000
0.770854 0.043128 0.000000
0.474154 0.080991 0.000000
0.433133 0.034208 0.000000
0.694545 0.023573 0.000000
0.685494 0.118917 0.000000
0.560462 0.049788 0.000000
0.480086 0.058624 0.000000
0.125000 -0.075000 0.000000
0.125000 -0.050000 0.000000
0.125000 -0.025000 0.000000
0.125000 0.000000 0.000000
0.870473 0.063898 0.000000
0.917635 0.105701 0.000000
1.001961 0.110607 0.000000
0.927935 0.026415 0.000000
0.890262 0.170647 0.000000
0.757039 0.025049 0.000000
0.599282 0.088513 0.000000
0.812412 0.126482 0.000000
0.922833 0.084029 0.000000
0.874139 0.104919 0.000000
0.949721 0.072126 0.000000
0.752232 0.186338 0.000000
0.671564 0.037790 0.000000
0.719032 0.057584 0.000000
0.515822 0.037757 0.000000
0.759095 0.065038 0.000000
0.712270 0.104633 0.000000
0.393210 0.121720 0.000000
0.680119 0.054354 0.000000
0.339584 0.121954 0.000000
0.150000 -0.075000 0.000000
0.150000 -0.050000 0.000000
0.150000 -0.025000 0.000000
0.150000 0.000000 0.000000
0.593059 0.127855 0.000000
1.003462 0.030658 0.000000
0.930806 0.179639 0.000000
0.556466 0.082620 0.000000
0.972340 0.043491 0.000000
0.353040 0.135348 0.000000
0.981764 0.098038 0.000000
0.683966 0.094054 0.000000
1.001449 0.079292 0.000000
0.941988 0.132871 0.000000
0.946025 0.050130 0.000000
0.861029 0.037173 0.000000
0.909210 0.043902 0.000000
0.921918 0.064792 0.000000
0.883610 0.082602 0.000000
0.794345 0.104135 0.000000
0.794460 0.022619 0.000000
0.822142 0.103756 0.000000
0.816174 0.081100 0.000000
0.618552 0.071408 0.000000
0.175000 -0.075000 0.000000
0.175000 -0.050000 0.000000
0.175000 -0.025000 0.000000
0.175000 0.000000 0.000000
0.267134 0.111514 0.000000
0.909664 0.149098 0.000000
0.962364 0.158791 0.000000
0.990881 0.128937 0.000000
0.963832 0.131578 0.000000
0.426219 0.125006 0.000000
0.949542 0.024537 0.000000
0.582069 0.147829 0.000000
0.537468 0.055071 0.000000
0.980343 0.022959 0.000000
0.824402 0.153851 0.000000
0.916379 0.129352 0.000000
0.733808 0.174452 0.000000
0.960594 0.094826 0.000000
0.974813 0.069578 0.000000
0.599099 0.053920 0.000000
0.996510 0.056879 0.000000
0.736390 0.102591 0.000000
0.620076 0.127006 0.000000
0.757135 0.151011 0.000000
0.200000 -0.075000 0.000000
0.200000 -0.050000 0.000000
0.200000 -0.025000 0.000000
0.200000 0.000000 0.000000
0.662314 0.109141 0.000000
0.370975 0.148368 0.000000
0.564339 0.093903 0.000000
0.944119 0.167106 0.000000
0.515233 0.071601 0.000000
0.705410 0.142533 0.000000
0.792245 0.130079 0.000000
0.963313 0.191257 0.000000
0.748458 0.126012 0.000000
0.393181 0.101143 0.000000
0.999888 0.156267 0.000000
0.892574 0.065732 0.000000
0.094070 0.061546 0.000000
0.669946 0.073103 0.000000
0.853769 0.115771 0.000000
0.468650 0.118859 0.000000
0.883457 0.135792 0.000000
0.646973 0.108361 0.000000
0.944565 0.110821 0.000000
0.845457 0.071982 0.000000
0.225000 -0.075000 0.000000
0.225000 -0.050000 0.000000
0.225000 -0.025000 0.000000
0.225000 0.000000 0.000000
0.602801 0.169753 0.000000
0.934741 0.841113 0.000000
0.862337 0.140456 0.000000
0.331448 0.087881 0.000000
0.332660 0.067294 0.000000
0.093053 0.089091 0.000000
0.774536 0.123142 0.000000
0.983531 0.152475 0.000000
0.858632 0.163676 0.000000
0.498917 0.095129 0.000000
0.917752 0.171309 0.000000
0.346308 0.162158 0.000000
0.500620 0.051753 0.000000
0.724057 0.077350 0.000000
0.396379 0.145851 0.000000
0.578713 0.096941 0.000000
0.708064 0.038186 0.000000
0.211919 0.145746 0.000000
0.494965 0.162838 0.000000
0.510992 0.154226 0.000000
0.250000 -0.075000 0.000000
0.250000 -0.050000 0.000000
0.250000 -0.025000 0.000000
0.250000 0.000000 0.000000
0.927921 0.333810 0.000000
0.683534 0.267487 0.000000
0.636100 0.092905 0.000000
0.617927 0.158656 0.000000
0.458979 0.429901 0.000000
0.722032 0.121229 0.000000
0.506077 0.182338 0.000000
0.517351 0.090502 0.000000
0.472432 0.031545 0.000000
0.836687 0.136484 0.000000
0.459339 0.077790 0.000000
0.182611 0.191630 0.000000
0.492729 0.143310 0.000000
0.733876 0.022759 0.000000
0.579041 0.051082 0.000000
0.507668 0.111228 0.000000
0.561627 0.025589 0.000000
0.894926 0.114583 0.000000
0.204150 0.177591 0.000000
0.877286 0.174713 0.000000
0.275000 -0.075000 0.000000
0.275000 -0.050000 0.000000
0.275000 -0.025000 0.000000
0.275000 0.000000 0.000000
0.300000 -0.075000 0.000000
0.300000 -0.050000 0.000000
0.300000 -0.025000 0.000000
0.300000 0.000000 0.000000
0.325000 -0.075000 0.000000
0.325000 -0.050000 0.000000
0.325000 -0.025000 0.000000
0.325000 0.000000 0.000000
0.350000 -0.075000 0.000000
0.350000 -0.050000 0.000000
0.350000 -0.025000 0.000000
0.350000 0.000000 0.000000
0.375000 -0.075000 0.000000
0.375000 -0.050000 0.000000
0.375000 -0.025000 0.000000
0.375000 0.000000 0.000000
0.400000 -0.075000 0.000000
0.400000 -0.050000 0.000000
0.400000 -0.025000 0.000000
0.400000 0.000000 0.000000
0.425000 -0.075000 0.000000
0.425000 -0.050000 0.000000
0.425000 -0.025000 0.000000
0.425000 0.000000 0.000000
0.450000 -0.075000 0.000000
0.450000 -0.050000 0.000000
0.450000 -0.025000 0.000000
0.450000 0.000000 0.000000
0.475000 -0.075000 0.000000
0.475000 -0.050000 0.000000
0.475000 -0.025000 0.000000
0.475000 0.000000 0.000000
0.500000 -0.075000 0.000000
0.500000 -0.050000 0.000000
0.500000 -0.025000 0.000000
0.500000 0.000000 0.000000
0.525000 -0.075000 0.000000
0.525000 -0.050000 0.000000
0.525000 -0.025000 0.000000
0.525000 0.000000 0.000000
0.550000 -0.075000 0.000000
0.550000 -0.050000 0.000000
0.550000 -0.025000 0.000000
0.550000 0.000000 0.000000
0.575000 -0.075000 0.000000
0.575000 -0.050000 0.000000
0.575000 -0.025000 0.000000
0.575000 0.000000 0.000000
0.600000 -0.075000 0.000000
0.600000 -0.050000 0.000000
0.600000 -0.025000 0.000000
0.600000 0.000000 0.000000
0.625000 -0.075000 0.000000
0.625000 -0.050000 0.000000
0.625000 -0.025000 0.000000
0.625000 0.000000 0.000000
0.650000 -0.075000 0.000000
0.650000 -0.050000 0.000000
0.650000 -0.025000 0.000000
0.650000 0.000000 0.000000
0.675000 -0.075000 0.000000
0.675000 -0.050000 0.000000
0.675000 -0.025000 0.000000
0.675000 0.000000 0.000000
0.700000 -0.075000 0.000000
0.700000 -0.050000 0.000000
0.700000 -0.025000 0.000000
0.700000 0.000000 0.000000
0.725000 -0.075000 0.000000
0.725000 -0.050000 0.000000
0.725000 -0.025000 0.000000
0.725000 0.000000 0.000000
0.750000 -0.075000 0.000000
0.750000 -0.050000 0.000000
0.750000 -0.025000 0.000000
0.750000 0.000000 0.000000
0.775000 -0.075000 0.000000
0.775000 -0.050000 0.000000
0.775000 -0.025000 0.000000
0.775000 0.000000 0.000000
0.800000 -0.075000 0.000000
0.800000 -0.050000 0.000000
0.800000 -0.025000 0.000000
0.800000 0.000000 0.000000
0.825000 -0.075000 0.000000
0.825000 -0.050000 0.000000
0.825000 -0.025000 0.000000
0.825000 0.000000 0.000000
0.850000 -0.075000 0.000000
0.850000 -0.050000 0.000000
0.850000 -0.025000 0.000000
0.850000 0.000000 0.000000
0.875000 -0.075000 0.000000
0.875000 -0.050000 0.000000
0.875000 -0.025000 0.000000
0.875000 0.000000 0.000000
0.900000 -0.075000 0.000000
0.900000 -0.050000 0.000000
0.900000 -0.025000 0.000000
0.900000 0.000000 0.000000
0.925000 -0.075000 0.000000
0.925000 -0.050000 0.000000
0.925000 -0.025000 0.000000
0.925000 0.000000 0.000000
0.950000 -0.075000 0.000000
0.950000 -0.050000 0.000000
0.950000 -0.025000 0.000000
0.950000 0.000000 0.000000
0.975000 -0.075000 0.000000
0.975000 -0.050000 0.000000
0.975000 -0.025000 0.000000
0.975000 0.000000 0.000000
1.000000 -0.075000 0.000000
1.000000 -0.050000 0.000000
1.000000 -0.025000 0.000000
1.000000 0.000000 0.000000
1.025000 -0.075000 0.000000
1.025000 -0.050000 0.000000
1.025000 -0.025000 0.000000
1.025000 0.000000 0.000000
1.025000 0.025000 0.000000
1.025000 0.050000 0.000000
1.025000 0.075000 0.000000
1.025000 0.100000 0.000000
1.025000 0.125000 0.000000
1.025000 0.150000 0.000000
1.025000 0.175000 0.000000
1.025000 0.200000 0.000000
1.025000 0.225000 0.000000
1.025000 0.250000 0.000000
1.025000 0.275000 0.000000
1.025000 0.300000 0.000000
1.025000 0.325000 0.000000
1.025000 0.350000 0.000000
1.025000 0.375000 0.000000
1.025000 0.400000 0.000000
1.025000 0.425000 0.000000
1.025000 0.450000 0.000000
1.025000 0.475000 0.000000
1.025000 0.500000 0.000000
1.025000 0.525000 0.000000
1.025000 0.550000 0.000000
1.025000 0.575000 0.000000
1.025000 0.600000 0.000000
1.050000 -0.075000 0.000000
1.050000 -0.050000 0.000000
1.050000 -0.025000 0.000000
1.050000 0.000000 0.000000
1.050000 0.025000 0.000000
1.050000 0.050000 0.000000
1.050000 0.075000 0.000000
1.050000 0.100000 0.000000
1.050000 0.125000 0.000000
1.050000 0.150000 0.000000
1.050000 0.175000 0.000000
1.050000 0.200000 0.000000
1.050000 0.225000 0.000000
1.050000 0.250000 0.000000
1.050000 0.275000 0.000000
1.050000 0.300000 0.000000
1.050000 0.325000 0.000000
1.050000 0.350000 0.000000
1.050000 0.375000 0.000000
1.050000 0.400000 0.000000
1.050000 0.425000 0.000000
1.050000 0.450000 0.000000
1.050000 0.475000 0.000000
1.050000 0.500000 0.000000
1.050000 0.525000 0.000000
1.050000 0.550000 0.000000
1.050000 0.575000 0.000000
1.050000 0.600000 0.000000
1.075000 -0.075000 0.000000
1.075000 -0.050000 0.000000
1.075000 -0.025000 0.000000
1.075000 0.000000 0.000000
1.075000 0.025000 0.000000
1.075000 0.050000 0.000000
1.075000 0.075000 0.000000
1.075000 0.100000 0.000000
1.075000 0.125000 0.000000
1.075000 0.150000 0.000000
1.075000 0.175000 0.000000
1.075000 0.200000 0.000000
1.075000 0.225000 0.000000
1.075000 0.250000 0.000000
1.075000 0.275000 0.000000
1.075000 0.300000 0.000000
1.075000 0.325000 0.000000
1.075000 0.350000 0.000000
1.075000 0.375000 0.000000
1.075000 0.400000 0.000000
1.075000 0.425000 0.000000
1.075000 0.450000 0.000000
1.075000 0.475000 0.000000
1.075000 0.500000 0.000000
1.075000 0.525000 0.000000
1.075000 0.550000 0.000000
1.075000 0.575000 0.000000
1.075000 0.600000 0.000000
1.100000 -0.075000 0.000000
1.100000 -0.050000 0.000000
1.100000 -0.025000 0.000000
1.100000 0.000000 0.000000
1.100000 0.025000 0.000000
1.100000 0.050000 0.000000
1.100000 0.075000 0.000000
1.100000 0.100000 0.000000
1.100000 0.125000 0.000000
1.100000 0.150000 0.000000
1.100000 0.175000 0.000000
1.100000 0.200000 0.000000
1.100000 0.225000 0.000000
1.100000 0.250000 0.000000
1.100000 0.275000 0.000000
1.100000 0.300000 0.000000
1.100000 0.325000 0.000000
1.100000 0.350000 0.000000
1.100000 0.375000 0.000000
1.100000 0.400000 0.000000
1.100000 0.425000 0.000000
1.100000 0.450000 0.000000
1.100000 0.475000 0.000000
1.100000 0.500000 0.000000
1.100000 0.525000 0.000000
1.100000 0.550000 0.000000
1.100000 0.575000 0.000000
1.100000 0.600000 0.000000
</DataArray>
</Points>
<PointData>
<DataArray NumberOfComponents='1' type='Int32' Name='ParticleType' format='ascii'>
3
3
3
3
3
3
3
3
3
3
3
3
3
3
3
3
3
3
3
3
3
3
3
3
3
3
2
2
3
3
3
3
3
3
3
3
3
3
3
3
3
3
3
3
3
3
3
3
3
3
3
3
3
3
2
2
3
3
2
2
2
2
2
2
2
2
2
2
2
2
2
2
2
2
2
2
2
2
2
2
2
2
2
2
3
3
2
2
2
2
2
2
2
2
2
2
2
2
2
2
2
2
2
2
2
2
2
2
2
2
2
2
3
3
2
2
0
0
0
0
0
0
0
0
0
0
0
0
0
0
0
0
0
0
0
0
3
3
2
2
0
0
0
0
0
0
0
0
0
0
0
0
0
0
0
0
0
0
0
0
3
3
2
2
0
0
0
0
0
0
0
0
0
0
0
0
0
0
0
0
0
0
0
0
3
3
2
2
0
0
0
0
0
0
0
0
0
0
0
0
0
0
0
0
0
0
0
0
3
3
2
2
0
0
0
0
0
0
0
0
0
0
0
0
0
0
0
0
0
0
0
0
3
3
2
2
0
0
0
0
0
0
0
0
0
0
0
0
0
0
0
0
0
0
0
0
3
3
2
2
0
0
0
0
0
0
0
0
0
0
0
0
0
0
0
0
0
0
0
0
3
3
2
2
0
0
0
0
0
0
0
0
0
0
0
0
0
0
0
0
0
0
0
0
3
3
2
2
0
0
0
0
0
0
0
0
0
0
0
0
0
0
0
0
0
0
0
0
3
3
2
2
0
0
0
0
0
0
0
0
0
0
0
0
0
0
0
0
0
0
0
0
3
3
2
2
3
3
2
2
3
3
2
2
3
3
2
2
3
3
2
2
3
3
2
2
3
3
2
2
3
3
2
2
3
3
2
2
3
3
2
2
3
3
2
2
3
3
2
2
3
3
2
2
3
3
2
2
3
3
2
2
3
3
2
2
3
3
2
2
3
3
2
2
3
3
2
2
3
3
2
2
3
3
2
2
3
3
2
2
3
3
2
2
3
3
2
2
3
3
2
2
3
3
2
2
3
3
2
2
3
3
2
2
3
3
2
2
3
3
2
2
3
3
2
2
2
2
2
2
2
2
2
2
2
2
2
2
2
2
2
2
2
2
2
2
2
2
2
2
3
3
2
2
2
2
2
2
2
2
2
2
2
2
2
2
2
2
2
2
2
2
2
2
2
2
2
2
3
3
3
3
3
3
3
3
3
3
3
3
3
3
3
3
3
3
3
3
3
3
3
3
3
3
2
2
3
3
3
3
3
3
3
3
3
3
3
3
3
3
3
3
3
3
3
3
3
3
3
3
3
3
2
2
</DataArray>
<DataArray NumberOfComponents='1' type='Float32' Name='Velocity' format='ascii'>
0.000000
0.000000
0.000000
0.000000
0.000000
0.000000
0.000000
0.000000
0.000000
0.000000
0.000000
0.000000
0.000000
0.000000
0.000000
0.000000
0.000000
0.000000
0.000000
0.000000
0.000000
0.000000
0.000000
0.000000
0.000000
0.000000
0.000000
0.000000
0.000000
0.000000
0.000000
0.000000
0.000000
0.000000
0.000000
0.000000
0.000000
0.000000
0.000000
0.000000
0.000000
0.000000
0.000000
0.000000
0.000000
0.000000
0.000000
0.000000
0.000000
0.000000
0.000000
0.000000
0.000000
0.000000
0.000000
0.000000
0.000000
0.000000
0.000000
0.000000
0.000000
0.000000
0.000000
0.000000
0.000000
0.000000
0.000000
0.000000
0.000000
0.000000
0.000000
0.000000
0.000000
0.000000
0.000000
0.000000
0.000000
0.000000
0.000000
0.000000
0.000000
0.000000
0.000000
0.000000
0.000000
0.000000
0.000000
0.000000
0.000000
0.000000
0.000000
0.000000
0.000000
0.000000
0.000000
0.000000
0.000000
0.000000
0.000000
0.000000
0.000000
0.000000
0.000000
0.000000
0.000000
0.000000
0.000000
0.000000
0.000000
0.000000
0.000000
0.000000
0.000000
0.000000
0.000000
0.000000
0.118602
0.130792
0.583782
0.068403
0.386476
0.219504
0.550626
0.446555
0.161663
0.220540
0.461367
0.216594
0.179801
0.244077
0.138115
0.367065
0.186686
0.457456
0.499741
0.297647
0.000000
0.000000
0.000000
0.000000
0.612512
1.385926
1.248675
2.318283
2.191690
0.485693
1.653776
0.546819
0.424517
0.867413
1.385400
0.670666
0.722885
0.484985
0.539099
1.435343
0.133049
0.085224
0.296829
0.115634
0.000000
0.000000
0.000000
0.000000
0.331040
1.671161
0.058904
0.479121
0.637775
0.454260
0.268718
2.854768
0.652304
0.209539
0.457744
1.437665
0.563204
0.292706
0.494559
0.803274
0.125430
1.635957
1.471148
0.176504
0.000000
0.000000
0.000000
0.000000
0.859472
0.649639
0.995958
0.076513
0.587658
0.245618
0.398974
2.108753
0.269764
0.259513
0.701762
1.062923
0.582267
0.552650
0.901350
0.472544
0.649561
1.140403
0.572622
0.733657
0.000000
0.000000
0.000000
0.000000
0.453175
0.160935
0.305867
0.306184
0.762136
0.086566
0.519345
0.704490
0.113577
0.349056
0.147924
0.395340
0.523233
0.347217
0.706174
0.511159
0.493447
1.835687
0.268753
1.516186
0.000000
0.000000
0.000000
0.000000
1.557605
0.060494
0.953678
0.855265
0.222632
1.843712
0.416659
0.814103
0.259474
0.535649
0.300455
0.424310
0.377888
0.347098
0.294825
0.361971
0.378905
0.733499
0.524381
0.844921
0.000000
0.000000
0.000000
0.000000
1.718947
1.063712
0.597452
0.164001
0.196078
1.352963
0.427481
2.348033
0.517840
0.212159
0.402670
0.129787
0.541696
0.156312
0.197562
0.325558
0.360403
0.696631
1.940553
0.828204
0.000000
0.000000
0.000000
0.000000
1.086016
1.624988
0.815325
0.565181
1.270720
1.182069
0.958213
1.552885
1.063245
0.701216
0.425166
0.691347
2.762998
0.700589
0.605205
2.058916
0.456360
1.118258
0.209243
0.519588
0.000000
0.000000
0.000000
0.000000
1.331144
3.003508
0.812958
1.502334
0.557381
2.910536
1.092723
0.447192
0.838311
1.181262
0.507418
1.224041
0.427217
0.774792
1.718370
1.311061
0.541928
2.804727
0.682369
1.092905
0.000000
0.000000
0.000000
0.000000
3.737073
3.723843
1.162903
1.328095
3.639771
0.976209
3.866535
1.523821
0.586893
0.830286
0.888095
2.615846
1.909092
0.153856
0.444716
1.392311
0.101459
0.454506
2.348668
0.868801
0.000000
0.000000
0.000000
0.000000
0.000000
0.000000
0.000000
0.000000
0.000000
0.000000
0.000000
0.000000
0.000000
0.000000
0.000000
0.000000
0.000000
0.000000
0.000000
0.000000
0.000000
0.000000
0.000000
0.000000
0.000000
0.000000
0.000000
0.000000
0.000000
0.000000
0.000000
0.000000
0.000000
0.000000
0.000000
0.000000
0.000000
0.000000
0.000000
0.000000
0.000000
0.000000
0.000000
0.000000
0.000000
0.000000
0.000000
0.000000
0.000000
0.000000
0.000000
0.000000
0.000000
0.000000
0.000000
0.000000
0.000000
0.000000
0.000000
0.000000
0.000000
0.000000
0.000000
0.000000
0.000000
0.000000
0.000000
0.000000
0.000000
0.000000
0.000000
0.000000
0.000000
0.000000
0.000000
0.000000
0.000000
0.000000
0.000000
0.000000
0.000000
0.000000
0.000000
0.000000
0.000000
0.000000
0.000000
0.000000
0.000000
0.000000
0.000000
0.000000
0.000000
0.000000
0.000000
0.000000
0.000000
0.000000
0.000000
0.000000
0.000000
0.000000
0.000000
0.000000
0.000000
0.000000
0.000000
0.000000
0.000000
0.000000
0.000000
0.000000
0.000000
0.000000
0.000000
0.000000
0.000000
0.000000
0.000000
0.000000
0.000000
0.000000
0.000000
0.000000
0.000000
0.000000
0.000000
0.000000
0.000000
0.000000
0.000000
0.000000
0.000000
0.000000
0.000000
0.000000
0.000000
0.000000
0.000000
0.000000
0.000000
0.000000
0.000000
0.000000
0.000000
0.000000
0.000000
0.000000
0.000000
0.000000
0.000000
0.000000
0.000000
0.000000
0.000000
0.000000
0.000000
0.000000
0.000000
0.000000
0.000000
0.000000
0.000000
0.000000
0.000000
0.000000
0.000000
0.000000
0.000000
0.000000
0.000000
0.000000
0.000000
0.000000
0.000000
0.000000
0.000000
0.000000
0.000000
0.000000
0.000000
0.000000
0.000000
0.000000
0.000000
0.000000
0.000000
0.000000
0.000000
0.000000
0.000000
0.000000
0.000000
0.000000
0.000000
0.000000
0.000000
0.000000
0.000000
0.000000
0.000000
0.000000
0.000000
0.000000
0.000000
0.000000
0.000000
0.000000
0.000000
0.000000
0.000000
0.000000
0.000000
0.000000
0.000000
0.000000
0.000000
0.000000
0.000000
0.000000
0.000000
0.000000
0.000000
0.000000
0.000000
0.000000
0.000000
0.000000
0.000000
0.000000
0.000000
0.000000
</DataArray>
<DataArray NumberOfComponents='1' type='Float32' Name='pressure' format='ascii'>
0.000000
0.000000
0.000000
0.000000
0.000000
0.000000
0.000000
0.000000
0.000000
0.000000
0.000000
0.000000
0.000000
0.000000
0.000000
0.000000
0.000000
0.000000
0.000000
0.000000
0.000000
0.000000
0.000000
0.000000
0.000000
0.000000
0.000000
0.000000
0.000000
0.000000
0.000000
0.000000
0.000000
0.000000
0.000000
0.000000
0.000000
0.000000
0.000000
0.000000
0.000000
0.000000
0.000000
0.000000
0.000000
0.000000
0.000000
0.000000
0.000000
0.000000
0.000000
0.000000
0.000000
0.000000
0.000000
0.000000
0.000000
0.000000
0.000000
0.000000
0.000000
0.000000
0.000000
0.000000
0.000000
0.000000
0.000000
0.000000
0.000000
0.000000
0.000000
0.000000
0.000000
0.000000
0.000000
0.000000
0.000000
0.000000
0.000000
0.000000
0.000000
0.000000
0.000000
0.000000
0.000000
0.000000
0.000000
0.000000
0.000000
0.000000
0.000000
0.000000
0.000000
0.000000
0.000000
0.000000
0.000000
0.000000
0.000000
0.000000
0.000000
0.000000
0.000000
0.000000
0.000000
0.000000
0.000000
0.000000
0.000000
0.000000
0.000000
0.000000
0.000000
0.000000
0.000000
0.000000
420.396515
591.252686
0.000000
883.560425
0.000000
0.000000
0.000000
484.418579
0.000000
0.000000
2595.821045
0.000000
575.278992
0.000000
0.000000
3103.058105
212.496552
0.000000
0.000000
533.478882
0.000000
0.000000
2834.978760
1755.680298
1367.796509
0.000000
1392.274658
0.000000
0.000000
1332.701538
3616.527832
0.000000
0.000000
634.145935
0.000000
0.000000
5108.906738
0.000000
0.000000
0.000000
404.714722
1390.819458
0.000000
0.000000
0.000000
0.000000
2201.527344
0.000000
0.000000
0.000000
0.000000
0.000000
180.841934
2051.705811
1048.884521
0.000000
1071.419678
1797.743164
1112.006348
0.000000
240.582916
2587.268066
638.836487
617.131836
1246.817383
0.000000
0.000000
0.000000
0.000000
0.000000
1848.306274
376.140686
1482.677612
712.837585
781.666382
1648.473877
0.000000
1763.652588
740.352112
0.000000
1539.095093
544.546875
304.193512
209.521973
0.000000
1368.626953
0.000000
0.000000
246.340546
0.000000
0.000000
0.000000
0.000000
0.000000
877.698608
0.000000
0.000000
2007.812500
1646.426147
950.657349
0.000000
1244.816162
0.000000
0.000000
504.475403
37.139187
1848.402954
0.000000
1956.610962
1490.244019
0.000000
0.000000
1173.318604
0.000000
2931.803711
0.000000
0.000000
0.000000
160.869080
557.463074
0.000000
1967.318115
0.000000
0.000000
1433.637939
0.000000
954.185608
1850.077515
1664.955444
1093.926636
1284.283203
1351.897949
1459.776733
1297.542480
648.590027
1221.536987
598.912476
1539.454102
0.000000
0.000000
0.000000
0.000000
679.173279
741.373779
0.000000
706.184021
0.000000
1116.337036
905.876892
0.000000
1653.494507
0.000000
0.000000
2530.142578
0.000000
2778.977051
0.000000
1548.992676
865.364441
0.000000
1077.302979
0.000000
0.000000
0.000000
0.000000
0.000000
1059.582642
0.000000
0.000000
0.000000
1886.969849
2523.727783
0.000000
0.000000
0.000000
0.000000
0.000000
2815.994141
0.000000
717.539490
0.000000
0.000000
2059.977051
0.000000
1755.985229
0.000000
0.000000
1329.888306
0.000000
0.000000
0.000000
0.000000
0.000000
0.000000
647.431213
0.000000
0.000000
0.000000
0.000000
1600.336182
0.000000
0.000000
0.000000
0.000000
0.000000
0.000000
0.000000
0.000000
1540.926880
0.000000
0.000000
0.000000
0.000000
0.000000
0.000000
855.790833
0.000000
0.000000
0.000000
0.000000
0.000000
0.000000
0.000000
0.000000
0.000000
0.000000
133.769974
0.000000
0.000000
1670.947632
1015.555420
0.000000
2824.513184
1457.581299
0.000000
0.000000
0.000000
0.000000
1229.498047
1456.244019
0.000000
0.000000
2572.341309
1707.959595
0.000000
0.000000
4363.263672
2856.853760
0.000000
0.000000
3823.520752
2033.336060
0.000000
0.000000
2769.051758
2028.947632
0.000000
0.000000
2061.315186
2574.528564
0.000000
0.000000
442.864136
0.000000
0.000000
0.000000
0.000000
0.000000
0.000000
0.000000
0.000000
0.000000
0.000000
0.000000
1078.519775
0.000000
0.000000
0.000000
518.451965
0.000000
0.000000
0.000000
1665.855591
1566.867310
0.000000
0.000000
1362.069824
1383.279175
0.000000
0.000000
1833.990479
1193.885254
0.000000
0.000000
782.323486
590.766296
0.000000
0.000000
2868.038574
3554.851562
0.000000
0.000000
1585.332397
388.892426
0.000000
0.000000
1490.767700
0.000000
0.000000
0.000000
1564.907349
777.074036
0.000000
0.000000
1561.391846
1071.220215
0.000000
0.000000
705.577942
0.000000
0.000000
0.000000
2092.036865
1210.767700
0.000000
0.000000
1885.755859
1817.051392
0.000000
0.000000
2381.615479
1777.587158
0.000000
0.000000
1489.689819
1618.791748
0.000000
0.000000
1784.663818
2124.181641
0.000000
0.000000
1234.245117
1453.816284
0.000000
0.000000
1894.009399
2208.169678
0.000000
0.000000
2153.850830
2222.712402
0.000000
0.000000
729.384888
0.000000
0.000000
0.000000
1275.675781
1036.447998
3097.812988
450.167236
2005.756958
1521.893311
0.000000
0.000000
0.000000
0.000000
0.000000
0.000000
0.000000
0.000000
0.000000
0.000000
0.000000
0.000000
0.000000
0.000000
0.000000
0.000000
0.000000
0.000000
0.000000
0.000000
0.000000
0.000000
1455.343018
1701.413330
2971.401367
1715.188843
2044.532227
1481.728027
530.837463
0.000000
0.000000
0.000000
0.000000
0.000000
0.000000
0.000000
0.000000
0.000000
0.000000
0.000000
0.000000
0.000000
0.000000
0.000000
0.000000
0.000000
0.000000
0.000000
0.000000
0.000000
0.000000
0.000000
0.000000
0.000000
0.000000
0.000000
0.000000
0.000000
0.000000
0.000000
0.000000
0.000000
0.000000
0.000000
0.000000
0.000000
0.000000
0.000000
0.000000
0.000000
0.000000
0.000000
0.000000
0.000000
0.000000
0.000000
0.000000
0.000000
0.000000
0.000000
0.000000
0.000000
0.000000
0.000000
0.000000
0.000000
0.000000
0.000000
0.000000
0.000000
0.000000
0.000000
0.000000
0.000000
0.000000
0.000000
0.000000
0.000000
0.000000
0.000000
0.000000
0.000000
0.000000
0.000000
</DataArray>
</PointData>
<Cells>
<DataArray type='Int32' Name='connectivity' format='ascii'>
0
1
2
3
4
5
6
7
8
9
10
11
12
13
14
15
16
17
18
19
20
21
22
23
24
25
26
27
28
29
30
31
32
33
34
35
36
37
38
39
40
41
42
43
44
45
46
47
48
49
50
51
52
53
54
55
56
57
58
59
60
61
62
63
64
65
66
67
68
69
70
71
72
73
74
75
76
77
78
79
80
81
82
83
84
85
86
87
88
89
90
91
92
93
94
95
96
97
98
99
100
101
102
103
104
105
106
107
108
109
110
111
112
113
114
115
116
117
118
119
120
121
122
123
124
125
126
127
128
129
130
131
132
133
134
135
136
137
138
139
140
141
142
143
144
145
146
147
148
149
150
151
152
153
154
155
156
157
158
159
160
161
162
163
164
165
166
167
168
169
170
171
172
173
174
175
176
177
178
179
180
181
182
183
184
185
186
187
188
189
190
191
192
193
194
195
196
197
198
199
200
201
202
203
204
205
206
207
208
209
210
211
212
213
214
215
216
217
218
219
220
221
222
223
224
225
226
227
228
229
230
231
232
233
234
235
236
237
238
239
240
241
242
243
244
245
246
247
248
249
250
251
252
253
254
255
256
257
258
259
260
261
262
263
264
265
266
267
268
269
270
271
272
273
274
275
276
277
278
279
280
281
282
283
284
285
286
287
288
289
290
291
292
293
294
295
296
297
298
299
300
301
302
303
304
305
306
307
308
309
310
311
312
313
314
315
316
317
318
319
320
321
322
323
324
325
326