<?xml version='1.0' encoding='UTF-8'?>
<VTKFile xmlns='VTK' byte_order='LittleEndian' version='0.1' type='UnstructuredGrid'>
<UnstructuredGrid>
<Piece NumberOfCells='584' NumberOfPoints='584'>
<Points>
<DataArray NumberOfComponents='3' type='Float32' Name='Position' format='ascii'>
-0.075000 -0.075000 0.000000
-0.075000 -0.050000 0.000000
-0.075000 -0.025000 0.000000
-0.075000 0.000000 0.000000
-0.075000 0.025000 0.000000
-0.075000 0.050000 0.000000
-0.075000 0.075000 0.000000
-0.075000 0.100000 0.000000
-0.075000 0.125000 0.000000
-0.075000 0.150000 0.000000
-0.075000 0.175000 0.000000
-0.075000 0.200000 0.000000
-0.075000 0.225000 0.000000
-0.075000 0.250000 0.000000
-0.075000 0.275000 0.000000
-0.075000 0.300000 0.000000
-0.075000 0.325000 0.000000
-0.075000 0.350000 0.000000
-0.075000 0.375000 0.000000
-0.075000 0.400000 0.000000
-0.075000 0.425000 0.000000
-0.075000 0.450000 0.000000
-0.075000 0.475000 0.000000
-0.075000 0.500000 0.000000
-0.075000 0.525000 0.000000
-0.075000 0.550000 0.000000
-0.075000 0.575000 0.000000
-0.075000 0.600000 0.000000
-0.050000 -0.075000 0.000000
-0.050000 -0.050000 0.000000
-0.050000 -0.025000 0.000000
-0.050000 0.000000 0.000000
-0.050000 0.025000 0.000000
-0.050000 0.050000 0.000000
-0.050000 0.075000 0.000000
-0.050000 0.100000 0.000000
-0.050000 0.125000 0.000000
-0.050000 0.150000 0.000000
-0.050000 0.175000 0.000000
-0.050000 0.200000 0.000000
-0.050000 0.225000 0.000000
-0.050000 0.250000 0.000000
-0.050000 0.275000 0.000000
-0.050000 0.300000 0.000000
-0.050000 0.325000 0.000000
-0.050000 0.350000 0.000000
-0.050000 0.375000 0.000000
-0.050000 0.400000 0.000000
-0.050000 0.425000 0.000000
-0.050000 0.450000 0.000000
-0.050000 0.475000 0.000000
-0.050000 0.500000 0.000000
-0.050000 0.525000 0.000000
-0.050000 0.550000 0.000000
-0.050000 0.575000 0.000000
-0.050000 0.600000 0.000000
-0.025000 -0.075000 0.000000
-0.025000 -0.050000 0.000000
-0.025000 -0.025000 0.000000
-0.025000 0.000000 0.000000
-0.025000 0.025000 0.000000
-0.025000 0.050000 0.000000
-0.025000 0.075000 0.000000
-0.025000 0.100000 0.000000
-0.025000 0.125000 0.000000
-0.025000 0.150000 0.000000
-0.025000 0.175000 0.000000
-0.025000 0.200000 0.000000
-0.025000 0.225000 0.000000
-0.025000 0.250000 0.000000
-0.025000 0.275000 0.000000
-0.025000 0.300000 0.000000
-0.025000 0.325000 0.000000
-0.025000 0.350000 0.000000
-0.025000 0.375000 0.000000
-0.025000 0.400000 0.000000
-0.025000 0.425000 0.000000
-0.025000 0.450000 0.000000
-0.025000 0.475000 0.000000
-0.025000 0.500000 0.000000
-0.025000 0.525000 0.000000
-0.025000 0.550000 0.000000
-0.025000 0.575000 0.000000
-0.025000 0.600000 0.000000
0.000000 -0.075000 0.000000
0.000000 -0.050000 0.000000
0.000000 -0.025000 0.000000
0.000000 0.000000 0.000000
0.000000 0.025000 0.000000
0.000000 0.050000 0.000000
0.000000 0.075000 0.000000
0.000000 0.100000 0.000000
0.000000 0.125000 0.000000
0.000000 0.150000 0.000000
0.000000 0.175000 0.000000
0.000000 0.200000 0.000000
0.000000 0.225000 0.000000
0.000000 0.250000 0.000000
0.000000 0.275000 0.000000
0.000000 0.300000 0.000000
0.000000 0.325000 0.000000
0.000000 0.350000 0.000000
0.000000 0.375000 0.000000
0.000000 0.400000 0.000000
0.000000 0.425000 0.000000
0.000000 0.450000 0.000000
0.000000 0.475000 0.000000
0.000000 0.500000 0.000000
0.000000 0.525000 0.000000
0.000000 0.550000 0.000000
0.000000 0.575000 0.000000
0.000000 0.600000 0.000000
0.025000 -0.075000 0.000000
0.025000 -0.050000 0.000000
0.025000 -0.025000 0.000000
0.025000 0.000000 0.000000
0.120235 0.024959 0.000000
0.092800 0.021464 0.000000
0.074423 0.035607 0.000000
0.054946 0.024424 0.000000
0.131084 0.046309 0.000000
0.024070 0.023550 0.000000
0.144167 0.064402 0.000000
0.105818 0.053884 0.000000
0.084959 0.058568 0.000000
0.055766 0.056508 0.000000
0.099800 0.076978 0.000000
0.063834 0.079054 0.000000
0.036722 0.042895 0.000000
0.024817 0.064438 0.000000
0.023737 0.084449 0.000000
0.041470 0.113302 0.000000
0.055490 0.130038 0.000000
0.020533 0.128253 0.000000
0.036441 0.167959 0.000000
0.032997 0.148604 0.000000
0.050000 -0.075000 0.000000
0.050000 -0.050000 0.000000
0.050000 -0.025000 0.000000
0.050000 0.000000 0.000000
0.144970 0.024699 0.000000
0.162708 0.037415 0.000000
0.188521 0.040412 0.000000
0.256678 0.042997 0.000000
0.214821 0.067260 0.000000
0.217525 0.090820 0.000000
0.194735 0.071491 0.000000
0.265045 0.110370 0.000000
0.123046 0.078819 0.000000
0.170806 0.062594 0.000000
0.145167 0.094645 0.000000
0.171517 0.083226 0.000000
0.048128 0.091163 0.000000
0.126475 0.104123 0.000000
0.087631 0.102197 0.000000
0.106896 0.114924 0.000000
0.072408 0.111163 0.000000
0.082649 0.143058 0.000000
0.059393 0.154224 0.000000
0.079896 0.163581 0.000000
0.075000 -0.075000 0.000000
0.075000 -0.050000 0.000000
0.075000 -0.025000 0.000000
0.075000 0.000000 0.000000
0.188605 0.020523 0.000000
0.242157 0.056500 0.000000
0.255497 0.022066 0.000000
0.215955 0.040523 0.000000
0.293168 0.043975 0.000000
0.380623 0.036238 0.000000
0.378071 0.079004 0.000000
0.245876 0.079755 0.000000
0.299947 0.071533 0.000000
0.287348 0.127609 0.000000
0.269615 0.086308 0.000000
0.191890 0.104083 0.000000
0.167275 0.110999 0.000000
0.145094 0.131224 0.000000
0.120057 0.131328 0.000000
0.108674 0.154610 0.000000
0.125927 0.162776 0.000000
0.165610 0.155844 0.000000
0.170699 0.131760 0.000000
0.096224 0.174485 0.000000
0.100000 -0.075000 0.000000
0.100000 -0.050000 0.000000
0.100000 -0.025000 0.000000
0.100000 0.000000 0.000000
0.314775 0.035864 0.000000
0.293354 0.019442 0.000000
0.357256 0.027408 0.000000
0.448375 0.064943 0.000000
0.226866 0.024768 0.000000
0.424013 0.022570 0.000000
0.430591 0.048801 0.000000
0.400992 0.052868 0.000000
0.362914 0.051374 0.000000
0.384433 0.098537 0.000000
0.278226 0.056621 0.000000
0.327320 0.055495 0.000000
0.314461 0.086012 0.000000
0.286128 0.098716 0.000000
0.236267 0.099484 0.000000
0.146601 0.157292 0.000000
0.267762 0.133014 0.000000
0.232398 0.123197 0.000000
0.209924 0.141968 0.000000
0.192122 0.123692 0.000000
0.125000 -0.075000 0.000000
0.125000 -0.050000 0.000000
0.125000 -0.025000 0.000000
0.125000 0.000000 0.000000
0.510534 0.022330 0.000000
0.396786 0.021644 0.000000
0.652833 0.020834 0.000000
0.621707 0.026517 0.000000
0.629139 0.047155 0.000000
0.337238 0.023543 0.000000
0.466565 0.024821 0.000000
0.487866 0.030500 0.000000
0.473864 0.053476 0.000000
0.404160 0.069207 0.000000
0.483285 0.084816 0.000000
0.438466 0.079069 0.000000
0.354129 0.071433 0.000000
0.283882 0.158709 0.000000
0.267724 0.160034 0.000000
0.308996 0.120474 0.000000
0.391209 0.131849 0.000000
0.252109 0.161284 0.000000
0.326016 0.130302 0.000000
0.225887 0.137744 0.000000
0.150000 -0.075000 0.000000
0.150000 -0.050000 0.000000
0.150000 -0.025000 0.000000
0.150000 0.000000 0.000000
0.763213 0.027431 0.000000
0.672879 0.028421 0.000000
0.738826 0.050951 0.000000
0.677477 0.059646 0.000000
0.740308 0.022097 0.000000
0.766777 0.061088 0.000000
0.603225 0.033291 0.000000
0.693348 0.039712 0.000000
0.587804 0.023732 0.000000
0.603585 0.075613 0.000000
0.555817 0.023839 0.000000
0.445504 0.034588 0.000000
0.536166 0.031054 0.000000
0.539004 0.056092 0.000000
0.452750 0.109551 0.000000
0.369941 0.108476 0.000000
0.335459 0.073883 0.000000
0.373313 0.132396 0.000000
0.339562 0.125991 0.000000
0.330152 0.109041 0.000000
0.175000 -0.075000 0.000000
0.175000 -0.050000 0.000000
0.175000 -0.025000 0.000000
0.175000 0.000000 0.000000
0.928984 0.097304 0.000000
0.829591 0.025410 0.000000
0.916941 0.027217 0.000000
0.938529 0.027120 0.000000
0.896373 0.027233 0.000000
0.781808 0.035929 0.000000
0.871132 0.022842 0.000000
0.848160 0.032096 0.000000
0.758055 0.076883 0.000000
0.798708 0.021530 0.000000
0.653050 0.052547 0.000000
0.700471 0.066946 0.000000
0.564614 0.045477 0.000000
0.571032 0.099311 0.000000
0.504657 0.050643 0.000000
0.575712 0.062338 0.000000
0.512977 0.064540 0.000000
0.465578 0.111480 0.000000
0.416732 0.107243 0.000000
0.419306 0.092784 0.000000
0.200000 -0.075000 0.000000
0.200000 -0.050000 0.000000
0.200000 -0.025000 0.000000
0.200000 0.000000 0.000000
0.968706 0.308318 0.000000
0.984645 0.020648 0.000000
0.969490 0.196106 0.000000
0.956724 0.030966 0.000000
0.983604 0.046177 0.000000
0.974203 0.065168 0.000000
0.954940 0.073857 0.000000
0.941241 0.058314 0.000000
0.896888 0.052075 0.000000
0.880496 0.071464 0.000000
0.851697 0.061309 0.000000
0.704685 0.022707 0.000000
0.812686 0.073786 0.000000
0.726475 0.043444 0.000000
0.582124 0.093065 0.000000
0.631318 0.101156 0.000000
0.651409 0.076066 0.000000
0.552665 0.070604 0.000000
0.541401 0.090749 0.000000
0.482781 0.106408 0.000000
0.225000 -0.075000 0.000000
0.225000 -0.050000 0.000000
0.225000 -0.025000 0.000000
0.225000 0.000000 0.000000
1.003713 0.094674 0.000000
0.983238 0.466461 0.000000
1.004172 0.035402 0.000000
0.952137 0.219203 0.000000
0.998689 0.071893 0.000000
0.969526 0.232281 0.000000
0.987249 0.177948 0.000000
0.982856 0.112369 0.000000
0.976789 0.094677 0.000000
1.000465 0.135303 0.000000
0.945356 0.105361 0.000000
0.950735 0.146218 0.000000
0.922672 0.114179 0.000000
0.905843 0.076774 0.000000
0.834783 0.060372 0.000000
0.798551 0.064285 0.000000
0.768016 0.085187 0.000000
0.669246 0.079857 0.000000
0.608846 0.090134 0.000000
0.495921 0.094338 0.000000
0.250000 -0.075000 0.000000
0.250000 -0.050000 0.000000
0.250000 -0.025000 0.000000
0.250000 0.000000 0.000000
1.003053 0.486820 0.000000
0.960950 0.397631 0.000000
0.986241 0.227886 0.000000
0.993067 0.208300 0.000000
0.951186 0.467266 0.000000
0.995112 0.255321 0.000000
0.937142 0.396045 0.000000
0.983137 0.350605 0.000000
0.928672 0.252949 0.000000
0.998046 0.165692 0.000000
0.955727 0.162191 0.000000
0.946519 0.192661 0.000000
0.982615 0.146187 0.000000
0.934315 0.156918 0.000000
0.960272 0.124146 0.000000
0.923700 0.064546 0.000000
0.872794 0.052146 0.000000
0.815110 0.046661 0.000000
0.716846 0.094280 0.000000
0.629234 0.072232 0.000000
0.275000 -0.075000 0.000000
0.275000 -0.050000 0.000000
0.275000 -0.025000 0.000000
0.275000 0.000000 0.000000
0.300000 -0.075000 0.000000
0.300000 -0.050000 0.000000
0.300000 -0.025000 0.000000
0.300000 0.000000 0.000000
0.325000 -0.075000 0.000000
0.325000 -0.050000 0.000000
0.325000 -0.025000 0.000000
0.325000 0.000000 0.000000
0.350000 -0.075000 0.000000
0.350000 -0.050000 0.000000
0.350000 -0.025000 0.000000
0.350000 0.000000 0.000000
0.375000 -0.075000 0.000000
0.375000 -0.050000 0.000000
0.375000 -0.025000 0.000000
0.375000 0.000000 0.000000
0.400000 -0.075000 0.000000
0.400000 -0.050000 0.000000
0.400000 -0.025000 0.000000
0.400000 0.000000 0.000000
0.425000 -0.075000 0.000000
0.425000 -0.050000 0.000000
0.425000 -0.025000 0.000000
0.425000 0.000000 0.000000
0.450000 -0.075000 0.000000
0.450000 -0.050000 0.000000
0.450000 -0.025000 0.000000
0.450000 0.000000 0.000000
0.475000 -0.075000 0.000000
0.475000 -0.050000 0.000000
0.475000 -0.025000 0.000000
0.475000 0.000000 0.000000
0.500000 -0.075000 0.000000
0.500000 -0.050000 0.000000
0.500000 -0.025000 0.000000
0.500000 0.000000 0.000000
0.525000 -0.075000 0.000000
0.525000 -0.050000 0.000000
0.525000 -0.025000 0.000000
0.525000 0.000000 0.000000
0.550000 -0.075000 0.000000
0.550000 -0.050000 0.000000
0.550000 -0.025000 0.000000
0.550000 0.000000 0.000000
0.575000 -0.075000 0.000000
0.575000 -0.050000 0.000000
0.575000 -0.025000 0.000000
0.575000 0.000000 0.000000
0.600000 -0.075000 0.000000
0.600000 -0.050000 0.000000
0.600000 -0.025000 0.000000
0.600000 0.000000 0.000000
0.625000 -0.075000 0.000000
0.625000 -0.050000 0.000000
0.625000 -0.025000 0.000000
0.625000 0.000000 0.000000
0.650000 -0.075000 0.000000
0.650000 -0.050000 0.000000
0.650000 -0.025000 0.000000
0.650000 0.000000 0.000000
0.675000 -0.075000 0.000000
0.675000 -0.050000 0.000000
0.675000 -0.025000 0.000000
0.675000 0.000000 0.000000
0.700000 -0.075000 0.000000
0.700000 -0.050000 0.000000
0.700000 -0.025000 0.000000
0.700000 0.000000 0.000000
0.725000 -0.075000 0.000000
0.725000 -0.050000 0.000000
0.725000 -0.025000 0.000000
0.725000 0.000000 0.000000
0.750000 -0.075000 0.000000
0.750000 -0.050000 0.000000
0.750000 -0.025000 0.000000
0.750000 0.000000 0.000000
0.775000 -0.075000 0.000000
0.775000 -0.050000 0.000000
0.775000 -0.025000 0.000000
0.775000 0.000000 0.000000
0.800000 -0.075000 0.000000
0.800000 -0.050000 0.000000
0.800000 -0.025000 0.000000
0.800000 0.000000 0.000000
0.825000 -0.075000 0.000000
0.825000 -0.050000 0.000000
0.825000 -0.025000 0.000000
0.825000 0.000000 0.000000
0.850000 -0.075000 0.000000
0.850000 -0.050000 0.000000
0.850000 -0.025000 0.000000
0.850000 0.000000 0.000000
0.875000 -0.075000 0.000000
0.875000 -0.050000 0.000000
0.875000 -0.025000 0.000000
0.875000 0.000000 0.000000
0.900000 -0.075000 0.000000
0.900000 -0.050000 0.000000
0.900000 -0.025000 0.000000
0.900000 0.000000 0.000000
0.925000 -0.075000 0.000000
0.925000 -0.050000 0.000000
0.925000 -0.025000 0.000000
0.925000 0.000000 0.000000
0.950000 -0.075000 0.000000
0.950000 -0.050000 0.000000
0.950000 -0.025000 0.000000
0.950000 0.000000 0.000000
0.975000 -0.075000 0.000000
0.975000 -0.050000 0.000000
0.975000 -0.025000 0.000000
0.975000 0.000000 0.000000
1.000000 -0.075000 0.000000
1.000000 -0.050000 0.000000
1.000000 -0.025000 0.000000
1.000000 0.000000 0.000000
1.025000 -0.075000 0.000000
1.025000 -0.050000 0.000000
1.025000 -0.025000 0.000000
1.025000 0.000000 0.000000
1.025000 0.025000 0.000000
1.025000 0.050000 0.000000
1.025000 0.075000 0.000000
1.025000 0.100000 0.000000
1.025000 0.125000 0.000000
1.025000 0.150000 0.000000
1.025000 0.175000 0.000000
1.025000 0.200000 0.000000
1.025000 0.225000 0.000000
1.025000 0.250000 0.000000
1.025000 0.275000 0.000000
1.025000 0.300000 0.000000
1.025000 0.325000 0.000000
1.025000 0.350000 0.000000
1.025000 0.375000 0.000000
1.025000 0.400000 0.000000
1.025000 0.425000 0.000000
1.025000 0.450000 0.000000
1.025000 0.475000 0.000000
1.025000 0.500000 0.000000
1.025000 0.525000 0.000000
1.025000 0.550000 0.000000
1.025000 0.575000 0.000000
1.025000 0.600000 0.000000
1.050000 -0.075000 0.000000
1.050000 -0.050000 0.000000
1.050000 -0.025000 0.000000
1.050000 0.000000 0.000000
1.050000 0.025000 0.000000
1.050000 0.050000 0.000000
1.050000 0.075000 0.000000
1.050000 0.100000 0.000000
1.050000 0.125000 0.000000
1.050000 0.150000 0.000000
1.050000 0.175000 0.000000
1.050000 0.200000 0.000000
1.050000 0.225000 0.000000
1.050000 0.250000 0.000000
1.050000 0.275000 0.000000
1.050000 0.300000 0.000000
1.050000 0.325000 0.000000
1.050000 0.350000 0.000000
1.050000 0.375000 0.000000
1.050000 0.400000 0.000000
1.050000 0.425000 0.000000
1.050000 0.450000 0.000000
1.050000 0.475000 0.000000
1.050000 0.500000 0.000000
1.050000 0.525000 0.000000
1.050000 0.550000 0.000000
1.050000 0.575000 0.000000
1.050000 0.600000 0.000000
1.075000 -0.075000 0.000000
1.075000 -0.050000 0.000000
1.075000 -0.025000 0.000000
1.075000 0.000000 0.000000
1.075000 0.025000 0.000000
1.075000 0.050000 0.000000
1.075000 0.075000 0.000000
1.075000 0.100000 0.000000
1.075000 0.125000 0.000000
1.075000 0.150000 0.000000
1.075000 0.175000 0.000000
1.075000 0.200000 0.000000
1.075000 0.225000 0.000000
1.075000 0.250000 0.000000
1.075000 0.275000 0.000000
1.075000 0.300000 0.000000
1.075000 0.325000 0.000000
1.075000 0.350000 0.000000
1.075000 0.375000 0.000000
1.075000 0.400000 0.000000
1.075000 0.425000 0.000000
1.075000 0.450000 0.000000
1.075000 0.475000 0.000000
1.075000 0.500000 0.000000
1.075000 0.525000 0.000000
1.075000 0.550000 0.000000
1.075000 0.575000 0.000000
1.075000 0.600000 0.000000
1.100000 -0.075000 0.000000
1.100000 -0.050000 0.000000
1.100000 -0.025000 0.000000
1.100000 0.000000 0.000000
1.100000 0.025000 0.000000
1.100000 0.050000 0.000000
1.100000 0.075000 0.000000
1.100000 0.100000 0.000000
1.100000 0.125000 0.000000
1.100000 0.150000 0.000000
1.100000 0.175000 0.000000
1.100000 0.200000 0.000000
1.100000 0.225000 0.000000
1.100000 0.250000 0.000000
1.100000 0.275000 0.000000
1.100000 0.300000 0.000000
1.100000 0.325000 0.000000
1.100000 0.350000 0.000000
1.100000 0.375000 0.000000
1.100000 0.400000 0.000000
1.100000 0.425000 0.000000
1.100000 0.450000 0.000000
1.100000 0.475000 0.000000
1.100000 0.500000 0.000000
1.100000 0.525000 0.000000
1.100000 0.550000 0.000000
1.100000 0.575000 0.000000
1.100000 0.600000 0.000000
</DataArray>
</Points>
<PointData>
<DataArray NumberOfComponents='1' type='Int32' Name='ParticleType' format='ascii'>
3
3
3
3
3
3
3
3
3
3
3
3
3
3
3
3
3
3
3
3
3
3
3
3
3
3
2
2
3
3
3
3
3
3
3
3
3
3
3
3
3
3
3
3
3
3
3
3
3
3
3
3
3
3
2
2
3
3
2
2
2
2
2
2
2
2
2
2
2
2
2
2
2
2
2
2
2
2
2
2
2
2
2
2
3
3
2
2
2
2
2
2
2
2
2
2
2
2
2
2
2
2
2
2
2
2
2
2
2
2
2
2
3
3
2
2
0
0
0
0
0
0
0
0
0
0
0
0
0
0
0
0
0
0
0
0
3
3
2
2
0
0
0
0
0
0
0
0
0
0
0
0
0
0
0
0
0
0
0
0
3
3
2
2
0
0
0
0
0
0
0
0
0
0
0
0
0
0
0
0
0
0
0
0
3
3
2
2
0
0
0
0
0
0
0
0
0
0
0
0
0
0
0
0
0
0
0
0
3
3
2
2
0
0
0
0
0
0
0
0
0
0
0
0
0
0
0
0
0
0
0
0
3
3
2
2
0
0
0
0
0
0
0
0
0
0
0
0
0
0
0
0
0
0
0
0
3
3
2
2
0
0
0
0
0
0
0
0
0
0
0
0
0
0
0
0
0
0
0
0
3
3
2
2
0
0
0
0
0
0
0
0
0
0
0
0
0
0
0
0
0
0
0
0
3
3
2
2
0
0
0
0
0
0
0
0
0
0
0
0
0
0
0
0
0
0
0
0
3
3
2
2
0
0
0
0
0
0
0
0
0
0
0
0
0
0
0
0
0
0
0
0
3
3
2
2
3
3
2
2
3
3
2
2
3
3
2
2
3
3
2
2
3
3
2
2
3
3
2
2
3
3
2
2
3
3
2
2
3
3
2
2
3
3
2
2
3
3
2
2
3
3
2
2
3
3
2
2
3
3
2
2
3
3
2
2
3
3
2
2
3
3
2
2
3
3
2
2
3
3
2
2
3
3
2
2
3
3
2
2
3
3
2
2
3
3
2
2
3
3
2
2
3
3
2
2
3
3
2
2
3
3
2
2
3
3
2
2
3
3
2
2
3
3
2
2
2
2
2
2
2
2
2
2
2
2
2
2
2
2
2
2
2
2
2
2
2
2
2
2
3
3
2
2
2
2
2
2
2
2
2
2
2
2
2
2
2
2
2
2
2
2
2
2
2
2
2
2
3
3
3
3
3
3
3
3
3
3
3
3
3
3
3
3
3
3
3
3
3
3
3
3
3
3
2
2
3
3
3
3
3
3
3
3
3
3
3
3
3
3
3
3
3
3
3
3
3
3
3
3
3
3
2
2
</DataArray>
<DataArray NumberOfComponents='1' type='Float32' Name='Velocity' format='ascii'>
0.000000
0.000000
0.000000
0.000000
0.000000
0.000000
0.000000
0.000000
0.000000
0.000000
0.000000
0.000000
0.000000
0.000000
0.000000
0.000000
0.000000
0.000000
0.000000
0.000000
0.000000
0.000000
0.000000
0.000000
0.000000
0.000000
0.000000
0.000000
0.000000
0.000000
0.000000
0.000000
0.000000
0.000000
0.000000
0.000000
0.000000
0.000000
0.000000
0.000000
0.000000
0.000000
0.000000
0.000000
0.000000
0.000000
0.000000
0.000000
0.000000
0.000000
0.000000
0.000000
0.000000
0.000000
0.000000
0.000000
0.000000
0.000000
0.000000
0.000000
0.000000
0.000000
0.000000
0.000000
0.000000
0.000000
0.000000
0.000000
0.000000
0.000000
0.000000
0.000000
0.000000
0.000000
0.000000
0.000000
0.000000
0.000000
0.000000
0.000000
0.000000
0.000000
0.000000
0.000000
0.000000
0.000000
0.000000
0.000000
0.000000
0.000000
0.000000
0.000000
0.000000
0.000000
0.000000
0.000000
0.000000
0.000000
0.000000
0.000000
0.000000
0.000000
0.000000
0.000000
0.000000
0.000000
0.000000
0.000000
0.000000
0.000000
0.000000
0.000000
0.000000
0.000000
0.000000
0.000000
0.555801
0.537984
0.376280
0.329865
0.697252
0.139227
0.737575
0.368735
0.363275
0.051513
0.411272
0.616062
0.615115
0.272411
0.469239
0.538088
0.652568
0.568125
0.817612
0.437770
0.000000
0.000000
0.000000
0.000000
0.357878
0.376471
0.881874
0.773331
0.630891
0.645722
0.814852
1.028702
0.350602
0.870511
0.741793
0.796107
0.511893
0.584879
0.222561
0.634392
0.195785
0.546756
0.401854
0.574578
0.000000
0.000000
0.000000
0.000000
0.213904
0.711148
0.527290
0.846016
0.904120
0.976070
1.059339
0.516011
0.506604
1.515728
0.857798
0.457413
0.353439
0.286856
0.570895
0.774164
0.508523
1.140373
0.587885
0.585784
0.000000
0.000000
0.000000
0.000000
0.798905
0.421485
1.017976
1.698449
0.588288
0.894369
1.068664
1.506735
1.336188
1.268143
0.778923
0.944971
1.078183
0.956629
1.146531
0.351064
0.947829
0.983218
0.925124
0.692041
0.000000
0.000000
0.000000
0.000000
1.380109
1.423087
2.072041
1.916187
1.966775
0.794236
1.338750
1.368367
1.229205
1.314035
1.784156
1.478960
1.477103
0.805651
0.836015
1.207426
1.598012
0.664746
1.153721
0.810264
0.000000
0.000000
0.000000
0.000000
2.419333
2.116719
2.372518
2.363622
1.983095
2.123283
1.997180
1.821222
1.998502
1.812482
1.654906
1.280516
1.722392
1.899314
1.270621
1.162016
1.310495
1.442015
1.324045
1.219801
0.000000
0.000000
0.000000
0.000000
1.849438
1.940317
1.764953
1.469823
1.817885
2.086185
2.019680
2.242780
2.053061
2.032645
2.034057
2.508612
1.917956
1.339012
1.656150
1.940210
2.166630
1.245265
1.128093
1.267730
0.000000
0.000000
0.000000
0.000000
3.038292
1.204807
2.265274
1.462992
0.925755
1.696065
1.474661
1.222576
2.170998
1.841683
2.452472
2.108818
2.417588
2.372686
1.418483
1.420892
1.923344
2.007562
1.412232
1.578435
0.000000
0.000000
0.000000
0.000000
0.566680
4.053880
0.627333
1.971671
0.752446
2.125723
2.583047
2.149949
1.615447
2.242640
1.722804
2.159895
1.511724
1.782255
2.523036
2.529097
2.354029
2.149441
1.915377
1.962340
0.000000
0.000000
0.000000
0.000000
3.322158
3.374221
2.317219
2.574584
3.547494
2.749957
3.291000
2.996340
2.260022
2.510886
1.412284
1.408195
1.804251
1.681100
1.757043
1.656098
2.136555
2.195997
2.154916
2.095957
0.000000
0.000000
0.000000
0.000000
0.000000
0.000000
0.000000
0.000000
0.000000
0.000000
0.000000
0.000000
0.000000
0.000000
0.000000
0.000000
0.000000
0.000000
0.000000
0.000000
0.000000
0.000000
0.000000
0.000000
0.000000
0.000000
0.000000
0.000000
0.000000
0.000000
0.000000
0.000000
0.000000
0.000000
0.000000
0.000000
0.000000
0.000000
0.000000
0.000000
0.000000
0.000000
0.000000
0.000000
0.000000
0.000000
0.000000
0.000000
0.000000
0.000000
0.000000
0.000000
0.000000
0.000000
0.000000
0.000000
0.000000
0.000000
0.000000
0.000000
0.000000
0.000000
0.000000
0.000000
0.000000
0.000000
0.000000
0.000000
0.000000
0.000000
0.000000
0.000000
0.000000
0.000000
0.000000
0.000000
0.000000
0.000000
0.000000
0.000000
0.000000
0.000000
0.000000
0.000000
0.000000
0.000000
0.000000
0.000000
0.000000
0.000000
0.000000
0.000000
0.000000
0.000000
0.000000
0.000000
0.000000
0.000000
0.000000
0.000000
0.000000
0.000000
0.000000
0.000000
0.000000
0.000000
0.000000
0.000000
0.000000
0.000000
0.000000
0.000000
0.000000
0.000000
0.000000
0.000000
0.000000
0.000000
0.000000
0.000000
0.000000
0.000000
0.000000
0.000000
0.000000
0.000000
0.000000
0.000000
0.000000
0.000000
0.000000
0.000000
0.000000
0.000000
0.000000
0.000000
0.000000
0.000000
0.000000
0.000000
0.000000
0.000000
0.000000
0.000000
0.000000
0.000000
0.000000
0.000000
0.000000
0.000000
0.000000
0.000000
0.000000
0.000000
0.000000
0.000000
0.000000
0.000000
0.000000
0.000000
0.000000
0.000000
0.000000
0.000000
0.000000
0.000000
0.000000
0.000000
0.000000
0.000000
0.000000
0.000000
0.000000
0.000000
0.000000
0.000000
0.000000
0.000000
0.000000
0.000000
0.000000
0.000000
0.000000
0.000000
0.000000
0.000000
0.000000
0.000000
0.000000
0.000000
0.000000
0.000000
0.000000
0.000000
0.000000
0.000000
0.000000
0.000000
0.000000
0.000000
0.000000
0.000000
0.000000
0.000000
0.000000
0.000000
0.000000
0.000000
0.000000
0.000000
0.000000
0.000000
0.000000
0.000000
0.000000
0.000000
0.000000
0.000000
0.000000
0.000000
0.000000
0.000000
0.000000
0.000000
0.000000
0.000000
0.000000
0.000000
0.000000
0.000000
0.000000
0.000000
</DataArray>
<DataArray NumberOfComponents='1' type='Float32' Name='pressure' format='ascii'>
0.000000
0.000000
0.000000
0.000000
0.000000
0.000000
0.000000
0.000000
0.000000
0.000000
0.000000
0.000000
0.000000
0.000000
0.000000
0.000000
0.000000
0.000000
0.000000
0.000000
0.000000
0.000000
0.000000
0.000000
0.000000
0.000000
0.000000
0.000000
0.000000
0.000000
0.000000
0.000000
0.000000
0.000000
0.000000
0.000000
0.000000
0.000000
0.000000
0.000000
0.000000
0.000000
0.000000
0.000000
0.000000
0.000000
0.000000
0.000000
0.000000
0.000000
0.000000
0.000000
0.000000
0.000000
0.000000
0.000000
0.000000
0.000000
1785.706543
1445.736328
1076.699097
0.000000
759.163757
0.000000
1806.810791
0.000000
0.000000
0.000000
0.000000
0.000000
0.000000
0.000000
0.000000
0.000000
0.000000
0.000000
0.000000
0.000000
0.000000
0.000000
0.000000
0.000000
0.000000
0.000000
0.000000
0.000000
1929.455933
2435.914795
349.846954
0.000000
93.989105
0.000000
504.830536
0.000000
0.000000
0.000000
0.000000
0.000000
0.000000
0.000000
0.000000
0.000000
0.000000
0.000000
0.000000
0.000000
0.000000
0.000000
0.000000
0.000000
0.000000
0.000000
0.000000
0.000000
2379.216553
3014.783447
424.302216
0.000000
1710.756104
421.804596
1778.752441
621.314636
266.932190
0.000000
686.389404
0.000000
90.816162
0.000000
1401.423584
1451.030884
323.526184
0.000000
2426.375977
0.000000
0.000000
0.000000
0.000000
0.000000
1765.763062
982.576538
1931.284302
0.000000
1293.910034
2376.280273
2147.048828
0.000000
0.000000
1135.833862
0.000000
2315.931885
0.000000
872.218689
819.592651
1619.854370
963.253967
508.090607
0.000000
0.000000
0.000000
0.000000
0.000000
0.000000
1687.882812
306.148468
2937.084473
1670.409546
1588.012573
0.000000
2492.229492
2383.926514
0.000000
2266.137207
0.000000
0.000000
1728.198608
1299.756104
1752.763550
928.879944
0.000000
616.147461
0.000000
0.000000
879.725830
0.000000
0.000000
0.000000
2755.276855
2257.095215
786.070435
2280.236572
2090.748291
0.000000
1503.754883
226.710464
1072.871826
778.576294
1360.178589
0.000000
675.652100
3170.765625
0.000000
2205.387695
2884.103027
0.000000
2771.076416
742.030273
0.000000
0.000000
0.000000
0.000000
1760.759644
2391.051758
0.000000
2098.093994
2137.912109
1910.096680
0.000000
1039.886841
0.000000
0.000000
0.000000
1104.930908
269.460541
0.000000
506.770538
0.000000
0.000000
2334.394043
0.000000
0.000000
1812.335327
0.000000
0.000000
0.000000
1814.796997
365.236237
0.000000
1664.210205
0.000000
199.820679
1334.056519
0.000000
950.433594
902.536377
714.404358
14.569730
2957.520020
2461.358643
594.422485
1399.683594
0.000000
0.000000
1993.893799
0.000000
0.000000
2353.910889
0.000000
0.000000
2882.607178
938.930786
0.000000
1232.916016
2126.303467
1855.613281
1843.289795
0.000000
0.000000
2460.676270
0.000000
0.000000
3084.575684
0.000000
1459.288574
0.000000
0.000000
0.000000
0.000000
28.195059
0.000000
687.338684
0.000000
0.000000
3393.596191
2086.975830
0.000000
2586.929932
0.000000
0.000000
1470.113647
1395.980957
313.167847
3071.709229
971.237061
0.000000
0.000000
47.151234
0.000000
0.000000
0.000000
0.000000
915.101257
1314.320068
0.000000
0.000000
0.000000
0.000000
2645.794678
1128.468384
285.495331
0.000000
4462.222656
0.000000
113.110847
0.000000
0.000000
0.000000
0.000000
0.000000
0.000000
0.000000
0.000000
0.000000
0.000000
0.000000
0.000000
0.000000
0.000000
0.000000
0.000000
0.000000
3849.974121
2936.705566
0.000000
0.000000
0.000000
0.000000
0.000000
0.000000
0.000000
0.000000
0.000000
528.382141
0.000000
0.000000
0.000000
0.000000
0.000000
1868.798462
2212.054199
671.251160
0.000000
314.483276
0.000000
0.000000
4408.625000
1147.849609
0.000000
0.000000
4985.520996
5095.793945
0.000000
0.000000
2196.969482
1022.728943
0.000000
0.000000
1368.878540
0.000000
0.000000
0.000000
1095.263062
0.000000
0.000000
0.000000
3175.030518
3966.744629
0.000000
0.000000
2561.531250
3193.319092
0.000000
0.000000
0.000000
0.000000
0.000000
0.000000
0.000000
0.000000
0.000000
0.000000
63.962303
0.000000
0.000000
0.000000
24.442846
0.000000
0.000000
0.000000
598.424622
439.708771
0.000000
0.000000
637.125732
38.542587
0.000000
0.000000
1259.340576
1250.319824
0.000000
0.000000
1649.108521
1772.337524
0.000000
0.000000
4161.690430
4636.084473
0.000000
0.000000
2266.265625
2851.616211
0.000000
0.000000
2471.913086
1140.944946
0.000000
0.000000
1539.141113
0.000000
0.000000
0.000000
1562.671631
408.642303
0.000000
0.000000
273.135742
584.607910
0.000000
0.000000
1932.658569
2638.492676
0.000000
0.000000
0.000000
0.000000
0.000000
0.000000
0.000000
0.000000
0.000000
0.000000
253.302551
0.000000
0.000000
0.000000
0.000000
0.000000
0.000000
0.000000
0.000000
90.915230
0.000000
0.000000
0.000000
0.000000
0.000000
0.000000
2659.124512
2209.129395
0.000000
0.000000
2820.759033
1679.762085
0.000000
0.000000
2430.724365
1878.330444
2867.205811
226.588577
205.705902
2347.776123
0.000000
0.000000
0.000000
0.000000
0.000000
0.000000
0.000000
0.000000
0.000000
0.000000
0.000000
0.000000
0.000000
0.000000
0.000000
0.000000
0.000000
0.000000
0.000000
0.000000
0.000000
0.000000
2475.296143
2553.510254
3489.799805
2657.111084
1848.819458
2344.203613
327.937134
0.000000
0.000000
0.000000
0.000000
0.000000
0.000000
0.000000
0.000000
0.000000
0.000000
0.000000
0.000000
0.000000
270.708771
139.525452
0.000000
0.000000
0.000000
0.000000
0.000000
0.000000
0.000000
0.000000
0.000000
0.000000
0.000000
0.000000
0.000000
0.000000
0.000000
0.000000
0.000000
0.000000
0.000000
0.000000
0.000000
0.000000
0.000000
0.000000
0.000000
0.000000
0.000000
0.000000
0.000000
0.000000
0.000000
0.000000
0.000000
0.000000
0.000000
0.000000
0.000000
0.000000
0.000000
0.000000
0.000000
0.000000
0.000000
0.000000
0.000000
0.000000
0.000000
0.000000
0.000000
0.000000
0.000000
0.000000
0.000000
0.000000
0.000000
0.000000
0.000000
0.000000
0.000000
0.000000
</DataArray>
</PointData>
<Cells>
<DataArray type='Int32' Name='connectivity' format='ascii'>
0
1
2
3
4
5
6
7
8
9
10
11
12
13
14
15
16
17
18
19
20
21
22
23
24
25
26
27
28
29
30
31
32
33
34
35
36
37
38
39
40
41
42
43
44
45
46
47
48
49
50
51
52
53
54
55
56
57
58
59
60
61
62
63
64
65
66
67
68
69
70
71
72
73
74
75
76
77
78
79
80
81
82
83
84
85
86
87
88
89
90
91
92
93
94
95
96
97
98
99
100
101
102
103
104
105
106
107
108
109
110
111
112
113
114
115
116
117
118
119
120
121
122
123
124
125
126
127
128
129
130
131
132
133
134
135
136
137
138
139
140
141
142
143
144
145
146
147
148
149
150
151
152
153
154
155
156
157
158
159
160
161
162
163
164
165
166
167
168
169
170
171
172
173
174
175
176
177
178
179
180
181
182
183
184
185
186
187
188
189
190
191
192
193
194
195
196
197
198
199
200
201
202
203
204
205
206
207
208
209
210
211
212
213
214
215
216
217
218
219
220
221
222
223
224
225
226
227
228
229
230
231
232
233
234
235
236
237
238
239
240
241
242
243
244
245
246
247
248
249
250
251
252
253
254
255
256
257
258
259
260
261
262
263
264
265
266
267
268
269
270
271
272
273
274
275
276
277
278
279
280
281
282
283
284
285
286
287
288
289
290
291
292
293
294
295
296
297
298
299
300
301
302
303
304
305
306
307
308
309
310
311
312
313
314
315
316
317