<?xml version='1.0' encoding='UTF-8'?>
<VTKFile xmlns='VTK' byte_order='LittleEndian' version='0.1' type='UnstructuredGrid'>
<UnstructuredGrid>
<Piece NumberOfCells='584' NumberOfPoints='584'>
<Points>
<DataArray NumberOfComponents='3' type='Float32' Name='Position' format='ascii'>
-0.075000 -0.075000 0.000000
-0.075000 -0.050000 0.000000
-0.075000 -0.025000 0.000000
-0.075000 0.000000 0.000000
-0.075000 0.025000 0.000000
-0.075000 0.050000 0.000000
-0.075000 0.075000 0.000000
-0.075000 0.100000 0.000000
-0.075000 0.125000 0.000000
-0.075000 0.150000 0.000000
-0.075000 0.175000 0.000000
-0.075000 0.200000 0.000000
-0.075000 0.225000 0.000000
-0.075000 0.250000 0.000000
-0.075000 0.275000 0.000000
-0.075000 0.300000 0.000000
-0.075000 0.325000 0.000000
-0.075000 0.350000 0.000000
-0.075000 0.375000 0.000000
-0.075000 0.400000 0.000000
-0.075000 0.425000 0.000000
-0.075000 0.450000 0.000000
-0.075000 0.475000 0.000000
-0.075000 0.500000 0.000000
-0.075000 0.525000 0.000000
-0.075000 0.550000 0.000000
-0.075000 0.575000 0.000000
-0.075000 0.600000 0.000000
-0.050000 -0.075000 0.000000
-0.050000 -0.050000 0.000000
-0.050000 -0.025000 0.000000
-0.050000 0.000000 0.000000
-0.050000 0.025000 0.000000
-0.050000 0.050000 0.000000
-0.050000 0.075000 0.000000
-0.050000 0.100000 0.000000
-0.050000 0.125000 0.000000
-0.050000 0.150000 0.000000
-0.050000 0.175000 0.000000
-0.050000 0.200000 0.000000
-0.050000 0.225000 0.000000
-0.050000 0.250000 0.000000
-0.050000 0.275000 0.000000
-0.050000 0.300000 0.000000
-0.050000 0.325000 0.000000
-0.050000 0.350000 0.000000
-0.050000 0.375000 0.000000
-0.050000 0.400000 0.000000
-0.050000 0.425000 0.000000
-0.050000 0.450000 0.000000
-0.050000 0.475000 0.000000
-0.050000 0.500000 0.000000
-0.050000 0.525000 0.000000
-0.050000 0.550000 0.000000
-0.050000 0.575000 0.000000
-0.050000 0.600000 0.000000
-0.025000 -0.075000 0.000000
-0.025000 -0.050000 0.000000
-0.025000 -0.025000 0.000000
-0.025000 0.000000 0.000000
-0.025000 0.025000 0.000000
-0.025000 0.050000 0.000000
-0.025000 0.075000 0.000000
-0.025000 0.100000 0.000000
-0.025000 0.125000 0.000000
-0.025000 0.150000 0.000000
-0.025000 0.175000 0.000000
-0.025000 0.200000 0.000000
-0.025000 0.225000 0.000000
-0.025000 0.250000 0.000000
-0.025000 0.275000 0.000000
-0.025000 0.300000 0.000000
-0.025000 0.325000 0.000000
-0.025000 0.350000 0.000000
-0.025000 0.375000 0.000000
-0.025000 0.400000 0.000000
-0.025000 0.425000 0.000000
-0.025000 0.450000 0.000000
-0.025000 0.475000 0.000000
-0.025000 0.500000 0.000000
-0.025000 0.525000 0.000000
-0.025000 0.550000 0.000000
-0.025000 0.575000 0.000000
-0.025000 0.600000 0.000000
0.000000 -0.075000 0.000000
0.000000 -0.050000 0.000000
0.000000 -0.025000 0.000000
0.000000 0.000000 0.000000
0.000000 0.025000 0.000000
0.000000 0.050000 0.000000
0.000000 0.075000 0.000000
0.000000 0.100000 0.000000
0.000000 0.125000 0.000000
0.000000 0.150000 0.000000
0.000000 0.175000 0.000000
0.000000 0.200000 0.000000
0.000000 0.225000 0.000000
0.000000 0.250000 0.000000
0.000000 0.275000 0.000000
0.000000 0.300000 0.000000
0.000000 0.325000 0.000000
0.000000 0.350000 0.000000
0.000000 0.375000 0.000000
0.000000 0.400000 0.000000
0.000000 0.425000 0.000000
0.000000 0.450000 0.000000
0.000000 0.475000 0.000000
0.000000 0.500000 0.000000
0.000000 0.525000 0.000000
0.000000 0.550000 0.000000
0.000000 0.575000 0.000000
0.000000 0.600000 0.000000
0.025000 -0.075000 0.000000
0.025000 -0.050000 0.000000
0.025000 -0.025000 0.000000
0.025000 0.000000 0.000000
0.189219 0.025344 0.000000
0.167853 0.029029 0.000000
0.143038 0.021466 0.000000
0.101034 0.025529 0.000000
0.232461 0.048456 0.000000
0.046681 0.025652 0.000000
0.312706 0.054131 0.000000
0.207250 0.037716 0.000000
0.120577 0.032732 0.000000
0.088239 0.046527 0.000000
0.161384 0.048713 0.000000
0.135971 0.057794 0.000000
0.073866 0.023293 0.000000
0.022190 0.028224 0.000000
0.031734 0.053362 0.000000
0.024388 0.071183 0.000000
0.070578 0.062328 0.000000
0.036444 0.094755 0.000000
0.025441 0.101434 0.000000
0.064908 0.089065 0.000000
0.050000 -0.075000 0.000000
0.050000 -0.050000 0.000000
0.050000 -0.025000 0.000000
0.050000 0.000000 0.000000
0.221206 0.022187 0.000000
0.272837 0.067066 0.000000
0.374106 0.077760 0.000000
0.379286 0.049284 0.000000
0.352752 0.086939 0.000000
0.378594 0.102595 0.000000
0.337702 0.054225 0.000000
0.476992 0.043901 0.000000
0.256092 0.044763 0.000000
0.281779 0.022861 0.000000
0.328662 0.073539 0.000000
0.290697 0.041955 0.000000
0.054195 0.045452 0.000000
0.304174 0.078558 0.000000
0.143083 0.086207 0.000000
0.190424 0.064195 0.000000
0.117658 0.059787 0.000000
0.163896 0.071298 0.000000
0.077983 0.084039 0.000000
0.100420 0.073033 0.000000
0.075000 -0.075000 0.000000
0.075000 -0.050000 0.000000
0.075000 -0.025000 0.000000
0.075000 0.000000 0.000000
0.255606 0.024718 0.000000
0.356681 0.043880 0.000000
0.367068 0.024604 0.000000
0.332865 0.020724 0.000000
0.499763 0.044469 0.000000
0.586518 0.028988 0.000000
0.606349 0.024550 0.000000
0.402225 0.062187 0.000000
0.521951 0.095266 0.000000
0.537160 0.058434 0.000000
0.414667 0.042786 0.000000
0.295784 0.110450 0.000000
0.279748 0.092371 0.000000
0.261448 0.080626 0.000000
0.240414 0.071764 0.000000
0.175992 0.086905 0.000000
0.203259 0.078627 0.000000
0.313423 0.102836 0.000000
0.281537 0.114140 0.000000
0.130320 0.099343 0.000000
0.100000 -0.075000 0.000000
0.100000 -0.050000 0.000000
0.100000 -0.025000 0.000000
0.100000 0.000000 0.000000
0.420909 0.021652 0.000000
0.390168 0.024443 0.000000
0.556669 0.023431 0.000000
0.795176 0.030110 0.000000
0.312124 0.030681 0.000000
0.677238 0.023514 0.000000
0.686463 0.041690 0.000000
0.657386 0.068538 0.000000
0.606970 0.047609 0.000000
0.641259 0.020088 0.000000
0.437424 0.047699 0.000000
0.454772 0.025110 0.000000
0.518634 0.072962 0.000000
0.539054 0.084048 0.000000
0.439593 0.087745 0.000000
0.217304 0.071139 0.000000
0.453200 0.057445 0.000000
0.458208 0.084575 0.000000
0.355690 0.112678 0.000000
0.338821 0.108427 0.000000
0.125000 -0.075000 0.000000
0.125000 -0.050000 0.000000
0.125000 -0.025000 0.000000
0.125000 0.000000 0.000000
0.813401 0.025745 0.000000
0.656578 0.038521 0.000000
0.968551 0.066614 0.000000
0.936188 0.029476 0.000000
0.948920 0.083612 0.000000
0.478098 0.025740 0.000000
0.762305 0.044820 0.000000
0.834923 0.051707 0.000000
0.767068 0.020302 0.000000
0.666810 0.077017 0.000000
0.801231 0.074945 0.000000
0.746243 0.043075 0.000000
0.613179 0.086699 0.000000
0.495345 0.069626 0.000000
0.416457 0.079200 0.000000
0.533341 0.035351 0.000000
0.706894 0.053647 0.000000
0.398626 0.086713 0.000000
0.565347 0.068038 0.000000
0.376323 0.119776 0.000000
0.150000 -0.075000 0.000000
0.150000 -0.050000 0.000000
0.150000 -0.025000 0.000000
0.150000 0.000000 0.000000
0.985784 0.113889 0.000000
0.944122 0.059462 0.000000
0.985876 0.203667 0.000000
0.961595 0.262530 0.000000
0.971436 0.040530 0.000000
0.943926 0.310686 0.000000
0.925699 0.062222 0.000000
0.932868 0.109950 0.000000
0.915290 0.036451 0.000000
0.894220 0.074894 0.000000
0.898596 0.021397 0.000000
0.730542 0.023078 0.000000
0.835714 0.025536 0.000000
0.867811 0.022095 0.000000
0.709109 0.025703 0.000000
0.625027 0.063913 0.000000
0.563132 0.046865 0.000000
0.637924 0.048295 0.000000
0.587949 0.057451 0.000000
0.520826 0.020856 0.000000
0.175000 -0.075000 0.000000
0.175000 -0.050000 0.000000
0.175000 -0.025000 0.000000
0.175000 0.000000 0.000000
0.802501 0.339834 0.000000
0.984259 0.082908 0.000000
1.004809 0.193510 0.000000
0.998996 0.102147 0.000000
1.003177 0.065255 0.000000
0.974662 0.257416 0.000000
0.991995 0.023027 0.000000
0.983139 0.138905 0.000000
0.953912 0.210066 0.000000
0.997371 0.044418 0.000000
0.944902 0.149585 0.000000
0.989254 0.164117 0.000000
0.915936 0.106644 0.000000
0.878036 0.062335 0.000000
0.811845 0.068114 0.000000
0.931915 0.133144 0.000000
0.892003 0.046539 0.000000
0.771324 0.069729 0.000000
0.701119 0.067096 0.000000
0.732324 0.065757 0.000000
0.200000 -0.075000 0.000000
0.200000 -0.050000 0.000000
0.200000 -0.025000 0.000000
0.200000 0.000000 0.000000
0.900024 0.715100 0.000000
1.004556 0.235538 0.000000
0.938498 0.483482 0.000000
0.992524 0.273021 0.000000
0.941770 0.342281 0.000000
0.935319 0.373643 0.000000
0.961317 0.390020 0.000000
1.003878 0.341032 0.000000
0.979462 0.234416 0.000000
0.919185 0.336170 0.000000
0.990516 0.301235 0.000000
0.959794 0.022423 0.000000
0.919443 0.320363 0.000000
0.961058 0.103305 0.000000
0.871805 0.093043 0.000000
0.940876 0.171841 0.000000
0.975828 0.191415 0.000000
0.910268 0.083761 0.000000
0.857666 0.043021 0.000000
0.791636 0.056004 0.000000
0.225000 -0.075000 0.000000
0.225000 -0.050000 0.000000
0.225000 -0.025000 0.000000
0.225000 0.000000 0.000000
0.971038 0.362372 0.000000
0.969766 1.080132 0.000000
0.956744 0.333511 0.000000
0.881802 0.413051 0.000000
0.821638 0.306290 0.000000
0.888436 0.460360 0.000000
0.954641 0.487311 0.000000
0.991724 0.398089 0.000000
0.993964 0.354929 0.000000
0.939741 0.406140 0.000000
0.989890 0.380463 0.000000
0.926643 0.404933 0.000000
0.798768 0.317204 0.000000
0.880387 0.311395 0.000000
0.962100 0.292731 0.000000
0.971579 0.304372 0.000000
0.928627 0.265454 0.000000
0.962612 0.133847 0.000000
0.903331 0.124142 0.000000
0.848672 0.064773 0.000000
0.250000 -0.075000 0.000000
0.250000 -0.050000 0.000000
0.250000 -0.025000 0.000000
0.250000 0.000000 0.000000
0.982186 0.953919 0.000000
0.883890 0.871080 0.000000
0.895540 0.520279 0.000000
0.934935 0.534286 0.000000
0.814462 0.966487 0.000000
0.967390 0.602420 0.000000
0.817401 0.846282 0.000000
0.881151 0.744147 0.000000
0.783090 0.483887 0.000000
0.964392 0.467512 0.000000
0.865775 0.328689 0.000000
0.916600 0.377412 0.000000
0.933458 0.439341 0.000000
0.727821 0.235889 0.000000
0.914663 0.364453 0.000000
0.868656 0.162465 0.000000
0.890480 0.325659 0.000000
1.001317 0.147457 0.000000
0.928559 0.211049 0.000000
0.955029 0.172738 0.000000
0.275000 -0.075000 0.000000
0.275000 -0.050000 0.000000
0.275000 -0.025000 0.000000
0.275000 0.000000 0.000000
0.300000 -0.075000 0.000000
0.300000 -0.050000 0.000000
0.300000 -0.025000 0.000000
0.300000 0.000000 0.000000
0.325000 -0.075000 0.000000
0.325000 -0.050000 0.000000
0.325000 -0.025000 0.000000
0.325000 0.000000 0.000000
0.350000 -0.075000 0.000000
0.350000 -0.050000 0.000000
0.350000 -0.025000 0.000000
0.350000 0.000000 0.000000
0.375000 -0.075000 0.000000
0.375000 -0.050000 0.000000
0.375000 -0.025000 0.000000
0.375000 0.000000 0.000000
0.400000 -0.075000 0.000000
0.400000 -0.050000 0.000000
0.400000 -0.025000 0.000000
0.400000 0.000000 0.000000
0.425000 -0.075000 0.000000
0.425000 -0.050000 0.000000
0.425000 -0.025000 0.000000
0.425000 0.000000 0.000000
0.450000 -0.075000 0.000000
0.450000 -0.050000 0.000000
0.450000 -0.025000 0.000000
0.450000 0.000000 0.000000
0.475000 -0.075000 0.000000
0.475000 -0.050000 0.000000
0.475000 -0.025000 0.000000
0.475000 0.000000 0.000000
0.500000 -0.075000 0.000000
0.500000 -0.050000 0.000000
0.500000 -0.025000 0.000000
0.500000 0.000000 0.000000
0.525000 -0.075000 0.000000
0.525000 -0.050000 0.000000
0.525000 -0.025000 0.000000
0.525000 0.000000 0.000000
0.550000 -0.075000 0.000000
0.550000 -0.050000 0.000000
0.550000 -0.025000 0.000000
0.550000 0.000000 0.000000
0.575000 -0.075000 0.000000
0.575000 -0.050000 0.000000
0.575000 -0.025000 0.000000
0.575000 0.000000 0.000000
0.600000 -0.075000 0.000000
0.600000 -0.050000 0.000000
0.600000 -0.025000 0.000000
0.600000 0.000000 0.000000
0.625000 -0.075000 0.000000
0.625000 -0.050000 0.000000
0.625000 -0.025000 0.000000
0.625000 0.000000 0.000000
0.650000 -0.075000 0.000000
0.650000 -0.050000 0.000000
0.650000 -0.025000 0.000000
0.650000 0.000000 0.000000
0.675000 -0.075000 0.000000
0.675000 -0.050000 0.000000
0.675000 -0.025000 0.000000
0.675000 0.000000 0.000000
0.700000 -0.075000 0.000000
0.700000 -0.050000 0.000000
0.700000 -0.025000 0.000000
0.700000 0.000000 0.000000
0.725000 -0.075000 0.000000
0.725000 -0.050000 0.000000
0.725000 -0.025000 0.000000
0.725000 0.000000 0.000000
0.750000 -0.075000 0.000000
0.750000 -0.050000 0.000000
0.750000 -0.025000 0.000000
0.750000 0.000000 0.000000
0.775000 -0.075000 0.000000
0.775000 -0.050000 0.000000
0.775000 -0.025000 0.000000
0.775000 0.000000 0.000000
0.800000 -0.075000 0.000000
0.800000 -0.050000 0.000000
0.800000 -0.025000 0.000000
0.800000 0.000000 0.000000
0.825000 -0.075000 0.000000
0.825000 -0.050000 0.000000
0.825000 -0.025000 0.000000
0.825000 0.000000 0.000000
0.850000 -0.075000 0.000000
0.850000 -0.050000 0.000000
0.850000 -0.025000 0.000000
0.850000 0.000000 0.000000
0.875000 -0.075000 0.000000
0.875000 -0.050000 0.000000
0.875000 -0.025000 0.000000
0.875000 0.000000 0.000000
0.900000 -0.075000 0.000000
0.900000 -0.050000 0.000000
0.900000 -0.025000 0.000000
0.900000 0.000000 0.000000
0.925000 -0.075000 0.000000
0.925000 -0.050000 0.000000
0.925000 -0.025000 0.000000
0.925000 0.000000 0.000000
0.950000 -0.075000 0.000000
0.950000 -0.050000 0.000000
0.950000 -0.025000 0.000000
0.950000 0.000000 0.000000
0.975000 -0.075000 0.000000
0.975000 -0.050000 0.000000
0.975000 -0.025000 0.000000
0.975000 0.000000 0.000000
1.000000 -0.075000 0.000000
1.000000 -0.050000 0.000000
1.000000 -0.025000 0.000000
1.000000 0.000000 0.000000
1.025000 -0.075000 0.000000
1.025000 -0.050000 0.000000
1.025000 -0.025000 0.000000
1.025000 0.000000 0.000000
1.025000 0.025000 0.000000
1.025000 0.050000 0.000000
1.025000 0.075000 0.000000
1.025000 0.100000 0.000000
1.025000 0.125000 0.000000
1.025000 0.150000 0.000000
1.025000 0.175000 0.000000
1.025000 0.200000 0.000000
1.025000 0.225000 0.000000
1.025000 0.250000 0.000000
1.025000 0.275000 0.000000
1.025000 0.300000 0.000000
1.025000 0.325000 0.000000
1.025000 0.350000 0.000000
1.025000 0.375000 0.000000
1.025000 0.400000 0.000000
1.025000 0.425000 0.000000
1.025000 0.450000 0.000000
1.025000 0.475000 0.000000
1.025000 0.500000 0.000000
1.025000 0.525000 0.000000
1.025000 0.550000 0.000000
1.025000 0.575000 0.000000
1.025000 0.600000 0.000000
1.050000 -0.075000 0.000000
1.050000 -0.050000 0.000000
1.050000 -0.025000 0.000000
1.050000 0.000000 0.000000
1.050000 0.025000 0.000000
1.050000 0.050000 0.000000
1.050000 0.075000 0.000000
1.050000 0.100000 0.000000
1.050000 0.125000 0.000000
1.050000 0.150000 0.000000
1.050000 0.175000 0.000000
1.050000 0.200000 0.000000
1.050000 0.225000 0.000000
1.050000 0.250000 0.000000
1.050000 0.275000 0.000000
1.050000 0.300000 0.000000
1.050000 0.325000 0.000000
1.050000 0.350000 0.000000
1.050000 0.375000 0.000000
1.050000 0.400000 0.000000
1.050000 0.425000 0.000000
1.050000 0.450000 0.000000
1.050000 0.475000 0.000000
1.050000 0.500000 0.000000
1.050000 0.525000 0.000000
1.050000 0.550000 0.000000
1.050000 0.575000 0.000000
1.050000 0.600000 0.000000
1.075000 -0.075000 0.000000
1.075000 -0.050000 0.000000
1.075000 -0.025000 0.000000
1.075000 0.000000 0.000000
1.075000 0.025000 0.000000
1.075000 0.050000 0.000000
1.075000 0.075000 0.000000
1.075000 0.100000 0.000000
1.075000 0.125000 0.000000
1.075000 0.150000 0.000000
1.075000 0.175000 0.000000
1.075000 0.200000 0.000000
1.075000 0.225000 0.000000
1.075000 0.250000 0.000000
1.075000 0.275000 0.000000
1.075000 0.300000 0.000000
1.075000 0.325000 0.000000
1.075000 0.350000 0.000000
1.075000 0.375000 0.000000
1.075000 0.400000 0.000000
1.075000 0.425000 0.000000
1.075000 0.450000 0.000000
1.075000 0.475000 0.000000
1.075000 0.500000 0.000000
1.075000 0.525000 0.000000
1.075000 0.550000 0.000000
1.075000 0.575000 0.000000
1.075000 0.600000 0.000000
1.100000 -0.075000 0.000000
1.100000 -0.050000 0.000000
1.100000 -0.025000 0.000000
1.100000 0.000000 0.000000
1.100000 0.025000 0.000000
1.100000 0.050000 0.000000
1.100000 0.075000 0.000000
1.100000 0.100000 0.000000
1.100000 0.125000 0.000000
1.100000 0.150000 0.000000
1.100000 0.175000 0.000000
1.100000 0.200000 0.000000
1.100000 0.225000 0.000000
1.100000 0.250000 0.000000
1.100000 0.275000 0.000000
1.100000 0.300000 0.000000
1.100000 0.325000 0.000000
1.100000 0.350000 0.000000
1.100000 0.375000 0.000000
1.100000 0.400000 0.000000
1.100000 0.425000 0.000000
1.100000 0.450000 0.000000
1.100000 0.475000 0.000000
1.100000 0.500000 0.000000
1.100000 0.525000 0.000000
1.100000 0.550000 0.000000
1.100000 0.575000 0.000000
1.100000 0.600000 0.000000
</DataArray>
</Points>
<PointData>
<DataArray NumberOfComponents='1' type='Int32' Name='ParticleType' format='ascii'>
3
3
3
3
3
3
3
3
3
3
3
3
3
3
3
3
3
3
3
3
3
3
3
3
3
3
2
2
3
3
3
3
3
3
3
3
3
3
3
3
3
3
3
3
3
3
3
3
3
3
3
3
3
3
2
2
3
3
2
2
2
2
2
2
2
2
2
2
2
2
2
2
2
2
2
2
2
2
2
2
2
2
2
2
3
3
2
2
2
2
2
2
2
2
2
2
2
2
2
2
2
2
2
2
2
2
2
2
2
2
2
2
3
3
2
2
0
0
0
0
0
0
0
0
0
0
0
0
0
0
0
0
0
0
0
0
3
3
2
2
0
0
0
0
0
0
0
0
0
0
0
0
0
0
0
0
0
0
0
0
3
3
2
2
0
0
0
0
0
0
0
0
0
0
0
0
0
0
0
0
0
0
0
0
3
3
2
2
0
0
0
0
0
0
0
0
0
0
0
0
0
0
0
0
0
0
0
0
3
3
2
2
0
0
0
0
0
0
0
0
0
0
0
0
0
0
0
0
0
0
0
0
3
3
2
2
0
0
0
0
0
0
0
0
0
0
0
0
0
0
0
0
0
0
0
0
3
3
2
2
0
0
0
0
0
0
0
0
0
0
0
0
0
0
0
0
0
0
0
0
3
3
2
2
0
0
0
0
0
0
0
0
0
0
0
0
0
0
0
0
0
0
0
0
3
3
2
2
0
0
0
0
0
0
0
0
0
0
0
0
0
0
0
0
0
0
0
0
3
3
2
2
0
0
0
0
0
0
0
0
0
0
0
0
0
0
0
0
0
0
0
0
3
3
2
2
3
3
2
2
3
3
2
2
3
3
2
2
3
3
2
2
3
3
2
2
3
3
2
2
3
3
2
2
3
3
2
2
3
3
2
2
3
3
2
2
3
3
2
2
3
3
2
2
3
3
2
2
3
3
2
2
3
3
2
2
3
3
2
2
3
3
2
2
3
3
2
2
3
3
2
2
3
3
2
2
3
3
2
2
3
3
2
2
3
3
2
2
3
3
2
2
3
3
2
2
3
3
2
2
3
3
2
2
3
3
2
2
3
3
2
2
3
3
2
2
2
2
2
2
2
2
2
2
2
2
2
2
2
2
2
2
2
2
2
2
2
2
2
2
3
3
2
2
2
2
2
2
2
2
2
2
2
2
2
2
2
2
2
2
2
2
2
2
2
2
2
2
3
3
3
3
3
3
3
3
3
3
3
3
3
3
3
3
3
3
3
3
3
3
3
3
3
3
2
2
3
3
3
3
3
3
3
3
3
3
3
3
3
3
3
3
3
3
3
3
3
3
3
3
3
3
2
2
</DataArray>
<DataArray NumberOfComponents='1' type='Float32' Name='Velocity' format='ascii'>
0.000000
0.000000
0.000000
0.000000
0.000000
0.000000
0.000000
0.000000
0.000000
0.000000
0.000000
0.000000
0.000000
0.000000
0.000000
0.000000
0.000000
0.000000
0.000000
0.000000
0.000000
0.000000
0.000000
0.000000
0.000000
0.000000
0.000000
0.000000
0.000000
0.000000
0.000000
0.000000
0.000000
0.000000
0.000000
0.000000
0.000000
0.000000
0.000000
0.000000
0.000000
0.000000
0.000000
0.000000
0.000000
0.000000
0.000000
0.000000
0.000000
0.000000
0.000000
0.000000
0.000000
0.000000
0.000000
0.000000
0.000000
0.000000
0.000000
0.000000
0.000000
0.000000
0.000000
0.000000
0.000000
0.000000
0.000000
0.000000
0.000000
0.000000
0.000000
0.000000
0.000000
0.000000
0.000000
0.000000
0.000000
0.000000
0.000000
0.000000
0.000000
0.000000
0.000000
0.000000
0.000000
0.000000
0.000000
0.000000
0.000000
0.000000
0.000000
0.000000
0.000000
0.000000
0.000000
0.000000
0.000000
0.000000
0.000000
0.000000
0.000000
0.000000
0.000000
0.000000
0.000000
0.000000
0.000000
0.000000
0.000000
0.000000
0.000000
0.000000
0.000000
0.000000
0.000000
0.000000
0.195169
0.338030
0.103358
0.335081
0.854924
0.244162
1.127894
0.610053
0.443882
0.156751
0.513098
0.136023
0.424119
0.241098
0.144031
0.124803
0.185467
0.308428
0.461365
0.377845
0.000000
0.000000
0.000000
0.000000
0.269262
0.878462
0.978676
0.558210
0.926488
1.203412
0.380685
1.084128
0.889767
0.760368
0.794792
0.125877
0.285494
0.566454
0.645107
0.243610
0.270814
0.316071
0.225866
0.438006
0.000000
0.000000
0.000000
0.000000
0.427647
0.684246
0.738620
0.777664
1.857383
0.867928
0.889049
0.933199
1.373125
1.110191
0.634179
0.626390
1.338556
0.527343
0.586195
0.297373
0.486012
0.694736
0.655361
0.286239
0.000000
0.000000
0.000000
0.000000
0.555617
0.731654
1.144594
1.346582
0.521061
1.644458
1.331520
1.363254
1.339793
1.457621
0.818924
1.034123
1.134599
1.389010
1.183291
0.618609
0.887940
1.140013
0.695849
0.633131
0.000000
0.000000
0.000000
0.000000
1.360970
1.302512
0.393129
0.550173
1.160589
0.629639
1.523796
1.893973
1.379561
1.509738
1.496578
1.367059
1.380792
1.254060
1.271292
1.162711
1.549480
1.030284
1.489283
0.981521
0.000000
0.000000
0.000000
0.000000
0.742667
1.165280
1.470742
1.510144
0.543439
1.505470
0.738999
0.796250
0.794440
1.379349
0.986243
1.640258
1.221172
1.492773
1.378266
1.217063
1.225111
1.386855
1.436208
0.835320
0.000000
0.000000
0.000000
0.000000
1.133629
0.985338
1.159632
0.587314
0.185743
1.417132
0.167446
0.827734
0.973332
0.625496
1.230316
1.089509
0.820325
1.256082
1.566687
1.468173
1.199368
1.907193
1.386716
1.881529
0.000000
0.000000
0.000000
0.000000
1.113110
0.952633
0.505604
1.235809
1.013723
0.921466
0.817835
1.397827
1.614220
0.417700
1.252099
0.198080
0.867552
1.032154
1.059954
1.252167
1.362696
1.259358
0.816130
1.553796
0.000000
0.000000
0.000000
0.000000
1.365322
2.094331
1.032054
0.356901
1.286683
0.448382
0.581041
0.649727
1.318653
0.591822
0.596915
0.506719
0.932807
0.461490
1.126589
0.947170
0.898097
0.256833
0.801405
1.516324
0.000000
0.000000
0.000000
0.000000
1.364381
1.444480
0.694571
0.719147
1.667570
0.809568
1.409552
1.115927
0.749739
0.553578
0.575183
0.721325
0.615862
1.185150
0.740126
0.689692
1.218535
0.578385
0.825011
1.215104
0.000000
0.000000
0.000000
0.000000
0.000000
0.000000
0.000000
0.000000
0.000000
0.000000
0.000000
0.000000
0.000000
0.000000
0.000000
0.000000
0.000000
0.000000
0.000000
0.000000
0.000000
0.000000
0.000000
0.000000
0.000000
0.000000
0.000000
0.000000
0.000000
0.000000
0.000000
0.000000
0.000000
0.000000
0.000000
0.000000
0.000000
0.000000
0.000000
0.000000
0.000000
0.000000
0.000000
0.000000
0.000000
0.000000
0.000000
0.000000
0.000000
0.000000
0.000000
0.000000
0.000000
0.000000
0.000000
0.000000
0.000000
0.000000
0.000000
0.000000
0.000000
0.000000
0.000000
0.000000
0.000000
0.000000
0.000000
0.000000
0.000000
0.000000
0.000000
0.000000
0.000000
0.000000
0.000000
0.000000
0.000000
0.000000
0.000000
0.000000
0.000000
0.000000
0.000000
0.000000
0.000000
0.000000
0.000000
0.000000
0.000000
0.000000
0.000000
0.000000
0.000000
0.000000
0.000000
0.000000
0.000000
0.000000
0.000000
0.000000
0.000000
0.000000
0.000000
0.000000
0.000000
0.000000
0.000000
0.000000
0.000000
0.000000
0.000000
0.000000
0.000000
0.000000
0.000000
0.000000
0.000000
0.000000
0.000000
0.000000
0.000000
0.000000
0.000000
0.000000
0.000000
0.000000
0.000000
0.000000
0.000000
0.000000
0.000000
0.000000
0.000000
0.000000
0.000000
0.000000
0.000000
0.000000
0.000000
0.000000
0.000000
0.000000
0.000000
0.000000
0.000000
0.000000
0.000000
0.000000
0.000000
0.000000
0.000000
0.000000
0.000000
0.000000
0.000000
0.000000
0.000000
0.000000
0.000000
0.000000
0.000000
0.000000
0.000000
0.000000
0.000000
0.000000
0.000000
0.000000
0.000000
0.000000
0.000000
0.000000
0.000000
0.000000
0.000000
0.000000
0.000000
0.000000
0.000000
0.000000
0.000000
0.000000
0.000000
0.000000
0.000000
0.000000
0.000000
0.000000
0.000000
0.000000
0.000000
0.000000
0.000000
0.000000
0.000000
0.000000
0.000000
0.000000
0.000000
0.000000
0.000000
0.000000
0.000000
0.000000
0.000000
0.000000
0.000000
0.000000
0.000000
0.000000
0.000000
0.000000
0.000000
0.000000
0.000000
0.000000
0.000000
0.000000
0.000000
0.000000
0.000000
0.000000
0.000000
0.000000
0.000000
0.000000
0.000000
0.000000
0.000000
0.000000
0.000000
0.000000
</DataArray>
<DataArray NumberOfComponents='1' type='Float32' Name='pressure' format='ascii'>
0.000000
0.000000
0.000000
0.000000
0.000000
0.000000
0.000000
0.000000
0.000000
0.000000
0.000000
0.000000
0.000000
0.000000
0.000000
0.000000
0.000000
0.000000
0.000000
0.000000
0.000000
0.000000
0.000000
0.000000
0.000000
0.000000
0.000000
0.000000
0.000000
0.000000
0.000000
0.000000
0.000000
0.000000
0.000000
0.000000
0.000000
0.000000
0.000000
0.000000
0.000000
0.000000
0.000000
0.000000
0.000000
0.000000
0.000000
0.000000
0.000000
0.000000
0.000000
0.000000
0.000000
0.000000
0.000000
0.000000
0.000000
0.000000
310.582336
412.647003
1281.815063
0.000000
134.915237
0.000000
0.000000
0.000000
0.000000
0.000000
0.000000
0.000000
0.000000
0.000000
0.000000
0.000000
0.000000
0.000000
0.000000
0.000000
0.000000
0.000000
0.000000
0.000000
0.000000
0.000000
0.000000
0.000000
188.018723
95.993210
1177.468262
0.000000
1079.591309
0.000000
0.000000
0.000000
0.000000
0.000000
0.000000
0.000000
0.000000
0.000000
0.000000
0.000000
0.000000
0.000000
0.000000
0.000000
0.000000
0.000000
0.000000
0.000000
0.000000
0.000000
0.000000
0.000000
0.000000
0.000000
862.078918
1782.268066
0.000000
864.359497
922.864868
2432.037598
1485.350952
1550.672607
313.182404
653.911987
722.718262
470.726074
0.000000
909.773987
711.724792
382.818390
1464.931641
0.000000
0.000000
0.000000
0.000000
0.000000
150.052261
157.977646
624.441956
1997.188477
0.000000
0.000000
256.447388
1134.831787
789.294678
0.000000
1328.042114
1800.403198
0.000000
0.000000
1245.014038
960.022583
0.000000
705.313843
425.061859
0.000000
0.000000
0.000000
0.000000
0.000000
1128.098022
1474.321289
493.982056
508.081482
1189.936279
0.000000
0.000000
876.908325
1672.792236
1619.206543
0.000000
833.851624
0.000000
1283.422974
1534.361206
0.000000
0.000000
0.000000
0.000000
0.000000
0.000000
0.000000
0.000000
0.000000
402.534424
243.519363
0.000000
398.114197
0.000000
0.000000
810.323242
2857.632568
1034.223267
0.000000
104.259644
2050.344238
0.000000
0.000000
0.000000
0.000000
0.000000
0.000000
0.000000
0.000000
0.000000
0.000000
0.000000
0.000000
708.995605
0.000000
565.791077
1632.135376
0.000000
0.000000
0.000000
1370.499512
834.188721
0.000000
334.335602
0.000000
0.000000
17.955168
0.000000
0.000000
0.000000
298.643646
1381.063599
0.000000
0.000000
0.000000
0.000000
0.000000
1985.115112
2093.868408
1178.000732
40.860588
456.399597
0.000000
0.000000
0.000000
0.000000
2414.276611
153.251938
0.000000
1414.634766
322.755829
0.000000
0.000000
1212.877686
0.000000
258.457245
1874.495605
0.000000
0.000000
0.000000
0.000000
501.350647
371.533722
0.000000
0.000000
0.000000
802.040466
1791.250488
0.000000
0.000000
2395.310059
0.000000
1749.748901
0.000000
0.000000
799.432495
779.496216
0.000000
0.000000
934.855225
0.000000
0.000000
0.000000
0.000000
0.000000
1248.754761
2215.866455
0.000000
0.000000
0.000000
0.000000
212.237030
0.000000
0.000000
0.000000
0.000000
2137.273193
0.000000
1264.391602
0.000000
0.000000
0.000000
0.000000
0.000000
215.691498
309.767212
0.000000
0.000000
0.000000
2491.458252
2251.399902
0.000000
0.000000
0.000000
0.000000
0.000000
0.000000
0.000000
0.000000
0.000000
0.000000
0.000000
0.000000
0.000000
0.000000
0.000000
147.639999
0.000000
0.000000
0.000000
0.000000
0.000000
0.000000
1476.254028
368.088806
0.000000
0.000000
0.000000
0.000000
0.000000
0.000000
0.000000
0.000000
0.000000
0.000000
0.000000
1064.209717
0.000000
0.000000
0.000000
0.000000
0.000000
425.339813
0.000000
146.862640
0.000000
0.000000
1793.306519
2136.587158
0.000000
0.000000
612.659485
0.000000
0.000000
0.000000
2179.471436
350.521881
0.000000
0.000000
1451.143677
348.876495
0.000000
0.000000
1285.307861
1497.005981
0.000000
0.000000
1165.583374
1210.730957
0.000000
0.000000
1236.452393
958.946960
0.000000
0.000000
0.000000
0.000000
0.000000
0.000000
0.000000
0.000000
0.000000
0.000000
0.000000
0.000000
0.000000
0.000000
2209.189697
2275.239990
0.000000
0.000000
1274.856567
1166.413452
0.000000
0.000000
198.134262
0.000000
0.000000
0.000000
1136.080933
0.000000
0.000000
0.000000
2896.750000
128.857956
0.000000
0.000000
4723.125488
4923.168945
0.000000
0.000000
3938.795166
4423.020020
0.000000
0.000000
2548.568604
2402.289062
0.000000
0.000000
3121.435303
2614.326660
0.000000
0.000000
2967.633545
2051.270996
0.000000
0.000000
2973.923584
1870.110718
0.000000
0.000000
0.000000
39.385994
0.000000
0.000000
0.000000
0.000000
0.000000
0.000000
723.167480
0.000000
0.000000
0.000000
2678.762939
2475.512939
0.000000
0.000000
3217.599854
4356.321289
0.000000
0.000000
606.024658
0.000000
0.000000
0.000000
1204.700439
0.000000
0.000000
0.000000
722.839844
955.901917
0.000000
0.000000
0.000000
0.000000
0.000000
0.000000
0.000000
0.000000
0.000000
0.000000
512.402649
0.000000
0.000000
0.000000
0.000000
1119.496704
0.000000
0.000000
0.000000
0.000000
0.000000
0.000000
0.000000
0.000000
0.000000
0.000000
0.000000
0.000000
0.000000
0.000000
0.000000
0.000000
0.000000
0.000000
0.000000
0.000000
0.000000
149.592712
972.456909
0.000000
0.000000
759.669861
1144.845215
2497.816650
1941.992920
1153.773193
0.000000
0.000000
322.113586
901.225220
0.000000
0.000000
0.000000
0.000000
0.000000
0.000000
0.000000
0.000000
0.000000
0.000000
0.000000
0.000000
0.000000
0.000000
0.000000
0.000000
0.000000
0.000000
0.000000
0.000000
0.000000
0.000000
0.000000
0.000000
0.000000
0.000000
0.000000
0.000000
0.000000
0.000000
0.000000
0.000000
0.000000
0.000000
0.000000
0.000000
0.000000
0.000000
0.000000
0.000000
0.000000
0.000000
0.000000
0.000000
0.000000
0.000000
0.000000
0.000000
0.000000
0.000000
0.000000
0.000000
0.000000
0.000000
0.000000
0.000000
0.000000
0.000000
0.000000
0.000000
0.000000
0.000000
0.000000
0.000000
0.000000
0.000000
</DataArray>
</PointData>
<Cells>
<DataArray type='Int32' Name='connectivity' format='ascii'>
0
1
2
3
4
5
6
7
8
9
10
11
12
13
14
15
16
17
18
19
20
21
22
23
24
25
26
27
28
29
30
31
32
33
34
35
36
37
38
39
40
41
42
43
44
45
46
47
48
49
50
51
52
53
54
55
56
57
58
59
60
61
62
63
64
65
66
67
68
69
70
71
72
73
74
75
76
77
78
79
80
81
82
83
84
85
86
87
88
89
90
91
92
93
94
95
96
97
98
99
100
101
102
103
104
105
106
107
108
109
110
111
112
113
114
115
116
117
118
119
120
121
122
123
124
125
126
127
128
129
130
131
132
133
134
135
136
137
138
139
140
141
142
143
144
145
146
147
148
149
150
151
152
153
154
155
156
157
158
159
160
161
162
163
164
165
166
167
168
169
170
171
172
173
174
175
176
177
178
179
180
181
182
183
184
185
186
187
188
189
190
191
192
193
194
195
196
197
198
199
200
201
202
203
204
205
206
207
208
209
210
211
212
213
214
215
216
217
218
219
220
221
222
223
224
225
226
227
228
229
230
231
232
233
234
235
236
237
238
239
240
241
242
243
244
245
246
247
248
249
250
251
252
253
254
255
256
257
258
259
260
261
262
263
264
265
266
267
268
269
270
271
272
273
274
275
276
277
278
279
280
281
282
283
284
285
286
287
288
289
290
291
292
293
294
295
296
297
298
299
300
301
302
303
304
305
306
307
308
309
310
311
312
313
314
315
316
317
318
319
320
321
322
323
324
325
326
327
328
329
330
331
332
333
334
335
336
337
338
339
340