<?xml version='1.0' encoding='UTF-8'?>
<VTKFile xmlns='VTK' byte_order='LittleEndian' version='0.1' type='UnstructuredGrid'>
<UnstructuredGrid>
<Piece NumberOfCells='584' NumberOfPoints='584'>
<Points>
<DataArray NumberOfComponents='3' type='Float32' Name='Position' format='ascii'>
-0.075000 -0.075000 0.000000
-0.075000 -0.050000 0.000000
-0.075000 -0.025000 0.000000
-0.075000 0.000000 0.000000
-0.075000 0.025000 0.000000
-0.075000 0.050000 0.000000
-0.075000 0.075000 0.000000
-0.075000 0.100000 0.000000
-0.075000 0.125000 0.000000
-0.075000 0.150000 0.000000
-0.075000 0.175000 0.000000
-0.075000 0.200000 0.000000
-0.075000 0.225000 0.000000
-0.075000 0.250000 0.000000
-0.075000 0.275000 0.000000
-0.075000 0.300000 0.000000
-0.075000 0.325000 0.000000
-0.075000 0.350000 0.000000
-0.075000 0.375000 0.000000
-0.075000 0.400000 0.000000
-0.075000 0.425000 0.000000
-0.075000 0.450000 0.000000
-0.075000 0.475000 0.000000
-0.075000 0.500000 0.000000
-0.075000 0.525000 0.000000
-0.075000 0.550000 0.000000
-0.075000 0.575000 0.000000
-0.075000 0.600000 0.000000
-0.050000 -0.075000 0.000000
-0.050000 -0.050000 0.000000
-0.050000 -0.025000 0.000000
-0.050000 0.000000 0.000000
-0.050000 0.025000 0.000000
-0.050000 0.050000 0.000000
-0.050000 0.075000 0.000000
-0.050000 0.100000 0.000000
-0.050000 0.125000 0.000000
-0.050000 0.150000 0.000000
-0.050000 0.175000 0.000000
-0.050000 0.200000 0.000000
-0.050000 0.225000 0.000000
-0.050000 0.250000 0.000000
-0.050000 0.275000 0.000000
-0.050000 0.300000 0.000000
-0.050000 0.325000 0.000000
-0.050000 0.350000 0.000000
-0.050000 0.375000 0.000000
-0.050000 0.400000 0.000000
-0.050000 0.425000 0.000000
-0.050000 0.450000 0.000000
-0.050000 0.475000 0.000000
-0.050000 0.500000 0.000000
-0.050000 0.525000 0.000000
-0.050000 0.550000 0.000000
-0.050000 0.575000 0.000000
-0.050000 0.600000 0.000000
-0.025000 -0.075000 0.000000
-0.025000 -0.050000 0.000000
-0.025000 -0.025000 0.000000
-0.025000 0.000000 0.000000
-0.025000 0.025000 0.000000
-0.025000 0.050000 0.000000
-0.025000 0.075000 0.000000
-0.025000 0.100000 0.000000
-0.025000 0.125000 0.000000
-0.025000 0.150000 0.000000
-0.025000 0.175000 0.000000
-0.025000 0.200000 0.000000
-0.025000 0.225000 0.000000
-0.025000 0.250000 0.000000
-0.025000 0.275000 0.000000
-0.025000 0.300000 0.000000
-0.025000 0.325000 0.000000
-0.025000 0.350000 0.000000
-0.025000 0.375000 0.000000
-0.025000 0.400000 0.000000
-0.025000 0.425000 0.000000
-0.025000 0.450000 0.000000
-0.025000 0.475000 0.000000
-0.025000 0.500000 0.000000
-0.025000 0.525000 0.000000
-0.025000 0.550000 0.000000
-0.025000 0.575000 0.000000
-0.025000 0.600000 0.000000
0.000000 -0.075000 0.000000
0.000000 -0.050000 0.000000
0.000000 -0.025000 0.000000
0.000000 0.000000 0.000000
0.000000 0.025000 0.000000
0.000000 0.050000 0.000000
0.000000 0.075000 0.000000
0.000000 0.100000 0.000000
0.000000 0.125000 0.000000
0.000000 0.150000 0.000000
0.000000 0.175000 0.000000
0.000000 0.200000 0.000000
0.000000 0.225000 0.000000
0.000000 0.250000 0.000000
0.000000 0.275000 0.000000
0.000000 0.300000 0.000000
0.000000 0.325000 0.000000
0.000000 0.350000 0.000000
0.000000 0.375000 0.000000
0.000000 0.400000 0.000000
0.000000 0.425000 0.000000
0.000000 0.450000 0.000000
0.000000 0.475000 0.000000
0.000000 0.500000 0.000000
0.000000 0.525000 0.000000
0.000000 0.550000 0.000000
0.000000 0.575000 0.000000
0.000000 0.600000 0.000000
0.025000 -0.075000 0.000000
0.025000 -0.050000 0.000000
0.025000 -0.025000 0.000000
0.025000 0.000000 0.000000
0.235292 0.072461 0.000000
0.153581 0.136771 0.000000
0.228591 0.045630 0.000000
0.218854 0.025020 0.000000
0.252718 0.046179 0.000000
0.152408 0.059244 0.000000
0.325750 0.023857 0.000000
0.250071 0.090173 0.000000
0.199030 0.121107 0.000000
0.164636 0.208448 0.000000
0.249996 0.023769 0.000000
0.135000 0.084088 0.000000
0.190780 0.021965 0.000000
0.161686 0.024654 0.000000
0.140367 0.116055 0.000000
0.088486 0.040340 0.000000
0.028323 0.144076 0.000000
0.100282 0.024381 0.000000
0.038514 0.100534 0.000000
0.209269 0.065089 0.000000
0.050000 -0.075000 0.000000
0.050000 -0.050000 0.000000
0.050000 -0.025000 0.000000
0.050000 0.000000 0.000000
0.109943 0.174584 0.000000
0.115902 0.098391 0.000000
0.088429 0.151401 0.000000
0.038246 0.021497 0.000000
0.020036 0.088433 0.000000
0.426610 0.071305 0.000000
0.219260 0.129252 0.000000
0.584781 0.023392 0.000000
0.090316 0.128425 0.000000
0.245874 0.227437 0.000000
0.139093 0.039675 0.000000
0.251965 0.144360 0.000000
0.035701 0.164994 0.000000
0.252441 0.238148 0.000000
0.172016 0.044163 0.000000
0.056078 0.045677 0.000000
0.226266 0.104276 0.000000
0.273545 0.084747 0.000000
0.094843 0.201741 0.000000
0.102872 0.059646 0.000000
0.075000 -0.075000 0.000000
0.075000 -0.050000 0.000000
0.075000 -0.025000 0.000000
0.075000 0.000000 0.000000
0.158322 0.085355 0.000000
0.177161 0.131848 0.000000
0.405920 0.098291 0.000000
0.362638 0.021983 0.000000
0.403915 0.127881 0.000000
0.563212 0.114526 0.000000
0.541035 0.105738 0.000000
0.065438 0.085421 0.000000
0.300779 0.105950 0.000000
0.557136 0.044588 0.000000
0.437750 0.024668 0.000000
0.099624 0.088935 0.000000
0.247168 0.113808 0.000000
0.251744 0.163642 0.000000
0.302085 0.081265 0.000000
0.080085 0.063515 0.000000
0.163623 0.111004 0.000000
0.052277 0.070917 0.000000
0.184179 0.091970 0.000000
0.198809 0.044840 0.000000
0.100000 -0.075000 0.000000
0.100000 -0.050000 0.000000
0.100000 -0.025000 0.000000
0.100000 0.000000 0.000000
0.480868 0.022380 0.000000
0.329790 0.208870 0.000000
0.472236 0.113539 0.000000
0.783898 0.023120 0.000000
0.265783 0.067668 0.000000
0.711383 0.026289 0.000000
0.540824 0.064085 0.000000
0.285989 0.043742 0.000000
0.658257 0.022670 0.000000
0.658695 0.041796 0.000000
0.456655 0.029010 0.000000
0.313907 0.127643 0.000000
0.488331 0.080263 0.000000
0.624432 0.052050 0.000000
0.064901 0.164982 0.000000
0.275496 0.024413 0.000000
0.508841 0.065047 0.000000
0.301915 0.057317 0.000000
0.337830 0.104395 0.000000
0.136842 0.207546 0.000000
0.125000 -0.075000 0.000000
0.125000 -0.050000 0.000000
0.125000 -0.025000 0.000000
0.125000 0.000000 0.000000
0.691451 0.050764 0.000000
0.592998 0.069605 0.000000
0.980809 0.063388 0.000000
0.838472 0.024188 0.000000
0.510942 0.084119 0.000000
0.606004 0.032707 0.000000
0.089998 0.183739 0.000000
0.448166 0.061892 0.000000
0.784177 0.067355 0.000000
0.722392 0.064081 0.000000
0.817437 0.070355 0.000000
0.480383 0.046647 0.000000
0.501514 0.038706 0.000000
0.350346 0.150924 0.000000
0.411326 0.027450 0.000000
0.376070 0.151943 0.000000
0.217747 0.179919 0.000000
0.180423 0.073095 0.000000
0.386149 0.130119 0.000000
0.070595 0.122556 0.000000
0.150000 -0.075000 0.000000
0.150000 -0.050000 0.000000
0.150000 -0.025000 0.000000
0.150000 0.000000 0.000000
0.179574 0.177971 0.000000
0.956438 0.023333 0.000000
0.640728 0.059408 0.000000
0.330914 0.051404 0.000000
0.888363 0.024973 0.000000
0.209984 0.088798 0.000000
0.902899 0.053288 0.000000
0.435341 0.156489 0.000000
0.951346 0.057169 0.000000
0.459265 0.142116 0.000000
0.928681 0.023742 0.000000
0.690911 0.025433 0.000000
0.855335 0.066870 0.000000
0.802645 0.078718 0.000000
0.753738 0.023283 0.000000
0.565968 0.070065 0.000000
0.629035 0.022669 0.000000
0.593946 0.086425 0.000000
0.617386 0.092945 0.000000
0.286595 0.151783 0.000000
0.175000 -0.075000 0.000000
0.175000 -0.050000 0.000000
0.175000 -0.025000 0.000000
0.175000 0.000000 0.000000
0.121544 0.123669 0.000000
0.525082 0.110310 0.000000
0.866083 0.054924 0.000000
0.765490 0.055156 0.000000
0.989618 0.020104 0.000000
0.144405 0.162127 0.000000
0.867757 0.024598 0.000000
0.373604 0.050384 0.000000
0.399372 0.058600 0.000000
0.908319 0.035487 0.000000
0.470222 0.068154 0.000000
0.745079 0.077440 0.000000
0.356684 0.098879 0.000000
0.943621 0.043064 0.000000
0.981803 0.043068 0.000000
0.419596 0.047311 0.000000
1.006184 0.046013 0.000000
0.450864 0.083702 0.000000
0.109844 0.149783 0.000000
0.357758 0.123733 0.000000
0.200000 -0.075000 0.000000
0.200000 -0.050000 0.000000
0.200000 -0.025000 0.000000
0.200000 0.000000 0.000000
0.333998 0.129584 0.000000
0.126438 0.022653 0.000000
0.287210 0.118331 0.000000
0.811235 0.023637 0.000000
0.390771 0.076230 0.000000
0.329109 0.185658 0.000000
0.590873 0.047499 0.000000
0.976894 0.077215 0.000000
0.338286 0.164535 0.000000
0.078978 0.105181 0.000000
0.790092 0.044369 0.000000
0.634120 0.081738 0.000000
0.064655 0.024896 0.000000
0.436587 0.169170 0.000000
0.521689 0.023166 0.000000
0.193531 0.181473 0.000000
0.703836 0.062639 0.000000
0.360569 0.205068 0.000000
0.843993 0.045303 0.000000
0.670893 0.061711 0.000000
0.225000 -0.075000 0.000000
0.225000 -0.050000 0.000000
0.225000 -0.025000 0.000000
0.225000 0.000000 0.000000
0.343979 0.071332 0.000000
0.818902 0.050597 0.000000
0.519892 0.129786 0.000000
0.266662 0.201049 0.000000
0.048631 0.170774 0.000000
0.087332 0.213495 0.000000
0.433913 0.137195 0.000000
0.892688 0.073135 0.000000
0.531265 0.041883 0.000000
0.030859 0.117113 0.000000
0.551555 0.083423 0.000000
0.213635 0.197047 0.000000
0.388480 0.025343 0.000000
0.429418 0.099237 0.000000
0.125282 0.061237 0.000000
0.198547 0.149385 0.000000
0.498719 0.108731 0.000000
0.021576 0.037485 0.000000
0.268175 0.127943 0.000000
0.351727 0.040874 0.000000
0.250000 -0.075000 0.000000
0.250000 -0.050000 0.000000
0.250000 -0.025000 0.000000
0.250000 0.000000 0.000000
0.733900 0.030143 0.000000
0.345037 0.184852 0.000000
0.252155 0.209402 0.000000
0.321214 0.078160 0.000000
0.306459 0.026323 0.000000
0.293943 0.176086 0.000000
0.129134 0.163904 0.000000
0.289932 0.192955 0.000000
0.270738 0.182040 0.000000
0.439849 0.114496 0.000000
0.230794 0.148579 0.000000
0.051646 0.140990 0.000000
0.175724 0.156600 0.000000
0.556083 0.022478 0.000000
0.387221 0.109001 0.000000
0.367377 0.076240 0.000000
0.305874 0.151156 0.000000
0.747296 0.052923 0.000000
0.031842 0.059442 0.000000
0.471013 0.127052 0.000000
0.275000 -0.075000 0.000000
0.275000 -0.050000 0.000000
0.275000 -0.025000 0.000000
0.275000 0.000000 0.000000
0.300000 -0.075000 0.000000
0.300000 -0.050000 0.000000
0.300000 -0.025000 0.000000
0.300000 0.000000 0.000000
0.325000 -0.075000 0.000000
0.325000 -0.050000 0.000000
0.325000 -0.025000 0.000000
0.325000 0.000000 0.000000
0.350000 -0.075000 0.000000
0.350000 -0.050000 0.000000
0.350000 -0.025000 0.000000
0.350000 0.000000 0.000000
0.375000 -0.075000 0.000000
0.375000 -0.050000 0.000000
0.375000 -0.025000 0.000000
0.375000 0.000000 0.000000
0.400000 -0.075000 0.000000
0.400000 -0.050000 0.000000
0.400000 -0.025000 0.000000
0.400000 0.000000 0.000000
0.425000 -0.075000 0.000000
0.425000 -0.050000 0.000000
0.425000 -0.025000 0.000000
0.425000 0.000000 0.000000
0.450000 -0.075000 0.000000
0.450000 -0.050000 0.000000
0.450000 -0.025000 0.000000
0.450000 0.000000 0.000000
0.475000 -0.075000 0.000000
0.475000 -0.050000 0.000000
0.475000 -0.025000 0.000000
0.475000 0.000000 0.000000
0.500000 -0.075000 0.000000
0.500000 -0.050000 0.000000
0.500000 -0.025000 0.000000
0.500000 0.000000 0.000000
0.525000 -0.075000 0.000000
0.525000 -0.050000 0.000000
0.525000 -0.025000 0.000000
0.525000 0.000000 0.000000
0.550000 -0.075000 0.000000
0.550000 -0.050000 0.000000
0.550000 -0.025000 0.000000
0.550000 0.000000 0.000000
0.575000 -0.075000 0.000000
0.575000 -0.050000 0.000000
0.575000 -0.025000 0.000000
0.575000 0.000000 0.000000
0.600000 -0.075000 0.000000
0.600000 -0.050000 0.000000
0.600000 -0.025000 0.000000
0.600000 0.000000 0.000000
0.625000 -0.075000 0.000000
0.625000 -0.050000 0.000000
0.625000 -0.025000 0.000000
0.625000 0.000000 0.000000
0.650000 -0.075000 0.000000
0.650000 -0.050000 0.000000
0.650000 -0.025000 0.000000
0.650000 0.000000 0.000000
0.675000 -0.075000 0.000000
0.675000 -0.050000 0.000000
0.675000 -0.025000 0.000000
0.675000 0.000000 0.000000
0.700000 -0.075000 0.000000
0.700000 -0.050000 0.000000
0.700000 -0.025000 0.000000
0.700000 0.000000 0.000000
0.725000 -0.075000 0.000000
0.725000 -0.050000 0.000000
0.725000 -0.025000 0.000000
0.725000 0.000000 0.000000
0.750000 -0.075000 0.000000
0.750000 -0.050000 0.000000
0.750000 -0.025000 0.000000
0.750000 0.000000 0.000000
0.775000 -0.075000 0.000000
0.775000 -0.050000 0.000000
0.775000 -0.025000 0.000000
0.775000 0.000000 0.000000
0.800000 -0.075000 0.000000
0.800000 -0.050000 0.000000
0.800000 -0.025000 0.000000
0.800000 0.000000 0.000000
0.825000 -0.075000 0.000000
0.825000 -0.050000 0.000000
0.825000 -0.025000 0.000000
0.825000 0.000000 0.000000
0.850000 -0.075000 0.000000
0.850000 -0.050000 0.000000
0.850000 -0.025000 0.000000
0.850000 0.000000 0.000000
0.875000 -0.075000 0.000000
0.875000 -0.050000 0.000000
0.875000 -0.025000 0.000000
0.875000 0.000000 0.000000
0.900000 -0.075000 0.000000
0.900000 -0.050000 0.000000
0.900000 -0.025000 0.000000
0.900000 0.000000 0.000000
0.925000 -0.075000 0.000000
0.925000 -0.050000 0.000000
0.925000 -0.025000 0.000000
0.925000 0.000000 0.000000
0.950000 -0.075000 0.000000
0.950000 -0.050000 0.000000
0.950000 -0.025000 0.000000
0.950000 0.000000 0.000000
0.975000 -0.075000 0.000000
0.975000 -0.050000 0.000000
0.975000 -0.025000 0.000000
0.975000 0.000000 0.000000
1.000000 -0.075000 0.000000
1.000000 -0.050000 0.000000
1.000000 -0.025000 0.000000
1.000000 0.000000 0.000000
1.025000 -0.075000 0.000000
1.025000 -0.050000 0.000000
1.025000 -0.025000 0.000000
1.025000 0.000000 0.000000
1.025000 0.025000 0.000000
1.025000 0.050000 0.000000
1.025000 0.075000 0.000000
1.025000 0.100000 0.000000
1.025000 0.125000 0.000000
1.025000 0.150000 0.000000
1.025000 0.175000 0.000000
1.025000 0.200000 0.000000
1.025000 0.225000 0.000000
1.025000 0.250000 0.000000
1.025000 0.275000 0.000000
1.025000 0.300000 0.000000
1.025000 0.325000 0.000000
1.025000 0.350000 0.000000
1.025000 0.375000 0.000000
1.025000 0.400000 0.000000
1.025000 0.425000 0.000000
1.025000 0.450000 0.000000
1.025000 0.475000 0.000000
1.025000 0.500000 0.000000
1.025000 0.525000 0.000000
1.025000 0.550000 0.000000
1.025000 0.575000 0.000000
1.025000 0.600000 0.000000
1.050000 -0.075000 0.000000
1.050000 -0.050000 0.000000
1.050000 -0.025000 0.000000
1.050000 0.000000 0.000000
1.050000 0.025000 0.000000
1.050000 0.050000 0.000000
1.050000 0.075000 0.000000
1.050000 0.100000 0.000000
1.050000 0.125000 0.000000
1.050000 0.150000 0.000000
1.050000 0.175000 0.000000
1.050000 0.200000 0.000000
1.050000 0.225000 0.000000
1.050000 0.250000 0.000000
1.050000 0.275000 0.000000
1.050000 0.300000 0.000000
1.050000 0.325000 0.000000
1.050000 0.350000 0.000000
1.050000 0.375000 0.000000
1.050000 0.400000 0.000000
1.050000 0.425000 0.000000
1.050000 0.450000 0.000000
1.050000 0.475000 0.000000
1.050000 0.500000 0.000000
1.050000 0.525000 0.000000
1.050000 0.550000 0.000000
1.050000 0.575000 0.000000
1.050000 0.600000 0.000000
1.075000 -0.075000 0.000000
1.075000 -0.050000 0.000000
1.075000 -0.025000 0.000000
1.075000 0.000000 0.000000
1.075000 0.025000 0.000000
1.075000 0.050000 0.000000
1.075000 0.075000 0.000000
1.075000 0.100000 0.000000
1.075000 0.125000 0.000000
1.075000 0.150000 0.000000
1.075000 0.175000 0.000000
1.075000 0.200000 0.000000
1.075000 0.225000 0.000000
1.075000 0.250000 0.000000
1.075000 0.275000 0.000000
1.075000 0.300000 0.000000
1.075000 0.325000 0.000000
1.075000 0.350000 0.000000
1.075000 0.375000 0.000000
1.075000 0.400000 0.000000
1.075000 0.425000 0.000000
1.075000 0.450000 0.000000
1.075000 0.475000 0.000000
1.075000 0.500000 0.000000
1.075000 0.525000 0.000000
1.075000 0.550000 0.000000
1.075000 0.575000 0.000000
1.075000 0.600000 0.000000
1.100000 -0.075000 0.000000
1.100000 -0.050000 0.000000
1.100000 -0.025000 0.000000
1.100000 0.000000 0.000000
1.100000 0.025000 0.000000
1.100000 0.050000 0.000000
1.100000 0.075000 0.000000
1.100000 0.100000 0.000000
1.100000 0.125000 0.000000
1.100000 0.150000 0.000000
1.100000 0.175000 0.000000
1.100000 0.200000 0.000000
1.100000 0.225000 0.000000
1.100000 0.250000 0.000000
1.100000 0.275000 0.000000
1.100000 0.300000 0.000000
1.100000 0.325000 0.000000
1.100000 0.350000 0.000000
1.100000 0.375000 0.000000
1.100000 0.400000 0.000000
1.100000 0.425000 0.000000
1.100000 0.450000 0.000000
1.100000 0.475000 0.000000
1.100000 0.500000 0.000000
1.100000 0.525000 0.000000
1.100000 0.550000 0.000000
1.100000 0.575000 0.000000
1.100000 0.600000 0.000000
</DataArray>
</Points>
<PointData>
<DataArray NumberOfComponents='1' type='Int32' Name='ParticleType' format='ascii'>
3
3
3
3
3
3
3
3
3
3
3
3
3
3
3
3
3
3
3
3
3
3
3
3
3
3
2
2
3
3
3
3
3
3
3
3
3
3
3
3
3
3
3
3
3
3
3
3
3
3
3
3
3
3
2
2
3
3
2
2
2
2
2
2
2
2
2
2
2
2
2
2
2
2
2
2
2
2
2
2
2
2
2
2
3
3
2
2
2
2
2
2
2
2
2
2
2
2
2
2
2
2
2
2
2
2
2
2
2
2
2
2
3
3
2
2
0
0
0
0
0
0
0
0
0
0
0
0
0
0
0
0
0
0
0
0
3
3
2
2
0
0
0
0
0
0
0
0
0
0
0
0
0
0
0
0
0
0
0
0
3
3
2
2
0
0
0
0
0
0
0
0
0
0
0
0
0
0
0
0
0
0
0
0
3
3
2
2
0
0
0
0
0
0
0
0
0
0
0
0
0
0
0
0
0
0
0
0
3
3
2
2
0
0
0
0
0
0
0
0
0
0
0
0
0
0
0
0
0
0
0
0
3
3
2
2
0
0
0
0
0
0
0
0
0
0
0
0
0
0
0
0
0
0
0
0
3
3
2
2
0
0
0
0
0
0
0
0
0
0
0
0
0
0
0
0
0
0
0
0
3
3
2
2
0
0
0
0
0
0
0
0
0
0
0
0
0
0
0
0
0
0
0
0
3
3
2
2
0
0
0
0
0
0
0
0
0
0
0
0
0
0
0
0
0
0
0
0
3
3
2
2
0
0
0
0
0
0
0
0
0
0
0
0
0
0
0
0
0
0
0
0
3
3
2
2
3
3
2
2
3
3
2
2
3
3
2
2
3
3
2
2
3
3
2
2
3
3
2
2
3
3
2
2
3
3
2
2
3
3
2
2
3
3
2
2
3
3
2
2
3
3
2
2
3
3
2
2
3
3
2
2
3
3
2
2
3
3
2
2
3
3
2
2
3
3
2
2
3
3
2
2
3
3
2
2
3
3
2
2
3
3
2
2
3
3
2
2
3
3
2
2
3
3
2
2
3
3
2
2
3
3
2
2
3
3
2
2
3
3
2
2
3
3
2
2
2
2
2
2
2
2
2
2
2
2
2
2
2
2
2
2
2
2
2
2
2
2
2
2
3
3
2
2
2
2
2
2
2
2
2
2
2
2
2
2
2
2
2
2
2
2
2
2
2
2
2
2
3
3
3
3
3
3
3
3
3
3
3
3
3
3
3
3
3
3
3
3
3
3
3
3
3
3
2
2
3
3
3
3
3
3
3
3
3
3
3
3
3
3
3
3
3
3
3
3
3
3
3
3
3
3
2
2
</DataArray>
<DataArray NumberOfComponents='1' type='Float32' Name='Velocity' format='ascii'>
0.000000
0.000000
0.000000
0.000000
0.000000
0.000000
0.000000
0.000000
0.000000
0.000000
0.000000
0.000000
0.000000
0.000000
0.000000
0.000000
0.000000
0.000000
0.000000
0.000000
0.000000
0.000000
0.000000
0.000000
0.000000
0.000000
0.000000
0.000000
0.000000
0.000000
0.000000
0.000000
0.000000
0.000000
0.000000
0.000000
0.000000
0.000000
0.000000
0.000000
0.000000
0.000000
0.000000
0.000000
0.000000
0.000000
0.000000
0.000000
0.000000
0.000000
0.000000
0.000000
0.000000
0.000000
0.000000
0.000000
0.000000
0.000000
0.000000
0.000000
0.000000
0.000000
0.000000
0.000000
0.000000
0.000000
0.000000
0.000000
0.000000
0.000000
0.000000
0.000000
0.000000
0.000000
0.000000
0.000000
0.000000
0.000000
0.000000
0.000000
0.000000
0.000000
0.000000
0.000000
0.000000
0.000000
0.000000
0.000000
0.000000
0.000000
0.000000
0.000000
0.000000
0.000000
0.000000
0.000000
0.000000
0.000000
0.000000
0.000000
0.000000
0.000000
0.000000
0.000000
0.000000
0.000000
0.000000
0.000000
0.000000
0.000000
0.000000
0.000000
0.000000
0.000000
0.000000
0.000000
0.495989
0.378505
0.736331
0.302678
0.435350
0.544883
0.514298
0.524496
0.608073
0.339815
0.303617
0.724256
0.273735
0.454836
0.226561
0.249357
0.330938
0.228344
0.177128
0.457492
0.000000
0.000000
0.000000
0.000000
0.207255
0.681072
0.471765
0.131590
0.103861
0.325440
0.152879
0.363431
0.426099
0.580879
0.442696
0.367668
0.154965
0.889547
0.645288
0.138504
0.550242
0.431199
0.452282
0.405358
0.000000
0.000000
0.000000
0.000000
0.388523
0.157619
0.308292
0.316202
0.626162
0.593844
0.248497
0.628238
0.439492
0.234223
0.349213
0.521133
0.362069
0.414061
0.594831
0.354895
0.087744
0.163765
0.234382
0.593940
0.000000
0.000000
0.000000
0.000000
0.205314
0.390404
0.250638
0.207573
0.657888
0.074502
0.364892
0.473386
0.169015
0.250705
0.375809
0.418577
0.490492
0.085054
0.610429
0.349174
0.036115
0.706017
0.490876
0.344425
0.000000
0.000000
0.000000
0.000000
0.518321
0.373272
0.040282
0.202843
0.112635
0.354137
0.580347
0.256725
0.328388
0.252785
0.187320
0.214169
0.445832
0.286681
0.383523
0.496138
0.134013
0.493244
0.220743
0.482627
0.000000
0.000000
0.000000
0.000000
0.227521
0.156171
0.167433
0.366299
0.283098
0.313886
0.108348
0.388357
0.401209
0.483817
0.180637
0.192363
0.182647
0.389644
0.081326
0.153334
0.156206
0.360696
0.056728
0.677027
0.000000
0.000000
0.000000
0.000000
0.186906
0.376484
0.169821
0.301416
0.173432
0.481832
0.093337
0.480452
0.390449
0.232113
0.364519
0.039215
0.462080
0.424076
0.086490
0.497007
0.257433
0.271373
0.476684
0.176634
0.000000
0.000000
0.000000
0.000000
0.331369
0.266926
0.434889
0.074170
0.636804
0.498811
0.109772
0.054777
0.184174
0.308999
0.210448
0.353947
0.162569
0.411930
0.082932
0.588424
0.234148
0.421009
0.054584
0.160460
0.000000
0.000000
0.000000
0.000000
0.719905
0.042216
0.577214
1.106331
0.267430
0.301099
0.398787
0.332341
0.163905
0.415944
0.182027
0.210116
0.504505
0.337719
0.500416
0.456392
0.137202
0.206431
0.657002
0.485015
0.000000
0.000000
0.000000
0.000000
0.163548
0.840868
0.858571
0.630780
0.356772
0.258373
0.291512
1.401335
0.687584
0.385941
0.368787
0.389417
0.102952
0.418101
0.371907
0.738696
0.594047
0.409557
0.276423
0.326927
0.000000
0.000000
0.000000
0.000000
0.000000
0.000000
0.000000
0.000000
0.000000
0.000000
0.000000
0.000000
0.000000
0.000000
0.000000
0.000000
0.000000
0.000000
0.000000
0.000000
0.000000
0.000000
0.000000
0.000000
0.000000
0.000000
0.000000
0.000000
0.000000
0.000000
0.000000
0.000000
0.000000
0.000000
0.000000
0.000000
0.000000
0.000000
0.000000
0.000000
0.000000
0.000000
0.000000
0.000000
0.000000
0.000000
0.000000
0.000000
0.000000
0.000000
0.000000
0.000000
0.000000
0.000000
0.000000
0.000000
0.000000
0.000000
0.000000
0.000000
0.000000
0.000000
0.000000
0.000000
0.000000
0.000000
0.000000
0.000000
0.000000
0.000000
0.000000
0.000000
0.000000
0.000000
0.000000
0.000000
0.000000
0.000000
0.000000
0.000000
0.000000
0.000000
0.000000
0.000000
0.000000
0.000000
0.000000
0.000000
0.000000
0.000000
0.000000
0.000000
0.000000
0.000000
0.000000
0.000000
0.000000
0.000000
0.000000
0.000000
0.000000
0.000000
0.000000
0.000000
0.000000
0.000000
0.000000
0.000000
0.000000
0.000000
0.000000
0.000000
0.000000
0.000000
0.000000
0.000000
0.000000
0.000000
0.000000
0.000000
0.000000
0.000000
0.000000
0.000000
0.000000
0.000000
0.000000
0.000000
0.000000
0.000000
0.000000
0.000000
0.000000
0.000000
0.000000
0.000000
0.000000
0.000000
0.000000
0.000000
0.000000
0.000000
0.000000
0.000000
0.000000
0.000000
0.000000
0.000000
0.000000
0.000000
0.000000
0.000000
0.000000
0.000000
0.000000
0.000000
0.000000
0.000000
0.000000
0.000000
0.000000
0.000000
0.000000
0.000000
0.000000
0.000000
0.000000
0.000000
0.000000
0.000000
0.000000
0.000000
0.000000
0.000000
0.000000
0.000000
0.000000
0.000000
0.000000
0.000000
0.000000
0.000000
0.000000
0.000000
0.000000
0.000000
0.000000
0.000000
0.000000
0.000000
0.000000
0.000000
0.000000
0.000000
0.000000
0.000000
0.000000
0.000000
0.000000
0.000000
0.000000
0.000000
0.000000
0.000000
0.000000
0.000000
0.000000
0.000000
0.000000
0.000000
0.000000
0.000000
0.000000
0.000000
0.000000
0.000000
0.000000
0.000000
0.000000
0.000000
0.000000
0.000000
0.000000
0.000000
0.000000
0.000000
0.000000
0.000000
0.000000
0.000000
0.000000
0.000000
</DataArray>
<DataArray NumberOfComponents='1' type='Float32' Name='pressure' format='ascii'>
0.000000
0.000000
0.000000
0.000000
0.000000
0.000000
0.000000
0.000000
0.000000
0.000000
0.000000
0.000000
0.000000
0.000000
0.000000
0.000000
0.000000
0.000000
0.000000
0.000000
0.000000
0.000000
0.000000
0.000000
0.000000
0.000000
0.000000
0.000000
0.000000
0.000000
0.000000
0.000000
0.000000
0.000000
0.000000
0.000000
0.000000
0.000000
0.000000
0.000000
0.000000
0.000000
0.000000
0.000000
0.000000
0.000000
0.000000
0.000000
0.000000
0.000000
0.000000
0.000000
0.000000
0.000000
0.000000
0.000000
0.000000
0.000000
224.525085
176.697327
746.345703
752.398560
1237.505859
1311.016479
0.000000
0.000000
0.000000
0.000000
0.000000
0.000000
0.000000
0.000000
0.000000
0.000000
0.000000
0.000000
0.000000
0.000000
0.000000
0.000000
0.000000
0.000000
0.000000
0.000000
0.000000
0.000000
420.736633
0.000000
0.000000
0.000000
0.000000
185.641678
0.000000
0.000000
0.000000
0.000000
0.000000
0.000000
0.000000
0.000000
0.000000
0.000000
0.000000
0.000000
0.000000
0.000000
0.000000
0.000000
0.000000
0.000000
0.000000
0.000000
0.000000
0.000000
1276.618530
171.205307
984.240662
0.000000
1064.114380
710.156250
557.853943
981.273376
950.454346
716.051208
0.000000
0.000000
1207.998779
1340.177734
2483.803711
833.225586
415.191101
1248.838989
0.000000
561.321594
0.000000
1504.064697
0.000000
0.000000
1701.557739
1748.357544
0.000000
0.000000
1480.135986
1966.526489
0.000000
0.000000
0.000000
1352.024048
503.023224
0.000000
1188.249390
1708.690674
479.896912
0.000000
277.705261
0.000000
923.279297
53.368557
0.000000
0.000000
0.000000
0.000000
539.815002
0.000000
537.471924
1343.620728
0.000000
1487.136719
0.000000
0.000000
0.000000
160.731430
0.000000
1129.565063
657.131592
0.000000
0.000000
0.000000
1591.236694
1117.192383
23.696260
0.000000
215.322601
812.901184
0.000000
0.000000
1262.319824
935.441406
909.114807
0.000000
636.595398
0.000000
465.820129
886.538208
521.133545
1558.982544
2210.814697
1605.214966
284.712250
656.227356
0.000000
1139.450562
0.000000
859.458252
230.046677
1135.527710
377.394226
0.000000
0.000000
0.000000
2106.841553
2648.591309
157.862747
1070.192749
0.000000
0.000000
1035.232666
820.120483
0.000000
13.647640
0.000000
0.000000
0.000000
1162.158569
503.728027
0.000000
1395.542236
0.000000
0.000000
525.995789
0.000000
29.569822
0.000000
0.000000
1063.951294
0.000000
0.000000
0.000000
0.000000
524.975159
0.000000
0.000000
0.000000
0.000000
0.000000
0.000000
0.000000
1156.940674
0.000000
0.000000
0.000000
0.000000
0.000000
0.000000
0.000000
0.000000
0.000000
0.000000
1984.845947
878.239197
0.000000
295.068939
0.000000
913.849548
0.000000
0.000000
0.000000
0.000000
1497.205444
0.000000
1197.274170
0.000000
39.806377
0.000000
0.000000
714.592285
0.000000
0.000000
2243.505615
213.646393
0.000000
0.000000
2391.111328
2479.054688
1065.394653
665.057922
943.993774
0.000000
0.000000
515.763184
289.960022
0.000000
2461.479004
656.775208
1278.783325
0.000000
0.000000
0.000000
1065.836792
370.581787
0.000000
0.000000
0.000000
0.000000
0.000000
0.000000
1476.395874
205.162552
913.074646
25.034437
0.000000
1650.879028
0.000000
0.000000
0.000000
0.000000
1373.907715
0.000000
0.000000
0.000000
0.000000
557.110229
0.000000
0.000000
0.000000
843.013733
0.000000
1351.993652
0.000000
0.000000
1926.274658
2098.479980
870.552917
0.000000
0.000000
753.849548
820.017822
0.000000
301.178009
0.000000
3622.499756
571.422180
0.000000
0.000000
0.000000
1174.306274
1302.834229
519.247620
0.000000
1724.583374
0.000000
223.884552
0.000000
0.000000
1545.649292
1488.559082
0.000000
0.000000
695.933472
842.910767
0.000000
0.000000
1627.288818
1184.777344
0.000000
0.000000
1769.224121
631.705688
0.000000
0.000000
1769.286499
2161.478760
0.000000
0.000000
333.594452
85.327362
0.000000
0.000000
361.848633
664.348389
0.000000
0.000000
665.862366
1362.074707
0.000000
0.000000
2007.641357
2228.013184
0.000000
0.000000
1094.424194
0.000000
0.000000
0.000000
2360.872070
1010.035645
0.000000
0.000000
2894.605469
3305.402100
0.000000
0.000000
2610.181641
2192.731445
0.000000
0.000000
1297.566772
288.863708
0.000000
0.000000
1919.281860
806.697632
0.000000
0.000000
1546.598755
1649.371338
0.000000
0.000000
135.516632
0.000000
0.000000
0.000000
0.000000
0.000000
0.000000
0.000000
0.000000
0.000000
0.000000
0.000000
846.585266
798.036316
0.000000
0.000000
848.881042
603.800415
0.000000
0.000000
921.861450
855.096985
0.000000
0.000000
334.064453
0.000000
0.000000
0.000000
0.000000
0.000000
0.000000
0.000000
0.000000
271.657532
0.000000
0.000000
0.000000
0.000000
0.000000
0.000000
0.000000
0.000000
0.000000
0.000000
0.000000
0.000000
0.000000
0.000000
0.000000
0.000000
0.000000
0.000000
0.000000
0.000000
0.000000
0.000000
0.000000
0.000000
0.000000
0.000000
0.000000
0.000000
0.000000
0.000000
0.000000
0.000000
0.000000
0.000000
0.000000
0.000000
0.000000
0.000000
0.000000
0.000000
0.000000
0.000000
0.000000
0.000000
0.000000
0.000000
0.000000
0.000000
0.000000
0.000000
0.000000
0.000000
0.000000
560.657898
0.000000
0.000000
0.000000
0.000000
0.000000
0.000000
0.000000
0.000000
0.000000
0.000000
0.000000
0.000000
0.000000
0.000000
0.000000
0.000000
0.000000
0.000000
0.000000
0.000000
0.000000
0.000000
0.000000
0.000000
0.000000
0.000000
0.000000
0.000000
0.000000
0.000000
0.000000
0.000000
0.000000
0.000000
0.000000
0.000000
0.000000
0.000000
0.000000
0.000000
0.000000
0.000000
0.000000
0.000000
0.000000
0.000000
0.000000
0.000000
0.000000
0.000000
0.000000
0.000000
0.000000
0.000000
0.000000
0.000000
0.000000
0.000000
0.000000
0.000000
0.000000
0.000000
0.000000
0.000000
0.000000
0.000000
0.000000
0.000000
0.000000
0.000000
0.000000
0.000000
0.000000
0.000000
0.000000
0.000000
0.000000
0.000000
</DataArray>
</PointData>
<Cells>
<DataArray type='Int32' Name='connectivity' format='ascii'>
0
1
2
3
4
5
6
7
8
9
10
11
12
13
14
15
16
17
18
19
20
21
22
23
24
25
26
27
28
29
30
31
32
33
34
35
36
37
38
39
40
41
42
43
44
45
46
47
48
49
50
51
52
53
54
55
56
57
58
59
60
61
62
63
64
65
66
67
68
69
70
71
72
73
74
75
76
77
78
79
80
81
82
83
84
85
86
87
88
89
90
91
92
93
94
95
96
97
98
99
100
101
102
103
104
105
106
107
108
109
110
111
112
113
114
115
116
117
118
119
120
121
122
123
124
125
126
127
128
129
130
131
132
133
134
135
136
137
138
139
140
141
142
143
144
145
146
147
148
149
150
151
152
153
154
155
156
157
158
159
160
161
162
163
164
165
166
167
168
169
170
171
172
173
174
175
176
177
178
179
180
181
182
183
184
185
186
187
188
189
190
191
192
193
194
195
196
197
198
199
200
201
202
203
204
205
206
207
208
209
210
211
212
213
214
215
216
217
218
219
220
221
222
223
224
225
226
227
228
229
230
231
232
233
234
235
236
237
238
239
240
241
242
243
244
245
246
247
248
249
250
251
252
253
254
255
256
257
258
259
260
261
262
263
264
265
266
267
268
269
270
271
272
273
274
275
276
277
278
279
280
281
282
283
284
285
286
287
288
289
290
291
292
293
294
295
296
297
298
299
300
301
302
303
304
305
306
307
308
309
310
311
312
313
314
315
316
317
318
319
320
321
322
323
324
325
326
327
328
329
330
331
332
333
334
335
336