<?xml version='1.0' encoding='UTF-8'?>
<VTKFile xmlns='VTK' byte_order='LittleEndian' version='0.1' type='UnstructuredGrid'>
<UnstructuredGrid>
<Piece NumberOfCells='584' NumberOfPoints='584'>
<Points>
<DataArray NumberOfComponents='3' type='Float32' Name='Position' format='ascii'>
-0.075000 -0.075000 0.000000
-0.075000 -0.050000 0.000000
-0.075000 -0.025000 0.000000
-0.075000 0.000000 0.000000
-0.075000 0.025000 0.000000
-0.075000 0.050000 0.000000
-0.075000 0.075000 0.000000
-0.075000 0.100000 0.000000
-0.075000 0.125000 0.000000
-0.075000 0.150000 0.000000
-0.075000 0.175000 0.000000
-0.075000 0.200000 0.000000
-0.075000 0.225000 0.000000
-0.075000 0.250000 0.000000
-0.075000 0.275000 0.000000
-0.075000 0.300000 0.000000
-0.075000 0.325000 0.000000
-0.075000 0.350000 0.000000
-0.075000 0.375000 0.000000
-0.075000 0.400000 0.000000
-0.075000 0.425000 0.000000
-0.075000 0.450000 0.000000
-0.075000 0.475000 0.000000
-0.075000 0.500000 0.000000
-0.075000 0.525000 0.000000
-0.075000 0.550000 0.000000
-0.075000 0.575000 0.000000
-0.075000 0.600000 0.000000
-0.050000 -0.075000 0.000000
-0.050000 -0.050000 0.000000
-0.050000 -0.025000 0.000000
-0.050000 0.000000 0.000000
-0.050000 0.025000 0.000000
-0.050000 0.050000 0.000000
-0.050000 0.075000 0.000000
-0.050000 0.100000 0.000000
-0.050000 0.125000 0.000000
-0.050000 0.150000 0.000000
-0.050000 0.175000 0.000000
-0.050000 0.200000 0.000000
-0.050000 0.225000 0.000000
-0.050000 0.250000 0.000000
-0.050000 0.275000 0.000000
-0.050000 0.300000 0.000000
-0.050000 0.325000 0.000000
-0.050000 0.350000 0.000000
-0.050000 0.375000 0.000000
-0.050000 0.400000 0.000000
-0.050000 0.425000 0.000000
-0.050000 0.450000 0.000000
-0.050000 0.475000 0.000000
-0.050000 0.500000 0.000000
-0.050000 0.525000 0.000000
-0.050000 0.550000 0.000000
-0.050000 0.575000 0.000000
-0.050000 0.600000 0.000000
-0.025000 -0.075000 0.000000
-0.025000 -0.050000 0.000000
-0.025000 -0.025000 0.000000
-0.025000 0.000000 0.000000
-0.025000 0.025000 0.000000
-0.025000 0.050000 0.000000
-0.025000 0.075000 0.000000
-0.025000 0.100000 0.000000
-0.025000 0.125000 0.000000
-0.025000 0.150000 0.000000
-0.025000 0.175000 0.000000
-0.025000 0.200000 0.000000
-0.025000 0.225000 0.000000
-0.025000 0.250000 0.000000
-0.025000 0.275000 0.000000
-0.025000 0.300000 0.000000
-0.025000 0.325000 0.000000
-0.025000 0.350000 0.000000
-0.025000 0.375000 0.000000
-0.025000 0.400000 0.000000
-0.025000 0.425000 0.000000
-0.025000 0.450000 0.000000
-0.025000 0.475000 0.000000
-0.025000 0.500000 0.000000
-0.025000 0.525000 0.000000
-0.025000 0.550000 0.000000
-0.025000 0.575000 0.000000
-0.025000 0.600000 0.000000
0.000000 -0.075000 0.000000
0.000000 -0.050000 0.000000
0.000000 -0.025000 0.000000
0.000000 0.000000 0.000000
0.000000 0.025000 0.000000
0.000000 0.050000 0.000000
0.000000 0.075000 0.000000
0.000000 0.100000 0.000000
0.000000 0.125000 0.000000
0.000000 0.150000 0.000000
0.000000 0.175000 0.000000
0.000000 0.200000 0.000000
0.000000 0.225000 0.000000
0.000000 0.250000 0.000000
0.000000 0.275000 0.000000
0.000000 0.300000 0.000000
0.000000 0.325000 0.000000
0.000000 0.350000 0.000000
0.000000 0.375000 0.000000
0.000000 0.400000 0.000000
0.000000 0.425000 0.000000
0.000000 0.450000 0.000000
0.000000 0.475000 0.000000
0.000000 0.500000 0.000000
0.000000 0.525000 0.000000
0.000000 0.550000 0.000000
0.000000 0.575000 0.000000
0.000000 0.600000 0.000000
0.025000 -0.075000 0.000000
0.025000 -0.050000 0.000000
0.025000 -0.025000 0.000000
0.025000 0.000000 0.000000
0.219431 0.064428 0.000000
0.140481 0.149764 0.000000
0.203157 0.043211 0.000000
0.210126 0.023323 0.000000
0.236952 0.046917 0.000000
0.135885 0.072411 0.000000
0.316657 0.021690 0.000000
0.232574 0.085935 0.000000
0.183134 0.116449 0.000000
0.171323 0.213828 0.000000
0.237420 0.024660 0.000000
0.113345 0.097121 0.000000
0.176273 0.021594 0.000000
0.140384 0.021959 0.000000
0.142993 0.120862 0.000000
0.076027 0.042141 0.000000
0.021941 0.147539 0.000000
0.093626 0.022983 0.000000
0.034549 0.109437 0.000000
0.189275 0.065041 0.000000
0.050000 -0.075000 0.000000
0.050000 -0.050000 0.000000
0.050000 -0.025000 0.000000
0.050000 0.000000 0.000000
0.100801 0.177632 0.000000
0.101929 0.120090 0.000000
0.081118 0.164966 0.000000
0.028430 0.022696 0.000000
0.021282 0.090094 0.000000
0.418126 0.064514 0.000000
0.209380 0.130467 0.000000
0.571846 0.026120 0.000000
0.094194 0.139676 0.000000
0.221226 0.232789 0.000000
0.123292 0.049546 0.000000
0.238718 0.138950 0.000000
0.023060 0.181181 0.000000
0.222256 0.254042 0.000000
0.149608 0.042743 0.000000
0.050130 0.046496 0.000000
0.207358 0.108924 0.000000
0.258723 0.092515 0.000000
0.100799 0.215449 0.000000
0.091452 0.059146 0.000000
0.075000 -0.075000 0.000000
0.075000 -0.050000 0.000000
0.075000 -0.025000 0.000000
0.075000 0.000000 0.000000
0.138919 0.092719 0.000000
0.172326 0.136131 0.000000
0.398686 0.080284 0.000000
0.346617 0.024262 0.000000
0.393592 0.110180 0.000000
0.585985 0.100014 0.000000
0.559263 0.102087 0.000000
0.053455 0.102610 0.000000
0.294548 0.111894 0.000000
0.555396 0.051325 0.000000
0.427790 0.023753 0.000000
0.087477 0.095253 0.000000
0.235256 0.107636 0.000000
0.239101 0.166505 0.000000
0.276994 0.083949 0.000000
0.073637 0.079376 0.000000
0.157828 0.107879 0.000000
0.056688 0.066675 0.000000
0.175492 0.089525 0.000000
0.175647 0.044537 0.000000
0.100000 -0.075000 0.000000
0.100000 -0.050000 0.000000
0.100000 -0.025000 0.000000
0.100000 0.000000 0.000000
0.472239 0.021445 0.000000
0.313532 0.204623 0.000000
0.472626 0.097141 0.000000
0.778476 0.024013 0.000000
0.246483 0.065405 0.000000
0.713603 0.020922 0.000000
0.533656 0.075481 0.000000
0.271303 0.048836 0.000000
0.652580 0.023776 0.000000
0.654838 0.046809 0.000000
0.449578 0.031684 0.000000
0.302560 0.133201 0.000000
0.488193 0.063019 0.000000
0.616739 0.044396 0.000000
0.069074 0.184477 0.000000
0.264733 0.023908 0.000000
0.508331 0.051779 0.000000
0.287062 0.060086 0.000000
0.317354 0.102223 0.000000
0.136308 0.214342 0.000000
0.125000 -0.075000 0.000000
0.125000 -0.050000 0.000000
0.125000 -0.025000 0.000000
0.125000 0.000000 0.000000
0.681410 0.044425 0.000000
0.606267 0.065151 0.000000
0.981865 0.067706 0.000000
0.835246 0.022134 0.000000
0.512953 0.079342 0.000000
0.601180 0.022968 0.000000
0.102726 0.202376 0.000000
0.436254 0.049326 0.000000
0.774540 0.077879 0.000000
0.729104 0.062361 0.000000
0.824329 0.065824 0.000000
0.473845 0.049843 0.000000
0.499132 0.028106 0.000000
0.344850 0.144722 0.000000
0.395918 0.021916 0.000000
0.370850 0.134857 0.000000
0.218525 0.178695 0.000000
0.161247 0.065058 0.000000
0.382465 0.128089 0.000000
0.066944 0.142763 0.000000
0.150000 -0.075000 0.000000
0.150000 -0.050000 0.000000
0.150000 -0.025000 0.000000
0.150000 0.000000 0.000000
0.175451 0.187465 0.000000
0.961867 0.025111 0.000000
0.646457 0.068588 0.000000
0.307564 0.044363 0.000000
0.886107 0.029668 0.000000
0.198010 0.086725 0.000000
0.898143 0.056827 0.000000
0.431681 0.134261 0.000000
0.949686 0.067910 0.000000
0.453872 0.122207 0.000000
0.925613 0.025915 0.000000
0.680037 0.024241 0.000000
0.850161 0.071410 0.000000
0.803259 0.089114 0.000000
0.758494 0.025862 0.000000
0.574384 0.068120 0.000000
0.629317 0.029317 0.000000
0.606434 0.087636 0.000000
0.621036 0.088884 0.000000
0.267824 0.161084 0.000000
0.175000 -0.075000 0.000000
0.175000 -0.050000 0.000000
0.175000 -0.025000 0.000000
0.175000 0.000000 0.000000
0.118269 0.135444 0.000000
0.521067 0.097448 0.000000
0.866934 0.055807 0.000000
0.775482 0.058678 0.000000
0.995757 0.022502 0.000000
0.159986 0.178001 0.000000
0.863664 0.024396 0.000000
0.357816 0.046879 0.000000
0.385293 0.056542 0.000000
0.905481 0.029140 0.000000
0.460892 0.067986 0.000000
0.742364 0.074344 0.000000
0.340056 0.097488 0.000000
0.944365 0.031018 0.000000
0.981461 0.037731 0.000000
0.407151 0.043902 0.000000
1.004613 0.050539 0.000000
0.447506 0.081428 0.000000
0.117495 0.160006 0.000000
0.352863 0.118372 0.000000
0.200000 -0.075000 0.000000
0.200000 -0.050000 0.000000
0.200000 -0.025000 0.000000
0.200000 0.000000 0.000000
0.327656 0.130993 0.000000
0.114793 0.031295 0.000000
0.272834 0.116427 0.000000
0.811816 0.026139 0.000000
0.367253 0.073079 0.000000
0.303008 0.186937 0.000000
0.588405 0.043962 0.000000
0.976661 0.079208 0.000000
0.333478 0.153971 0.000000
0.068648 0.115560 0.000000
0.788338 0.047136 0.000000
0.644348 0.083019 0.000000
0.062240 0.022229 0.000000
0.433539 0.154674 0.000000
0.520891 0.022744 0.000000
0.187986 0.205151 0.000000
0.697832 0.064817 0.000000
0.346805 0.193863 0.000000
0.843935 0.047282 0.000000
0.679370 0.064870 0.000000
0.225000 -0.075000 0.000000
0.225000 -0.050000 0.000000
0.225000 -0.025000 0.000000
0.225000 0.000000 0.000000
0.320630 0.067076 0.000000
0.814724 0.048284 0.000000
0.516729 0.114068 0.000000
0.242804 0.235625 0.000000
0.049802 0.181109 0.000000
0.085276 0.221229 0.000000
0.417125 0.124891 0.000000
0.880542 0.069666 0.000000
0.531365 0.047380 0.000000
0.036419 0.134069 0.000000
0.560527 0.080273 0.000000
0.198848 0.224354 0.000000
0.374243 0.030529 0.000000
0.417696 0.091790 0.000000
0.109157 0.074645 0.000000
0.194646 0.165180 0.000000
0.490215 0.107140 0.000000
0.025912 0.042752 0.000000
0.252147 0.125445 0.000000
0.334285 0.044842 0.000000
0.250000 -0.075000 0.000000
0.250000 -0.050000 0.000000
0.250000 -0.025000 0.000000
0.250000 0.000000 0.000000
0.728276 0.031766 0.000000
0.325777 0.194299 0.000000
0.213971 0.213231 0.000000
0.305209 0.083547 0.000000
0.286848 0.027396 0.000000
0.298723 0.169089 0.000000
0.136891 0.170183 0.000000
0.267143 0.180514 0.000000
0.253890 0.186278 0.000000
0.440743 0.104195 0.000000
0.209640 0.150755 0.000000
0.049505 0.152907 0.000000
0.172681 0.155892 0.000000
0.550392 0.024835 0.000000
0.377641 0.094073 0.000000
0.344821 0.077819 0.000000
0.285334 0.144995 0.000000
0.743752 0.046391 0.000000
0.027868 0.070725 0.000000
0.475692 0.119079 0.000000
0.275000 -0.075000 0.000000
0.275000 -0.050000 0.000000
0.275000 -0.025000 0.000000
0.275000 0.000000 0.000000
0.300000 -0.075000 0.000000
0.300000 -0.050000 0.000000
0.300000 -0.025000 0.000000
0.300000 0.000000 0.000000
0.325000 -0.075000 0.000000
0.325000 -0.050000 0.000000
0.325000 -0.025000 0.000000
0.325000 0.000000 0.000000
0.350000 -0.075000 0.000000
0.350000 -0.050000 0.000000
0.350000 -0.025000 0.000000
0.350000 0.000000 0.000000
0.375000 -0.075000 0.000000
0.375000 -0.050000 0.000000
0.375000 -0.025000 0.000000
0.375000 0.000000 0.000000
0.400000 -0.075000 0.000000
0.400000 -0.050000 0.000000
0.400000 -0.025000 0.000000
0.400000 0.000000 0.000000
0.425000 -0.075000 0.000000
0.425000 -0.050000 0.000000
0.425000 -0.025000 0.000000
0.425000 0.000000 0.000000
0.450000 -0.075000 0.000000
0.450000 -0.050000 0.000000
0.450000 -0.025000 0.000000
0.450000 0.000000 0.000000
0.475000 -0.075000 0.000000
0.475000 -0.050000 0.000000
0.475000 -0.025000 0.000000
0.475000 0.000000 0.000000
0.500000 -0.075000 0.000000
0.500000 -0.050000 0.000000
0.500000 -0.025000 0.000000
0.500000 0.000000 0.000000
0.525000 -0.075000 0.000000
0.525000 -0.050000 0.000000
0.525000 -0.025000 0.000000
0.525000 0.000000 0.000000
0.550000 -0.075000 0.000000
0.550000 -0.050000 0.000000
0.550000 -0.025000 0.000000
0.550000 0.000000 0.000000
0.575000 -0.075000 0.000000
0.575000 -0.050000 0.000000
0.575000 -0.025000 0.000000
0.575000 0.000000 0.000000
0.600000 -0.075000 0.000000
0.600000 -0.050000 0.000000
0.600000 -0.025000 0.000000
0.600000 0.000000 0.000000
0.625000 -0.075000 0.000000
0.625000 -0.050000 0.000000
0.625000 -0.025000 0.000000
0.625000 0.000000 0.000000
0.650000 -0.075000 0.000000
0.650000 -0.050000 0.000000
0.650000 -0.025000 0.000000
0.650000 0.000000 0.000000
0.675000 -0.075000 0.000000
0.675000 -0.050000 0.000000
0.675000 -0.025000 0.000000
0.675000 0.000000 0.000000
0.700000 -0.075000 0.000000
0.700000 -0.050000 0.000000
0.700000 -0.025000 0.000000
0.700000 0.000000 0.000000
0.725000 -0.075000 0.000000
0.725000 -0.050000 0.000000
0.725000 -0.025000 0.000000
0.725000 0.000000 0.000000
0.750000 -0.075000 0.000000
0.750000 -0.050000 0.000000
0.750000 -0.025000 0.000000
0.750000 0.000000 0.000000
0.775000 -0.075000 0.000000
0.775000 -0.050000 0.000000
0.775000 -0.025000 0.000000
0.775000 0.000000 0.000000
0.800000 -0.075000 0.000000
0.800000 -0.050000 0.000000
0.800000 -0.025000 0.000000
0.800000 0.000000 0.000000
0.825000 -0.075000 0.000000
0.825000 -0.050000 0.000000
0.825000 -0.025000 0.000000
0.825000 0.000000 0.000000
0.850000 -0.075000 0.000000
0.850000 -0.050000 0.000000
0.850000 -0.025000 0.000000
0.850000 0.000000 0.000000
0.875000 -0.075000 0.000000
0.875000 -0.050000 0.000000
0.875000 -0.025000 0.000000
0.875000 0.000000 0.000000
0.900000 -0.075000 0.000000
0.900000 -0.050000 0.000000
0.900000 -0.025000 0.000000
0.900000 0.000000 0.000000
0.925000 -0.075000 0.000000
0.925000 -0.050000 0.000000
0.925000 -0.025000 0.000000
0.925000 0.000000 0.000000
0.950000 -0.075000 0.000000
0.950000 -0.050000 0.000000
0.950000 -0.025000 0.000000
0.950000 0.000000 0.000000
0.975000 -0.075000 0.000000
0.975000 -0.050000 0.000000
0.975000 -0.025000 0.000000
0.975000 0.000000 0.000000
1.000000 -0.075000 0.000000
1.000000 -0.050000 0.000000
1.000000 -0.025000 0.000000
1.000000 0.000000 0.000000
1.025000 -0.075000 0.000000
1.025000 -0.050000 0.000000
1.025000 -0.025000 0.000000
1.025000 0.000000 0.000000
1.025000 0.025000 0.000000
1.025000 0.050000 0.000000
1.025000 0.075000 0.000000
1.025000 0.100000 0.000000
1.025000 0.125000 0.000000
1.025000 0.150000 0.000000
1.025000 0.175000 0.000000
1.025000 0.200000 0.000000
1.025000 0.225000 0.000000
1.025000 0.250000 0.000000
1.025000 0.275000 0.000000
1.025000 0.300000 0.000000
1.025000 0.325000 0.000000
1.025000 0.350000 0.000000
1.025000 0.375000 0.000000
1.025000 0.400000 0.000000
1.025000 0.425000 0.000000
1.025000 0.450000 0.000000
1.025000 0.475000 0.000000
1.025000 0.500000 0.000000
1.025000 0.525000 0.000000
1.025000 0.550000 0.000000
1.025000 0.575000 0.000000
1.025000 0.600000 0.000000
1.050000 -0.075000 0.000000
1.050000 -0.050000 0.000000
1.050000 -0.025000 0.000000
1.050000 0.000000 0.000000
1.050000 0.025000 0.000000
1.050000 0.050000 0.000000
1.050000 0.075000 0.000000
1.050000 0.100000 0.000000
1.050000 0.125000 0.000000
1.050000 0.150000 0.000000
1.050000 0.175000 0.000000
1.050000 0.200000 0.000000
1.050000 0.225000 0.000000
1.050000 0.250000 0.000000
1.050000 0.275000 0.000000
1.050000 0.300000 0.000000
1.050000 0.325000 0.000000
1.050000 0.350000 0.000000
1.050000 0.375000 0.000000
1.050000 0.400000 0.000000
1.050000 0.425000 0.000000
1.050000 0.450000 0.000000
1.050000 0.475000 0.000000
1.050000 0.500000 0.000000
1.050000 0.525000 0.000000
1.050000 0.550000 0.000000
1.050000 0.575000 0.000000
1.050000 0.600000 0.000000
1.075000 -0.075000 0.000000
1.075000 -0.050000 0.000000
1.075000 -0.025000 0.000000
1.075000 0.000000 0.000000
1.075000 0.025000 0.000000
1.075000 0.050000 0.000000
1.075000 0.075000 0.000000
1.075000 0.100000 0.000000
1.075000 0.125000 0.000000
1.075000 0.150000 0.000000
1.075000 0.175000 0.000000
1.075000 0.200000 0.000000
1.075000 0.225000 0.000000
1.075000 0.250000 0.000000
1.075000 0.275000 0.000000
1.075000 0.300000 0.000000
1.075000 0.325000 0.000000
1.075000 0.350000 0.000000
1.075000 0.375000 0.000000
1.075000 0.400000 0.000000
1.075000 0.425000 0.000000
1.075000 0.450000 0.000000
1.075000 0.475000 0.000000
1.075000 0.500000 0.000000
1.075000 0.525000 0.000000
1.075000 0.550000 0.000000
1.075000 0.575000 0.000000
1.075000 0.600000 0.000000
1.100000 -0.075000 0.000000
1.100000 -0.050000 0.000000
1.100000 -0.025000 0.000000
1.100000 0.000000 0.000000
1.100000 0.025000 0.000000
1.100000 0.050000 0.000000
1.100000 0.075000 0.000000
1.100000 0.100000 0.000000
1.100000 0.125000 0.000000
1.100000 0.150000 0.000000
1.100000 0.175000 0.000000
1.100000 0.200000 0.000000
1.100000 0.225000 0.000000
1.100000 0.250000 0.000000
1.100000 0.275000 0.000000
1.100000 0.300000 0.000000
1.100000 0.325000 0.000000
1.100000 0.350000 0.000000
1.100000 0.375000 0.000000
1.100000 0.400000 0.000000
1.100000 0.425000 0.000000
1.100000 0.450000 0.000000
1.100000 0.475000 0.000000
1.100000 0.500000 0.000000
1.100000 0.525000 0.000000
1.100000 0.550000 0.000000
1.100000 0.575000 0.000000
1.100000 0.600000 0.000000
</DataArray>
</Points>
<PointData>
<DataArray NumberOfComponents='1' type='Int32' Name='ParticleType' format='ascii'>
3
3
3
3
3
3
3
3
3
3
3
3
3
3
3
3
3
3
3
3
3
3
3
3
3
3
2
2
3
3
3
3
3
3
3
3
3
3
3
3
3
3
3
3
3
3
3
3
3
3
3
3
3
3
2
2
3
3
2
2
2
2
2
2
2
2
2
2
2
2
2
2
2
2
2
2
2
2
2
2
2
2
2
2
3
3
2
2
2
2
2
2
2
2
2
2
2
2
2
2
2
2
2
2
2
2
2
2
2
2
2
2
3
3
2
2
0
0
0
0
0
0
0
0
0
0
0
0
0
0
0
0
0
0
0
0
3
3
2
2
0
0
0
0
0
0
0
0
0
0
0
0
0
0
0
0
0
0
0
0
3
3
2
2
0
0
0
0
0
0
0
0
0
0
0
0
0
0
0
0
0
0
0
0
3
3
2
2
0
0
0
0
0
0
0
0
0
0
0
0
0
0
0
0
0
0
0
0
3
3
2
2
0
0
0
0
0
0
0
0
0
0
0
0
0
0
0
0
0
0
0
0
3
3
2
2
0
0
0
0
0
0
0
0
0
0
0
0
0
0
0
0
0
0
0
0
3
3
2
2
0
0
0
0
0
0
0
0
0
0
0
0
0
0
0
0
0
0
0
0
3
3
2
2
0
0
0
0
0
0
0
0
0
0
0
0
0
0
0
0
0
0
0
0
3
3
2
2
0
0
0
0
0
0
0
0
0
0
0
0
0
0
0
0
0
0
0
0
3
3
2
2
0
0
0
0
0
0
0
0
0
0
0
0
0
0
0
0
0
0
0
0
3
3
2
2
3
3
2
2
3
3
2
2
3
3
2
2
3
3
2
2
3
3
2
2
3
3
2
2
3
3
2
2
3
3
2
2
3
3
2
2
3
3
2
2
3
3
2
2
3
3
2
2
3
3
2
2
3
3
2
2
3
3
2
2
3
3
2
2
3
3
2
2
3
3
2
2
3
3
2
2
3
3
2
2
3
3
2
2
3
3
2
2
3
3
2
2
3
3
2
2
3
3
2
2
3
3
2
2
3
3
2
2
3
3
2
2
3
3
2
2
3
3
2
2
2
2
2
2
2
2
2
2
2
2
2
2
2
2
2
2
2
2
2
2
2
2
2
2
3
3
2
2
2
2
2
2
2
2
2
2
2
2
2
2
2
2
2
2
2
2
2
2
2
2
2
2
3
3
3
3
3
3
3
3
3
3
3
3
3
3
3
3
3
3
3
3
3
3
3
3
3
3
2
2
3
3
3
3
3
3
3
3
3
3
3
3
3
3
3
3
3
3
3
3
3
3
3
3
3
3
2
2
</DataArray>
<DataArray NumberOfComponents='1' type='Float32' Name='Velocity' format='ascii'>
0.000000
0.000000
0.000000
0.000000
0.000000
0.000000
0.000000
0.000000
0.000000
0.000000
0.000000
0.000000
0.000000
0.000000
0.000000
0.000000
0.000000
0.000000
0.000000
0.000000
0.000000
0.000000
0.000000
0.000000
0.000000
0.000000
0.000000
0.000000
0.000000
0.000000
0.000000
0.000000
0.000000
0.000000
0.000000
0.000000
0.000000
0.000000
0.000000
0.000000
0.000000
0.000000
0.000000
0.000000
0.000000
0.000000
0.000000
0.000000
0.000000
0.000000
0.000000
0.000000
0.000000
0.000000
0.000000
0.000000
0.000000
0.000000
0.000000
0.000000
0.000000
0.000000
0.000000
0.000000
0.000000
0.000000
0.000000
0.000000
0.000000
0.000000
0.000000
0.000000
0.000000
0.000000
0.000000
0.000000
0.000000
0.000000
0.000000
0.000000
0.000000
0.000000
0.000000
0.000000
0.000000
0.000000
0.000000
0.000000
0.000000
0.000000
0.000000
0.000000
0.000000
0.000000
0.000000
0.000000
0.000000
0.000000
0.000000
0.000000
0.000000
0.000000
0.000000
0.000000
0.000000
0.000000
0.000000
0.000000
0.000000
0.000000
0.000000
0.000000
0.000000
0.000000
0.000000
0.000000
0.359846
0.305493
0.523917
0.338940
0.316262
0.460055
0.198755
0.498019
0.315307
0.684015
0.353920
0.649481
0.297040
0.614919
0.097401
0.211384
0.213797
0.161898
0.207299
0.537463
0.000000
0.000000
0.000000
0.000000
0.402874
0.582413
0.364441
0.232570
0.321788
0.094989
0.215225
0.268349
0.372740
0.445113
0.627980
0.415268
0.904680
0.779536
0.580339
0.274191
0.229303
0.428736
0.445775
0.107532
0.000000
0.000000
0.000000
0.000000
0.681423
0.347811
0.572477
0.414278
0.398798
0.732353
0.614134
0.271411
0.188716
0.343463
0.158467
0.180955
0.474386
0.163062
0.490517
0.470520
0.250437
0.248325
0.497510
0.589630
0.000000
0.000000
0.000000
0.000000
0.336082
0.491304
0.563118
0.100873
0.163537
0.117239
0.211250
0.531704
0.200418
0.065917
0.017422
0.299353
0.175840
0.336699
0.615167
0.295635
0.475614
0.189644
0.436503
0.013640
0.000000
0.000000
0.000000
0.000000
0.197663
0.442647
0.035505
0.173918
0.197117
0.171465
0.544043
0.373946
0.289489
0.156021
0.269684
0.228040
0.180730
0.072798
0.363153
0.303258
0.238579
0.281823
0.139644
0.474229
0.000000
0.000000
0.000000
0.000000
0.298152
0.143814
0.278551
0.773460
0.119569
0.269219
0.068160
0.523086
0.135038
0.311603
0.113567
0.320089
0.288944
0.095065
0.034508
0.267188
0.211901
0.436423
0.343659
0.431388
0.000000
0.000000
0.000000
0.000000
0.267377
0.188541
0.123634
0.144798
0.192807
0.434849
0.276672
0.381759
0.376280
0.206083
0.124834
0.243069
0.335320
0.084564
0.055632
0.309239
0.237189
0.400065
0.407074
0.220571
0.000000
0.000000
0.000000
0.000000
0.120876
0.302837
0.213018
0.119368
0.329599
0.740624
0.172307
0.048596
0.340363
0.752313
0.102646
0.281444
0.085584
0.472722
0.325037
0.504661
0.061228
0.564653
0.084018
0.298814
0.000000
0.000000
0.000000
0.000000
0.407513
0.239419
0.175922
0.866127
0.391299
0.182151
0.652671
0.239724
0.277261
0.749207
0.108090
1.925604
0.327359
0.539750
0.451706
0.368066
0.258601
0.140531
0.248853
0.347071
0.000000
0.000000
0.000000
0.000000
0.147849
0.416151
0.196218
0.371280
0.448721
0.383153
0.300667
0.312818
0.420454
0.300532
0.596209
0.648377
0.186246
0.370392
0.396621
0.709219
0.422611
0.161342
0.170745
0.256579
0.000000
0.000000
0.000000
0.000000
0.000000
0.000000
0.000000
0.000000
0.000000
0.000000
0.000000
0.000000
0.000000
0.000000
0.000000
0.000000
0.000000
0.000000
0.000000
0.000000
0.000000
0.000000
0.000000
0.000000
0.000000
0.000000
0.000000
0.000000
0.000000
0.000000
0.000000
0.000000
0.000000
0.000000
0.000000
0.000000
0.000000
0.000000
0.000000
0.000000
0.000000
0.000000
0.000000
0.000000
0.000000
0.000000
0.000000
0.000000
0.000000
0.000000
0.000000
0.000000
0.000000
0.000000
0.000000
0.000000
0.000000
0.000000
0.000000
0.000000
0.000000
0.000000
0.000000
0.000000
0.000000
0.000000
0.000000
0.000000
0.000000
0.000000
0.000000
0.000000
0.000000
0.000000
0.000000
0.000000
0.000000
0.000000
0.000000
0.000000
0.000000
0.000000
0.000000
0.000000
0.000000
0.000000
0.000000
0.000000
0.000000
0.000000
0.000000
0.000000
0.000000
0.000000
0.000000
0.000000
0.000000
0.000000
0.000000
0.000000
0.000000
0.000000
0.000000
0.000000
0.000000
0.000000
0.000000
0.000000
0.000000
0.000000
0.000000
0.000000
0.000000
0.000000
0.000000
0.000000
0.000000
0.000000
0.000000
0.000000
0.000000
0.000000
0.000000
0.000000
0.000000
0.000000
0.000000
0.000000
0.000000
0.000000
0.000000
0.000000
0.000000
0.000000
0.000000
0.000000
0.000000
0.000000
0.000000
0.000000
0.000000
0.000000
0.000000
0.000000
0.000000
0.000000
0.000000
0.000000
0.000000
0.000000
0.000000
0.000000
0.000000
0.000000
0.000000
0.000000
0.000000
0.000000
0.000000
0.000000
0.000000
0.000000
0.000000
0.000000
0.000000
0.000000
0.000000
0.000000
0.000000
0.000000
0.000000
0.000000
0.000000
0.000000
0.000000
0.000000
0.000000
0.000000
0.000000
0.000000
0.000000
0.000000
0.000000
0.000000
0.000000
0.000000
0.000000
0.000000
0.000000
0.000000
0.000000
0.000000
0.000000
0.000000
0.000000
0.000000
0.000000
0.000000
0.000000
0.000000
0.000000
0.000000
0.000000
0.000000
0.000000
0.000000
0.000000
0.000000
0.000000
0.000000
0.000000
0.000000
0.000000
0.000000
0.000000
0.000000
0.000000
0.000000
0.000000
0.000000
0.000000
0.000000
0.000000
0.000000
0.000000
0.000000
0.000000
0.000000
0.000000
0.000000
0.000000
0.000000
</DataArray>
<DataArray NumberOfComponents='1' type='Float32' Name='pressure' format='ascii'>
0.000000
0.000000
0.000000
0.000000
0.000000
0.000000
0.000000
0.000000
0.000000
0.000000
0.000000
0.000000
0.000000
0.000000
0.000000
0.000000
0.000000
0.000000
0.000000
0.000000
0.000000
0.000000
0.000000
0.000000
0.000000
0.000000
0.000000
0.000000
0.000000
0.000000
0.000000
0.000000
0.000000
0.000000
0.000000
0.000000
0.000000
0.000000
0.000000
0.000000
0.000000
0.000000
0.000000
0.000000
0.000000
0.000000
0.000000
0.000000
0.000000
0.000000
0.000000
0.000000
0.000000
0.000000
0.000000
0.000000
0.000000
0.000000
828.561951
390.702332
0.000000
0.000000
649.739075
1223.727051
0.000000
1220.668945
551.031555
0.000000
0.000000
0.000000
0.000000
0.000000
0.000000
0.000000
0.000000
0.000000
0.000000
0.000000
0.000000
0.000000
0.000000
0.000000
0.000000
0.000000
0.000000
0.000000
1251.075928
926.919495
0.000000
0.000000
1273.411011
0.000000
0.000000
0.000000
0.000000
0.000000
0.000000
0.000000
0.000000
0.000000
0.000000
0.000000
0.000000
0.000000
0.000000
0.000000
0.000000
0.000000
0.000000
0.000000
0.000000
0.000000
0.000000
0.000000
2481.041504
2385.424316
1010.933899
59.502274
1553.999756
2039.749146
2086.185791
2053.419922
1673.209961
947.290283
581.123535
0.000000
1713.661743
712.729919
586.336304
1977.121826
0.000000
1233.489746
0.000000
587.083191
0.000000
1908.597656
0.000000
0.000000
2498.421387
1169.133301
0.000000
304.048096
0.000000
1574.933228
1553.432129
387.499420
1517.370728
540.578552
0.000000
0.000000
1597.985962
0.000000
0.000000
0.000000
833.920532
689.479065
1343.549194
1540.332642
0.000000
892.051819
0.000000
0.000000
2835.729492
1795.989990
540.413940
259.514923
853.736450
231.328842
0.000000
0.000000
0.000000
0.000000
1383.629517
0.000000
0.000000
0.000000
1329.989624
0.000000
0.000000
2242.770996
1983.094971
360.132599
1133.568970
2820.710205
0.000000
0.000000
2767.354980
2099.461426
0.000000
0.000000
619.482361
446.616364
1606.842285
168.547455
0.000000
1146.119507
2313.433594
231.977829
1167.305054
0.000000
0.000000
1905.960449
0.000000
2399.058838
392.889130
1795.148560
1396.605469
0.000000
0.000000
0.000000
2559.812500
1006.777649
81.948235
0.000000
0.000000
1328.746704
56.643585
0.000000
0.000000
0.000000
0.000000
0.000000
0.000000
972.629272
0.000000
0.000000
1138.386597
0.000000
0.000000
531.701111
0.000000
0.000000
0.000000
0.000000
3357.814697
2013.636475
2738.400879
0.000000
358.909576
2039.205078
143.300552
2168.152344
0.000000
0.000000
0.000000
0.000000
0.000000
0.000000
0.000000
0.000000
237.917572
229.704941
1215.156982
138.727814
0.000000
0.000000
0.000000
0.000000
4032.784912
3342.306396
1383.287720
0.000000
117.030708
0.000000
540.903198
0.000000
0.000000
1432.656006
106.477364
0.000000
89.653488
0.000000
0.000000
0.000000
0.000000
1218.607666
0.000000
72.431686
527.234497
0.000000
0.000000
0.000000
3006.896729
2380.289062
591.896423
2506.050781
593.669617
0.000000
132.632507
0.000000
0.000000
0.000000
0.000000
0.000000
450.819489
0.000000
1465.585571
0.000000
425.710693
3075.462891
0.000000
0.000000
460.878448
0.000000
0.000000
0.000000
2640.438965
1994.311890
744.297485
0.000000
0.000000
0.000000
0.000000
0.000000
0.000000
0.000000
165.264389
1190.681030
0.000000
0.000000
894.017578
0.000000
887.176880
0.000000
0.000000
1430.082764
1116.012085
1759.966675
0.000000
0.000000
2237.924561
2114.860840
299.240631
0.000000
0.000000
1305.440918
1069.686157
0.000000
0.000000
0.000000
0.000000
844.624939
0.000000
279.566895
1651.093384
0.000000
353.166351
1107.745972
0.000000
812.026367
0.000000
0.000000
0.000000
0.000000
2079.351318
2100.441650
0.000000
0.000000
2146.814941
1035.105103
0.000000
0.000000
2749.592529
2980.492676
0.000000
0.000000
1713.086060
528.880859
0.000000
0.000000
954.701904
0.000000
0.000000
0.000000
2353.126953
2973.958252
0.000000
0.000000
1416.415405
618.853210
0.000000
0.000000
234.137711
0.000000
0.000000
0.000000
1805.323120
1395.588867
0.000000
0.000000
111.448441
0.000000
0.000000
0.000000
1545.880249
1800.700562
0.000000
0.000000
884.477112
738.554688
0.000000
0.000000
301.128967
859.640991
0.000000
0.000000
1120.777222
1047.806030
0.000000
0.000000
0.000000
0.000000
0.000000
0.000000
965.348755
809.784607
0.000000
0.000000
1033.121094
712.682800
0.000000
0.000000
1672.228027
472.229370
0.000000
0.000000
1727.539551
1116.742676
0.000000
0.000000
11.982066
0.000000
0.000000
0.000000
494.600708
92.924431
0.000000
0.000000
0.000000
0.000000
0.000000
0.000000
1017.037415
1236.403931
0.000000
0.000000
654.589783
1139.472534
0.000000
0.000000
0.000000
0.000000
0.000000
0.000000
0.000000
0.000000
0.000000
0.000000
0.000000
0.000000
0.000000
0.000000
0.000000
0.000000
0.000000
0.000000
0.000000
0.000000
0.000000
0.000000
514.526367
744.673706
0.000000
0.000000
0.000000
0.000000
0.000000
425.866394
0.000000
0.000000
0.000000
0.000000
0.000000
0.000000
0.000000
0.000000
0.000000
0.000000
0.000000
0.000000
0.000000
0.000000
0.000000
0.000000
0.000000
0.000000
0.000000
0.000000
0.000000
0.000000
0.000000
0.000000
0.000000
0.000000
0.000000
1504.192261
0.000000
0.000000
0.000000
0.000000
0.000000
0.000000
0.000000
0.000000
0.000000
0.000000
0.000000
0.000000
0.000000
0.000000
0.000000
0.000000
0.000000
0.000000
0.000000
0.000000
0.000000
0.000000
0.000000
0.000000
0.000000
0.000000
0.000000
0.000000
0.000000
0.000000
0.000000
0.000000
0.000000
0.000000
0.000000
0.000000
0.000000
0.000000
0.000000
0.000000
0.000000
0.000000
0.000000
0.000000
0.000000
0.000000
0.000000
0.000000
0.000000
0.000000
0.000000
0.000000
0.000000
0.000000
0.000000
0.000000
0.000000
0.000000
0.000000
0.000000
0.000000
0.000000
0.000000
0.000000
0.000000
0.000000
0.000000
0.000000
0.000000
0.000000
0.000000
0.000000
0.000000
0.000000
0.000000
0.000000
0.000000
0.000000
</DataArray>
</PointData>
<Cells>
<DataArray type='Int32' Name='connectivity' format='ascii'>
0
1
2
3
4
5
6
7
8
9
10
11
12
13
14
15
16
17
18
19
20
21
22
23
24
25
26
27
28
29
30
31
32
33
34
35
36
37
38
39
40
41
42
43
44
45
46
47
48
49
50
51
52
53
54
55
56
57
58
59
60
61
62
63
64
65
66
67
68
69
70
71
72
73
74
75
76
77
78
79
80
81
82
83
84
85
86
87
88
89
90
91
92
93
94
95
96
97
98
99
100
101
102
103
104
105
106
107
108
109
110
111
112
113
114
115
116
117
118
119
120
121
122
123
124
125
126
127
128
129
130
131
132
133
134
135
136
137
138
139
140
141
142
143
144
145
146
147
148
149
150
151
152
153
154
155
156
157
158
159
160
161
162
163
164
165
166
167
168
169
170
171
172
173
174
175
176
177
178
179
180
181
182
183
184
185
186
187
188
189
190
191
192
193
194
195
196
197
198
199
200
201
202
203
204
205
206
207
208
209
210
211
212
213
214
215
216
217
218
219
220
221
222
223
224
225
226
227
228
229
230
231
232
233
234
235
236
237
238
239
240
241
242
243
244
245
246
247
248
249
250
251
252
253
254
255
256
257
258
259
260
261
262
263
264
265
266
267
268
269
270
271
272
273
274
275
276
277
278
279
280
281
282
283
284
285
286
287
288
289
290
291
292
293
294
295
296
297
298
299
300
301
302
303
304
305
306
307
308
309
310
311
312
313
314
315
316
317
318
319
320
321
322
323
324
325
326