<?xml version='1.0' encoding='UTF-8'?>
<VTKFile xmlns='VTK' byte_order='LittleEndian' version='0.1' type='UnstructuredGrid'>
<UnstructuredGrid>
<Piece NumberOfCells='584' NumberOfPoints='584'>
<Points>
<DataArray NumberOfComponents='3' type='Float32' Name='Position' format='ascii'>
-0.075000 -0.075000 0.000000
-0.075000 -0.050000 0.000000
-0.075000 -0.025000 0.000000
-0.075000 0.000000 0.000000
-0.075000 0.025000 0.000000
-0.075000 0.050000 0.000000
-0.075000 0.075000 0.000000
-0.075000 0.100000 0.000000
-0.075000 0.125000 0.000000
-0.075000 0.150000 0.000000
-0.075000 0.175000 0.000000
-0.075000 0.200000 0.000000
-0.075000 0.225000 0.000000
-0.075000 0.250000 0.000000
-0.075000 0.275000 0.000000
-0.075000 0.300000 0.000000
-0.075000 0.325000 0.000000
-0.075000 0.350000 0.000000
-0.075000 0.375000 0.000000
-0.075000 0.400000 0.000000
-0.075000 0.425000 0.000000
-0.075000 0.450000 0.000000
-0.075000 0.475000 0.000000
-0.075000 0.500000 0.000000
-0.075000 0.525000 0.000000
-0.075000 0.550000 0.000000
-0.075000 0.575000 0.000000
-0.075000 0.600000 0.000000
-0.050000 -0.075000 0.000000
-0.050000 -0.050000 0.000000
-0.050000 -0.025000 0.000000
-0.050000 0.000000 0.000000
-0.050000 0.025000 0.000000
-0.050000 0.050000 0.000000
-0.050000 0.075000 0.000000
-0.050000 0.100000 0.000000
-0.050000 0.125000 0.000000
-0.050000 0.150000 0.000000
-0.050000 0.175000 0.000000
-0.050000 0.200000 0.000000
-0.050000 0.225000 0.000000
-0.050000 0.250000 0.000000
-0.050000 0.275000 0.000000
-0.050000 0.300000 0.000000
-0.050000 0.325000 0.000000
-0.050000 0.350000 0.000000
-0.050000 0.375000 0.000000
-0.050000 0.400000 0.000000
-0.050000 0.425000 0.000000
-0.050000 0.450000 0.000000
-0.050000 0.475000 0.000000
-0.050000 0.500000 0.000000
-0.050000 0.525000 0.000000
-0.050000 0.550000 0.000000
-0.050000 0.575000 0.000000
-0.050000 0.600000 0.000000
-0.025000 -0.075000 0.000000
-0.025000 -0.050000 0.000000
-0.025000 -0.025000 0.000000
-0.025000 0.000000 0.000000
-0.025000 0.025000 0.000000
-0.025000 0.050000 0.000000
-0.025000 0.075000 0.000000
-0.025000 0.100000 0.000000
-0.025000 0.125000 0.000000
-0.025000 0.150000 0.000000
-0.025000 0.175000 0.000000
-0.025000 0.200000 0.000000
-0.025000 0.225000 0.000000
-0.025000 0.250000 0.000000
-0.025000 0.275000 0.000000
-0.025000 0.300000 0.000000
-0.025000 0.325000 0.000000
-0.025000 0.350000 0.000000
-0.025000 0.375000 0.000000
-0.025000 0.400000 0.000000
-0.025000 0.425000 0.000000
-0.025000 0.450000 0.000000
-0.025000 0.475000 0.000000
-0.025000 0.500000 0.000000
-0.025000 0.525000 0.000000
-0.025000 0.550000 0.000000
-0.025000 0.575000 0.000000
-0.025000 0.600000 0.000000
0.000000 -0.075000 0.000000
0.000000 -0.050000 0.000000
0.000000 -0.025000 0.000000
0.000000 0.000000 0.000000
0.000000 0.025000 0.000000
0.000000 0.050000 0.000000
0.000000 0.075000 0.000000
0.000000 0.100000 0.000000
0.000000 0.125000 0.000000
0.000000 0.150000 0.000000
0.000000 0.175000 0.000000
0.000000 0.200000 0.000000
0.000000 0.225000 0.000000
0.000000 0.250000 0.000000
0.000000 0.275000 0.000000
0.000000 0.300000 0.000000
0.000000 0.325000 0.000000
0.000000 0.350000 0.000000
0.000000 0.375000 0.000000
0.000000 0.400000 0.000000
0.000000 0.425000 0.000000
0.000000 0.450000 0.000000
0.000000 0.475000 0.000000
0.000000 0.500000 0.000000
0.000000 0.525000 0.000000
0.000000 0.550000 0.000000
0.000000 0.575000 0.000000
0.000000 0.600000 0.000000
0.025000 -0.075000 0.000000
0.025000 -0.050000 0.000000
0.025000 -0.025000 0.000000
0.025000 0.000000 0.000000
0.248092 0.026673 0.000000
0.219916 0.022463 0.000000
0.200758 0.032879 0.000000
0.142086 0.025655 0.000000
0.342294 0.032175 0.000000
0.066729 0.024071 0.000000
0.426491 0.021935 0.000000
0.271518 0.021850 0.000000
0.170840 0.020576 0.000000
0.147962 0.054443 0.000000
0.221407 0.050589 0.000000
0.168725 0.046739 0.000000
0.121695 0.026182 0.000000
0.036307 0.021372 0.000000
0.020070 0.038427 0.000000
0.029819 0.070769 0.000000
0.094116 0.023281 0.000000
0.074385 0.047839 0.000000
0.058776 0.061872 0.000000
0.103684 0.045556 0.000000
0.050000 -0.075000 0.000000
0.050000 -0.050000 0.000000
0.050000 -0.025000 0.000000
0.050000 0.000000 0.000000
0.299107 0.036374 0.000000
0.451049 0.069770 0.000000
0.577148 0.043775 0.000000
0.530881 0.051795 0.000000
0.561195 0.071503 0.000000
0.607103 0.051085 0.000000
0.470358 0.039876 0.000000
0.720089 0.081956 0.000000
0.364183 0.026980 0.000000
0.358663 0.064328 0.000000
0.499015 0.066116 0.000000
0.408846 0.071597 0.000000
0.051010 0.046749 0.000000
0.401331 0.024239 0.000000
0.213986 0.063302 0.000000
0.255253 0.045804 0.000000
0.161275 0.064797 0.000000
0.255751 0.072145 0.000000
0.106903 0.067906 0.000000
0.118772 0.061002 0.000000
0.075000 -0.075000 0.000000
0.075000 -0.050000 0.000000
0.075000 -0.025000 0.000000
0.075000 0.000000 0.000000
0.317211 0.019386 0.000000
0.495155 0.044502 0.000000
0.510407 0.021334 0.000000
0.467809 0.019649 0.000000
0.773134 0.063449 0.000000
0.803137 0.027613 0.000000
0.823085 0.022995 0.000000
0.617409 0.062056 0.000000
0.753610 0.038717 0.000000
0.730181 0.021280 0.000000
0.553003 0.024376 0.000000
0.425900 0.053939 0.000000
0.406289 0.047191 0.000000
0.330849 0.074132 0.000000
0.305742 0.055029 0.000000
0.268399 0.066380 0.000000
0.285317 0.052517 0.000000
0.444903 0.048263 0.000000
0.371729 0.070001 0.000000
0.191493 0.054717 0.000000
0.100000 -0.075000 0.000000
0.100000 -0.050000 0.000000
0.100000 -0.025000 0.000000
0.100000 0.000000 0.000000
0.584686 0.023427 0.000000
0.534704 0.029902 0.000000
0.772618 0.022032 0.000000
0.916577 0.028075 0.000000
0.380000 0.037129 0.000000
0.880701 0.024841 0.000000
0.919129 0.076094 0.000000
0.850201 0.087492 0.000000
0.847135 0.025565 0.000000
0.862918 0.040030 0.000000
0.605925 0.031642 0.000000
0.640821 0.019829 0.000000
0.758307 0.068914 0.000000
0.783741 0.043526 0.000000
0.656305 0.062563 0.000000
0.339357 0.053622 0.000000
0.696705 0.042943 0.000000
0.733374 0.076850 0.000000
0.514654 0.063462 0.000000
0.472988 0.064177 0.000000
0.125000 -0.075000 0.000000
0.125000 -0.050000 0.000000
0.125000 -0.025000 0.000000
0.125000 0.000000 0.000000
0.934468 0.060247 0.000000
0.882852 0.085396 0.000000
1.001382 0.154647 0.000000
0.961052 0.029286 0.000000
0.983794 0.210045 0.000000
0.660818 0.037408 0.000000
0.909913 0.133610 0.000000
0.963544 0.177426 0.000000
0.933324 0.100551 0.000000
0.903364 0.088685 0.000000
0.938429 0.144052 0.000000
0.908625 0.164350 0.000000
0.848310 0.120679 0.000000
0.710951 0.059715 0.000000
0.638457 0.046941 0.000000
0.716809 0.040267 0.000000
0.907730 0.117644 0.000000
0.573445 0.118518 0.000000
0.815169 0.068754 0.000000
0.569019 0.061516 0.000000
0.150000 -0.075000 0.000000
0.150000 -0.050000 0.000000
0.150000 -0.025000 0.000000
0.150000 0.000000 0.000000
0.909636 0.208479 0.000000
1.000846 0.104022 0.000000
0.972314 0.300861 0.000000
0.850920 0.295405 0.000000
1.000946 0.084462 0.000000
0.863507 0.336114 0.000000
0.965622 0.121784 0.000000
0.874161 0.168816 0.000000
0.986986 0.123259 0.000000
0.958375 0.210612 0.000000
0.982575 0.048804 0.000000
0.897933 0.033879 0.000000
0.936834 0.023266 0.000000
0.953541 0.049638 0.000000
0.895099 0.061004 0.000000
0.830666 0.076182 0.000000
0.803392 0.058581 0.000000
0.862281 0.064867 0.000000
0.840146 0.053147 0.000000
0.689420 0.018696 0.000000
0.175000 -0.075000 0.000000
0.175000 -0.050000 0.000000
0.175000 -0.025000 0.000000
0.175000 0.000000 0.000000
0.572814 0.200851 0.000000
0.999858 0.172007 0.000000
0.997107 0.262437 0.000000
1.007672 0.216247 0.000000
0.981218 0.189851 0.000000
0.903886 0.310246 0.000000
0.987232 0.020288 0.000000
0.933280 0.233397 0.000000
0.886776 0.232408 0.000000
1.005651 0.039487 0.000000
0.939359 0.250798 0.000000
0.981879 0.235602 0.000000
0.827725 0.142633 0.000000
0.976515 0.141761 0.000000
0.948073 0.110852 0.000000
0.907502 0.229848 0.000000
0.970776 0.088897 0.000000
0.929019 0.161761 0.000000
0.882231 0.120758 0.000000
0.928565 0.185149 0.000000
0.200000 -0.075000 0.000000
0.200000 -0.050000 0.000000
0.200000 -0.025000 0.000000
0.200000 0.000000 0.000000
0.831340 0.729882 0.000000
0.897435 0.264491 0.000000
0.892532 0.404783 0.000000
0.997232 0.313731 0.000000
0.895308 0.338057 0.000000
0.923161 0.361254 0.000000
0.959409 0.416235 0.000000
0.973622 0.362245 0.000000
0.936433 0.302119 0.000000
0.831730 0.220624 0.000000
0.999858 0.348570 0.000000
0.982087 0.068275 0.000000
0.767311 0.189614 0.000000
0.868078 0.212404 0.000000
0.934958 0.201585 0.000000
0.910791 0.256223 0.000000
0.974534 0.278653 0.000000
0.887614 0.188989 0.000000
0.957695 0.158070 0.000000
0.949648 0.077914 0.000000
0.225000 -0.075000 0.000000
0.225000 -0.050000 0.000000
0.225000 -0.025000 0.000000
0.225000 0.000000 0.000000
0.901968 0.396259 0.000000
0.956295 1.301802 0.000000
0.939465 0.335116 0.000000
0.794301 0.222221 0.000000
0.594932 0.206887 0.000000
0.792410 0.304056 0.000000
0.925530 0.404652 0.000000
0.996502 0.421966 0.000000
0.953788 0.368414 0.000000
0.877142 0.347402 0.000000
0.985820 0.369485 0.000000
0.837158 0.322111 0.000000
0.613542 0.142525 0.000000
0.787870 0.109868 0.000000
0.888865 0.320181 0.000000
0.920257 0.314806 0.000000
0.810030 0.203689 0.000000
0.855279 0.213457 0.000000
0.866902 0.181850 0.000000
0.874716 0.139222 0.000000
0.250000 -0.075000 0.000000
0.250000 -0.050000 0.000000
0.250000 -0.025000 0.000000
0.250000 0.000000 0.000000
0.961315 1.029016 0.000000
0.806830 0.952529 0.000000
0.801834 0.425847 0.000000
0.878279 0.469506 0.000000
0.677738 1.073708 0.000000
0.908249 0.556166 0.000000
0.697661 0.904519 0.000000
0.779167 0.745688 0.000000
0.637507 0.322824 0.000000
0.940368 0.378587 0.000000
0.751829 0.147531 0.000000
0.812248 0.305144 0.000000
0.872629 0.365188 0.000000
0.672078 0.053433 0.000000
0.826500 0.261780 0.000000
0.864079 0.098511 0.000000
0.692328 0.273441 0.000000
0.959476 0.233569 0.000000
0.822640 0.239661 0.000000
0.981447 0.256921 0.000000
0.275000 -0.075000 0.000000
0.275000 -0.050000 0.000000
0.275000 -0.025000 0.000000
0.275000 0.000000 0.000000
0.300000 -0.075000 0.000000
0.300000 -0.050000 0.000000
0.300000 -0.025000 0.000000
0.300000 0.000000 0.000000
0.325000 -0.075000 0.000000
0.325000 -0.050000 0.000000
0.325000 -0.025000 0.000000
0.325000 0.000000 0.000000
0.350000 -0.075000 0.000000
0.350000 -0.050000 0.000000
0.350000 -0.025000 0.000000
0.350000 0.000000 0.000000
0.375000 -0.075000 0.000000
0.375000 -0.050000 0.000000
0.375000 -0.025000 0.000000
0.375000 0.000000 0.000000
0.400000 -0.075000 0.000000
0.400000 -0.050000 0.000000
0.400000 -0.025000 0.000000
0.400000 0.000000 0.000000
0.425000 -0.075000 0.000000
0.425000 -0.050000 0.000000
0.425000 -0.025000 0.000000
0.425000 0.000000 0.000000
0.450000 -0.075000 0.000000
0.450000 -0.050000 0.000000
0.450000 -0.025000 0.000000
0.450000 0.000000 0.000000
0.475000 -0.075000 0.000000
0.475000 -0.050000 0.000000
0.475000 -0.025000 0.000000
0.475000 0.000000 0.000000
0.500000 -0.075000 0.000000
0.500000 -0.050000 0.000000
0.500000 -0.025000 0.000000
0.500000 0.000000 0.000000
0.525000 -0.075000 0.000000
0.525000 -0.050000 0.000000
0.525000 -0.025000 0.000000
0.525000 0.000000 0.000000
0.550000 -0.075000 0.000000
0.550000 -0.050000 0.000000
0.550000 -0.025000 0.000000
0.550000 0.000000 0.000000
0.575000 -0.075000 0.000000
0.575000 -0.050000 0.000000
0.575000 -0.025000 0.000000
0.575000 0.000000 0.000000
0.600000 -0.075000 0.000000
0.600000 -0.050000 0.000000
0.600000 -0.025000 0.000000
0.600000 0.000000 0.000000
0.625000 -0.075000 0.000000
0.625000 -0.050000 0.000000
0.625000 -0.025000 0.000000
0.625000 0.000000 0.000000
0.650000 -0.075000 0.000000
0.650000 -0.050000 0.000000
0.650000 -0.025000 0.000000
0.650000 0.000000 0.000000
0.675000 -0.075000 0.000000
0.675000 -0.050000 0.000000
0.675000 -0.025000 0.000000
0.675000 0.000000 0.000000
0.700000 -0.075000 0.000000
0.700000 -0.050000 0.000000
0.700000 -0.025000 0.000000
0.700000 0.000000 0.000000
0.725000 -0.075000 0.000000
0.725000 -0.050000 0.000000
0.725000 -0.025000 0.000000
0.725000 0.000000 0.000000
0.750000 -0.075000 0.000000
0.750000 -0.050000 0.000000
0.750000 -0.025000 0.000000
0.750000 0.000000 0.000000
0.775000 -0.075000 0.000000
0.775000 -0.050000 0.000000
0.775000 -0.025000 0.000000
0.775000 0.000000 0.000000
0.800000 -0.075000 0.000000
0.800000 -0.050000 0.000000
0.800000 -0.025000 0.000000
0.800000 0.000000 0.000000
0.825000 -0.075000 0.000000
0.825000 -0.050000 0.000000
0.825000 -0.025000 0.000000
0.825000 0.000000 0.000000
0.850000 -0.075000 0.000000
0.850000 -0.050000 0.000000
0.850000 -0.025000 0.000000
0.850000 0.000000 0.000000
0.875000 -0.075000 0.000000
0.875000 -0.050000 0.000000
0.875000 -0.025000 0.000000
0.875000 0.000000 0.000000
0.900000 -0.075000 0.000000
0.900000 -0.050000 0.000000
0.900000 -0.025000 0.000000
0.900000 0.000000 0.000000
0.925000 -0.075000 0.000000
0.925000 -0.050000 0.000000
0.925000 -0.025000 0.000000
0.925000 0.000000 0.000000
0.950000 -0.075000 0.000000
0.950000 -0.050000 0.000000
0.950000 -0.025000 0.000000
0.950000 0.000000 0.000000
0.975000 -0.075000 0.000000
0.975000 -0.050000 0.000000
0.975000 -0.025000 0.000000
0.975000 0.000000 0.000000
1.000000 -0.075000 0.000000
1.000000 -0.050000 0.000000
1.000000 -0.025000 0.000000
1.000000 0.000000 0.000000
1.025000 -0.075000 0.000000
1.025000 -0.050000 0.000000
1.025000 -0.025000 0.000000
1.025000 0.000000 0.000000
1.025000 0.025000 0.000000
1.025000 0.050000 0.000000
1.025000 0.075000 0.000000
1.025000 0.100000 0.000000
1.025000 0.125000 0.000000
1.025000 0.150000 0.000000
1.025000 0.175000 0.000000
1.025000 0.200000 0.000000
1.025000 0.225000 0.000000
1.025000 0.250000 0.000000
1.025000 0.275000 0.000000
1.025000 0.300000 0.000000
1.025000 0.325000 0.000000
1.025000 0.350000 0.000000
1.025000 0.375000 0.000000
1.025000 0.400000 0.000000
1.025000 0.425000 0.000000
1.025000 0.450000 0.000000
1.025000 0.475000 0.000000
1.025000 0.500000 0.000000
1.025000 0.525000 0.000000
1.025000 0.550000 0.000000
1.025000 0.575000 0.000000
1.025000 0.600000 0.000000
1.050000 -0.075000 0.000000
1.050000 -0.050000 0.000000
1.050000 -0.025000 0.000000
1.050000 0.000000 0.000000
1.050000 0.025000 0.000000
1.050000 0.050000 0.000000
1.050000 0.075000 0.000000
1.050000 0.100000 0.000000
1.050000 0.125000 0.000000
1.050000 0.150000 0.000000
1.050000 0.175000 0.000000
1.050000 0.200000 0.000000
1.050000 0.225000 0.000000
1.050000 0.250000 0.000000
1.050000 0.275000 0.000000
1.050000 0.300000 0.000000
1.050000 0.325000 0.000000
1.050000 0.350000 0.000000
1.050000 0.375000 0.000000
1.050000 0.400000 0.000000
1.050000 0.425000 0.000000
1.050000 0.450000 0.000000
1.050000 0.475000 0.000000
1.050000 0.500000 0.000000
1.050000 0.525000 0.000000
1.050000 0.550000 0.000000
1.050000 0.575000 0.000000
1.050000 0.600000 0.000000
1.075000 -0.075000 0.000000
1.075000 -0.050000 0.000000
1.075000 -0.025000 0.000000
1.075000 0.000000 0.000000
1.075000 0.025000 0.000000
1.075000 0.050000 0.000000
1.075000 0.075000 0.000000
1.075000 0.100000 0.000000
1.075000 0.125000 0.000000
1.075000 0.150000 0.000000
1.075000 0.175000 0.000000
1.075000 0.200000 0.000000
1.075000 0.225000 0.000000
1.075000 0.250000 0.000000
1.075000 0.275000 0.000000
1.075000 0.300000 0.000000
1.075000 0.325000 0.000000
1.075000 0.350000 0.000000
1.075000 0.375000 0.000000
1.075000 0.400000 0.000000
1.075000 0.425000 0.000000
1.075000 0.450000 0.000000
1.075000 0.475000 0.000000
1.075000 0.500000 0.000000
1.075000 0.525000 0.000000
1.075000 0.550000 0.000000
1.075000 0.575000 0.000000
1.075000 0.600000 0.000000
1.100000 -0.075000 0.000000
1.100000 -0.050000 0.000000
1.100000 -0.025000 0.000000
1.100000 0.000000 0.000000
1.100000 0.025000 0.000000
1.100000 0.050000 0.000000
1.100000 0.075000 0.000000
1.100000 0.100000 0.000000
1.100000 0.125000 0.000000
1.100000 0.150000 0.000000
1.100000 0.175000 0.000000
1.100000 0.200000 0.000000
1.100000 0.225000 0.000000
1.100000 0.250000 0.000000
1.100000 0.275000 0.000000
1.100000 0.300000 0.000000
1.100000 0.325000 0.000000
1.100000 0.350000 0.000000
1.100000 0.375000 0.000000
1.100000 0.400000 0.000000
1.100000 0.425000 0.000000
1.100000 0.450000 0.000000
1.100000 0.475000 0.000000
1.100000 0.500000 0.000000
1.100000 0.525000 0.000000
1.100000 0.550000 0.000000
1.100000 0.575000 0.000000
1.100000 0.600000 0.000000
</DataArray>
</Points>
<PointData>
<DataArray NumberOfComponents='1' type='Int32' Name='ParticleType' format='ascii'>
3
3
3
3
3
3
3
3
3
3
3
3
3
3
3
3
3
3
3
3
3
3
3
3
3
3
2
2
3
3
3
3
3
3
3
3
3
3
3
3
3
3
3
3
3
3
3
3
3
3
3
3
3
3
2
2
3
3
2
2
2
2
2
2
2
2
2
2
2
2
2
2
2
2
2
2
2
2
2
2
2
2
2
2
3
3
2
2
2
2
2
2
2
2
2
2
2
2
2
2
2
2
2
2
2
2
2
2
2
2
2
2
3
3
2
2
0
0
0
0
0
0
0
0
0
0
0
0
0
0
0
0
0
0
0
0
3
3
2
2
0
0
0
0
0
0
0
0
0
0
0
0
0
0
0
0
0
0
0
0
3
3
2
2
0
0
0
0
0
0
0
0
0
0
0
0
0
0
0
0
0
0
0
0
3
3
2
2
0
0
0
0
0
0
0
0
0
0
0
0
0
0
0
0
0
0
0
0
3
3
2
2
0
0
0
0
0
0
0
0
0
0
0
0
0
0
0
0
0
0
0
0
3
3
2
2
0
0
0
0
0
0
0
0
0
0
0
0
0
0
0
0
0
0
0
0
3
3
2
2
0
0
0
0
0
0
0
0
0
0
0
0
0
0
0
0
0
0
0
0
3
3
2
2
0
0
0
0
0
0
0
0
0
0
0
0
0
0
0
0
0
0
0
0
3
3
2
2
0
0
0
0
0
0
0
0
0
0
0
0
0
0
0
0
0
0
0
0
3
3
2
2
0
0
0
0
0
0
0
0
0
0
0
0
0
0
0
0
0
0
0
0
3
3
2
2
3
3
2
2
3
3
2
2
3
3
2
2
3
3
2
2
3
3
2
2
3
3
2
2
3
3
2
2
3
3
2
2
3
3
2
2
3
3
2
2
3
3
2
2
3
3
2
2
3
3
2
2
3
3
2
2
3
3
2
2
3
3
2
2
3
3
2
2
3
3
2
2
3
3
2
2
3
3
2
2
3
3
2
2
3
3
2
2
3
3
2
2
3
3
2
2
3
3
2
2
3
3
2
2
3
3
2
2
3
3
2
2
3
3
2
2
3
3
2
2
2
2
2
2
2
2
2
2
2
2
2
2
2
2
2
2
2
2
2
2
2
2
2
2
3
3
2
2
2
2
2
2
2
2
2
2
2
2
2
2
2
2
2
2
2
2
2
2
2
2
2
2
3
3
3
3
3
3
3
3
3
3
3
3
3
3
3
3
3
3
3
3
3
3
3
3
3
3
2
2
3
3
3
3
3
3
3
3
3
3
3
3
3
3
3
3
3
3
3
3
3
3
3
3
3
3
2
2
</DataArray>
<DataArray NumberOfComponents='1' type='Float32' Name='Velocity' format='ascii'>
0.000000
0.000000
0.000000
0.000000
0.000000
0.000000
0.000000
0.000000
0.000000
0.000000
0.000000
0.000000
0.000000
0.000000
0.000000
0.000000
0.000000
0.000000
0.000000
0.000000
0.000000
0.000000
0.000000
0.000000
0.000000
0.000000
0.000000
0.000000
0.000000
0.000000
0.000000
0.000000
0.000000
0.000000
0.000000
0.000000
0.000000
0.000000
0.000000
0.000000
0.000000
0.000000
0.000000
0.000000
0.000000
0.000000
0.000000
0.000000
0.000000
0.000000
0.000000
0.000000
0.000000
0.000000
0.000000
0.000000
0.000000
0.000000
0.000000
0.000000
0.000000
0.000000
0.000000
0.000000
0.000000
0.000000
0.000000
0.000000
0.000000
0.000000
0.000000
0.000000
0.000000
0.000000
0.000000
0.000000
0.000000
0.000000
0.000000
0.000000
0.000000
0.000000
0.000000
0.000000
0.000000
0.000000
0.000000
0.000000
0.000000
0.000000
0.000000
0.000000
0.000000
0.000000
0.000000
0.000000
0.000000
0.000000
0.000000
0.000000
0.000000
0.000000
0.000000
0.000000
0.000000
0.000000
0.000000
0.000000
0.000000
0.000000
0.000000
0.000000
0.000000
0.000000
0.000000
0.000000
0.113984
0.209347
0.245720
0.253278
0.470239
0.047649
0.463407
0.224991
0.410213
0.236497
0.439821
0.044737
0.593089
0.075870
0.097267
0.263735
0.140566
0.162513
0.227556
0.432330
0.000000
0.000000
0.000000
0.000000
0.310768
1.054837
0.939472
0.827536
0.979361
1.063292
1.024259
1.371417
0.407586
0.359018
0.902898
0.555072
0.078048
0.404324
0.369401
0.333812
0.316561
0.537880
0.137421
0.070164
0.000000
0.000000
0.000000
0.000000
0.181447
0.826426
0.885330
0.371127
1.186055
0.913303
0.736105
1.119663
0.204534
1.130895
0.537798
1.171992
0.109502
0.270787
0.619290
0.439556
0.475241
0.719811
0.627453
0.225878
0.000000
0.000000
0.000000
0.000000
0.891578
0.790584
0.557386
0.011428
0.509682
0.309716
0.451679
0.587601
0.860091
0.522819
1.062635
0.767730
1.628168
0.680277
1.011297
0.982895
1.122739
1.421604
0.778054
0.672392
0.000000
0.000000
0.000000
0.000000
0.412436
0.601733
0.250047
0.119607
0.192422
0.973190
0.851985
0.330628
0.509539
0.788445
0.363012
0.411877
0.953494
1.154845
0.840200
0.878957
0.953489
0.204761
0.871602
0.968244
0.000000
0.000000
0.000000
0.000000
0.969896
0.113335
0.811807
1.146374
0.072161
1.110559
0.319281
0.518774
0.331259
0.351358
0.223877
0.501779
0.268532
0.286232
0.672495
0.972661
0.910347
0.683107
0.997066
0.837742
0.000000
0.000000
0.000000
0.000000
2.032645
0.098615
0.285509
0.328348
0.145967
0.969577
0.274854
0.326587
0.487169
0.021167
0.271391
0.221478
0.915703
0.456087
0.145119
0.496535
0.747912
0.324468
0.645925
0.080807
0.000000
0.000000
0.000000
0.000000
0.964408
0.898691
1.025962
0.823471
0.974834
1.162187
0.793258
0.831838
0.859507
1.301734
0.771230
0.148154
1.799237
0.605556
0.302644
0.527923
0.383093
0.887753
0.093948
0.416018
0.000000
0.000000
0.000000
0.000000
0.909619
0.149304
0.857339
1.976216
1.850747
1.788751
1.356633
0.837382
0.914877
1.235094
0.927389
1.415755
2.067517
2.035062
1.033154
1.029572
1.414282
1.027423
0.672454
0.751008
0.000000
0.000000
0.000000
0.000000
0.608629
0.686234
1.521209
1.329531
0.812438
1.242082
0.908945
1.093554
1.923468
1.396356
1.965279
1.588320
1.216184
1.305125
1.561095
0.983640
1.584242
0.744246
0.656754
0.246448
0.000000
0.000000
0.000000
0.000000
0.000000
0.000000
0.000000
0.000000
0.000000
0.000000
0.000000
0.000000
0.000000
0.000000
0.000000
0.000000
0.000000
0.000000
0.000000
0.000000
0.000000
0.000000
0.000000
0.000000
0.000000
0.000000
0.000000
0.000000
0.000000
0.000000
0.000000
0.000000
0.000000
0.000000
0.000000
0.000000
0.000000
0.000000
0.000000
0.000000
0.000000
0.000000
0.000000
0.000000
0.000000
0.000000
0.000000
0.000000
0.000000
0.000000
0.000000
0.000000
0.000000
0.000000
0.000000
0.000000
0.000000
0.000000
0.000000
0.000000
0.000000
0.000000
0.000000
0.000000
0.000000
0.000000
0.000000
0.000000
0.000000
0.000000
0.000000
0.000000
0.000000
0.000000
0.000000
0.000000
0.000000
0.000000
0.000000
0.000000
0.000000
0.000000
0.000000
0.000000
0.000000
0.000000
0.000000
0.000000
0.000000
0.000000
0.000000
0.000000
0.000000
0.000000
0.000000
0.000000
0.000000
0.000000
0.000000
0.000000
0.000000
0.000000
0.000000
0.000000
0.000000
0.000000
0.000000
0.000000
0.000000
0.000000
0.000000
0.000000
0.000000
0.000000
0.000000
0.000000
0.000000
0.000000
0.000000
0.000000
0.000000
0.000000
0.000000
0.000000
0.000000
0.000000
0.000000
0.000000
0.000000
0.000000
0.000000
0.000000
0.000000
0.000000
0.000000
0.000000
0.000000
0.000000
0.000000
0.000000
0.000000
0.000000
0.000000
0.000000
0.000000
0.000000
0.000000
0.000000
0.000000
0.000000
0.000000
0.000000
0.000000
0.000000
0.000000
0.000000
0.000000
0.000000
0.000000
0.000000
0.000000
0.000000
0.000000
0.000000
0.000000
0.000000
0.000000
0.000000
0.000000
0.000000
0.000000
0.000000
0.000000
0.000000
0.000000
0.000000
0.000000
0.000000
0.000000
0.000000
0.000000
0.000000
0.000000
0.000000
0.000000
0.000000
0.000000
0.000000
0.000000
0.000000
0.000000
0.000000
0.000000
0.000000
0.000000
0.000000
0.000000
0.000000
0.000000
0.000000
0.000000
0.000000
0.000000
0.000000
0.000000
0.000000
0.000000
0.000000
0.000000
0.000000
0.000000
0.000000
0.000000
0.000000
0.000000
0.000000
0.000000
0.000000
0.000000
0.000000
0.000000
0.000000
0.000000
0.000000
0.000000
0.000000
0.000000
0.000000
0.000000
0.000000
0.000000
0.000000
</DataArray>
<DataArray NumberOfComponents='1' type='Float32' Name='pressure' format='ascii'>
0.000000
0.000000
0.000000
0.000000
0.000000
0.000000
0.000000
0.000000
0.000000
0.000000
0.000000
0.000000
0.000000
0.000000
0.000000
0.000000
0.000000
0.000000
0.000000
0.000000
0.000000
0.000000
0.000000
0.000000
0.000000
0.000000
0.000000
0.000000
0.000000
0.000000
0.000000
0.000000
0.000000
0.000000
0.000000
0.000000
0.000000
0.000000
0.000000
0.000000
0.000000
0.000000
0.000000
0.000000
0.000000
0.000000
0.000000
0.000000
0.000000
0.000000
0.000000
0.000000
0.000000
0.000000
0.000000
0.000000
0.000000
0.000000
1209.767944
1133.390137
1972.727051
1706.219238
0.000000
0.000000
0.000000
0.000000
0.000000
0.000000
0.000000
0.000000
0.000000
0.000000
0.000000
0.000000
0.000000
0.000000
0.000000
0.000000
0.000000
0.000000
0.000000
0.000000
0.000000
0.000000
0.000000
0.000000
1274.950806
702.706177
484.504333
0.000000
0.000000
0.000000
0.000000
0.000000
0.000000
0.000000
0.000000
0.000000
0.000000
0.000000
0.000000
0.000000
0.000000
0.000000
0.000000
0.000000
0.000000
0.000000
0.000000
0.000000
0.000000
0.000000
0.000000
0.000000
2230.981445
898.448914
300.040863
138.794785
116.344673
0.000000
0.000000
1588.207764
0.000000
0.000000
0.000000
0.000000
0.000000
449.998199
698.686462
267.824799
0.000000
0.000000
1227.789185
0.000000
0.000000
1264.664673
0.000000
0.000000
2480.023193
1265.628052
430.820984
0.000000
773.536499
0.000000
0.000000
1112.823853
0.000000
0.000000
0.000000
0.000000
0.000000
0.000000
172.032669
0.000000
0.000000
143.578964
0.000000
0.000000
0.000000
0.000000
0.000000
0.000000
2178.708252
1310.604980
0.000000
0.000000
0.000000
0.000000
0.000000
1188.436646
2357.314209
0.000000
0.000000
0.000000
0.000000
0.000000
0.000000
0.000000
0.000000
0.000000
0.000000
0.000000
0.000000
0.000000
0.000000
0.000000
2403.666504
2828.388184
1416.290405
584.474915
0.000000
2542.857422
0.000000
3863.287842
1977.575073
600.191833
1671.802612
2140.460205
416.253326
0.000000
0.000000
2540.473633
0.000000
0.000000
0.000000
0.000000
0.000000
0.000000
0.000000
0.000000
1446.447754
1749.525757
1131.527466
117.187119
0.000000
2676.095703
755.217163
615.355042
0.000000
0.000000
61.359154
2770.804932
0.000000
0.000000
0.000000
0.000000
0.000000
834.620117
127.665764
0.000000
1656.870361
0.000000
0.000000
0.000000
2081.549316
1677.867310
0.000000
534.932922
0.000000
0.000000
1346.036743
0.000000
2010.588013
0.000000
0.000000
0.000000
1183.213989
2161.582031
2241.110352
2230.116943
0.000000
0.000000
256.662872
1062.715698
561.862854
0.000000
0.000000
0.000000
2969.864746
1690.462769
0.000000
336.382507
0.000000
0.000000
0.000000
0.000000
2497.127197
1143.363770
0.000000
1183.718994
0.000000
986.574280
0.000000
0.000000
451.413605
429.144135
0.000000
1266.895752
0.000000
632.650208
0.000000
0.000000
725.087769
0.000000
0.000000
0.000000
0.000000
0.000000
0.000000
0.000000
0.000000
0.000000
0.000000
0.000000
0.000000
1068.660889
0.000000
0.000000
461.524780
0.000000
0.000000
0.000000
0.000000
948.876709
0.000000
0.000000
1666.914062
527.607422
0.000000
0.000000
0.000000
0.000000
0.000000
0.000000
0.000000
0.000000
0.000000
0.000000
0.000000
0.000000
0.000000
0.000000
0.000000
0.000000
0.000000
0.000000
0.000000
0.000000
0.000000
0.000000
622.988586
1502.657349
0.000000
0.000000
0.000000
0.000000
0.000000
0.000000
0.000000
0.000000
0.000000
0.000000
0.000000
0.000000
0.000000
0.000000
0.000000
1740.552124
0.000000
0.000000
0.000000
0.000000
0.000000
0.000000
1647.289185
411.183105
0.000000
0.000000
1214.782471
0.000000
0.000000
0.000000
1991.022827
913.491760
0.000000
0.000000
0.000000
0.000000
0.000000
0.000000
0.000000
0.000000
0.000000
0.000000
583.726746
927.005859
0.000000
0.000000
1679.339111
0.000000
0.000000
0.000000
1453.855957
0.000000
0.000000
0.000000
2449.447021
435.586792
0.000000
0.000000
1458.769653
0.000000
0.000000
0.000000
1027.164551
230.360138
0.000000
0.000000
692.191345
516.410278
0.000000
0.000000
709.533447
184.600815
0.000000
0.000000
422.445740
0.000000
0.000000
0.000000
1849.369263
0.000000
0.000000
0.000000
3022.410156
0.000000
0.000000
0.000000
3503.915039
0.000000
0.000000
0.000000
4282.889648
3493.072754
0.000000
0.000000
3362.222656
1206.586426
0.000000
0.000000
1801.280029
0.000000
0.000000
0.000000
2803.272461
1535.837891
0.000000
0.000000
1511.425293
2115.988037
0.000000
0.000000
3171.558350
4630.553711
0.000000
0.000000
2074.696533
2072.718506
0.000000
0.000000
1829.586670
1083.175537
0.000000
0.000000
1161.817627
1072.713745
0.000000
0.000000
2453.891357
3028.591797
0.000000
0.000000
2841.032227
2875.477539
0.000000
0.000000
4093.154785
2762.190186
0.000000
0.000000
3886.096680
2118.709473
0.000000
0.000000
2630.878906
1597.311401
2015.387207
1183.676636
0.000000
853.034180
0.000000
0.000000
0.000000
0.000000
1595.508179
0.000000
0.000000
0.000000
0.000000
0.000000
0.000000
0.000000
0.000000
0.000000
0.000000
0.000000
0.000000
0.000000
0.000000
0.000000
0.000000
0.000000
2528.369385
2476.830566
3507.568604
3431.887939
1209.857300
1034.112305
0.000000
89.989426
138.847427
2510.860596
3580.214111
0.000000
0.000000
0.000000
0.000000
0.000000
0.000000
0.000000
0.000000
0.000000
0.000000
0.000000
0.000000
0.000000
0.000000
0.000000
0.000000
0.000000
0.000000
0.000000
0.000000
0.000000
0.000000
0.000000
0.000000
0.000000
0.000000
0.000000
0.000000
0.000000
0.000000
0.000000
0.000000
0.000000
0.000000
0.000000
0.000000
0.000000
0.000000
0.000000
0.000000
0.000000
0.000000
0.000000
0.000000
0.000000
0.000000
0.000000
0.000000
0.000000
0.000000
0.000000
0.000000
0.000000
0.000000
0.000000
0.000000
0.000000
0.000000
0.000000
0.000000
0.000000
0.000000
0.000000
0.000000
0.000000
0.000000
0.000000
0.000000
0.000000
0.000000
0.000000
</DataArray>
</PointData>
<Cells>
<DataArray type='Int32' Name='connectivity' format='ascii'>
0
1
2
3
4
5
6
7
8
9
10
11
12
13
14
15
16
17
18
19
20
21
22
23
24
25
26
27
28
29
30
31
32
33
34
35
36
37
38
39
40
41
42
43
44
45
46
47
48
49
50
51
52
53
54
55
56
57
58
59
60
61
62
63
64
65
66
67
68
69
70
71
72
73
74
75
76
77
78
79
80
81
82
83
84
85
86
87
88
89
90
91
92
93
94
95
96
97
98
99
100
101
102
103
104
105
106
107
108
109
110
111
112
113
114
115
116
117
118
119
120
121
122
123
124
125
126
127
128
129
130
131
132
133
134
135
136
137
138
139
140
141
142
143
144
145
146
147
148
149
150
151
152
153
154
155
156
157
158
159
160
161
162
163
164
165
166
167
168
169
170
171
172
173
174
175
176
177
178
179
180
181
182
183
184
185
186
187
188
189
190
191
192
193
194
195
196
197
198
199
200
201
202
203
204
205
206
207
208
209
210
211
212
213
214
215
216
217
218
219
220
221
222
223
224
225
226
227
228
229
230
231
232
233
234
235
236
237
238
239
240
241
242
243
244
245
246
247
248
249
250
251
252
253
254
255
256
257
258
259
260
261
262
263
264
265
266
267
268
269
270
271
272
273
274
275
276
277
278
279
280
281
282
283
284
285
286
287
288
289
290
291
292
293
294
295
296
297
298
299
300
301
302
303
304
305
306
307
308
309
310
311
312
313
314
315
316
317
318
319
320
321
322
323
324
325
326
327
328
329
330
331
332
333
334
335
336
337
338