<?xml version='1.0' encoding='UTF-8'?>
<VTKFile xmlns='VTK' byte_order='LittleEndian' version='0.1' type='UnstructuredGrid'>
<UnstructuredGrid>
<Piece NumberOfCells='584' NumberOfPoints='584'>
<Points>
<DataArray NumberOfComponents='3' type='Float32' Name='Position' format='ascii'>
-0.075000 -0.075000 0.000000
-0.075000 -0.050000 0.000000
-0.075000 -0.025000 0.000000
-0.075000 0.000000 0.000000
-0.075000 0.025000 0.000000
-0.075000 0.050000 0.000000
-0.075000 0.075000 0.000000
-0.075000 0.100000 0.000000
-0.075000 0.125000 0.000000
-0.075000 0.150000 0.000000
-0.075000 0.175000 0.000000
-0.075000 0.200000 0.000000
-0.075000 0.225000 0.000000
-0.075000 0.250000 0.000000
-0.075000 0.275000 0.000000
-0.075000 0.300000 0.000000
-0.075000 0.325000 0.000000
-0.075000 0.350000 0.000000
-0.075000 0.375000 0.000000
-0.075000 0.400000 0.000000
-0.075000 0.425000 0.000000
-0.075000 0.450000 0.000000
-0.075000 0.475000 0.000000
-0.075000 0.500000 0.000000
-0.075000 0.525000 0.000000
-0.075000 0.550000 0.000000
-0.075000 0.575000 0.000000
-0.075000 0.600000 0.000000
-0.050000 -0.075000 0.000000
-0.050000 -0.050000 0.000000
-0.050000 -0.025000 0.000000
-0.050000 0.000000 0.000000
-0.050000 0.025000 0.000000
-0.050000 0.050000 0.000000
-0.050000 0.075000 0.000000
-0.050000 0.100000 0.000000
-0.050000 0.125000 0.000000
-0.050000 0.150000 0.000000
-0.050000 0.175000 0.000000
-0.050000 0.200000 0.000000
-0.050000 0.225000 0.000000
-0.050000 0.250000 0.000000
-0.050000 0.275000 0.000000
-0.050000 0.300000 0.000000
-0.050000 0.325000 0.000000
-0.050000 0.350000 0.000000
-0.050000 0.375000 0.000000
-0.050000 0.400000 0.000000
-0.050000 0.425000 0.000000
-0.050000 0.450000 0.000000
-0.050000 0.475000 0.000000
-0.050000 0.500000 0.000000
-0.050000 0.525000 0.000000
-0.050000 0.550000 0.000000
-0.050000 0.575000 0.000000
-0.050000 0.600000 0.000000
-0.025000 -0.075000 0.000000
-0.025000 -0.050000 0.000000
-0.025000 -0.025000 0.000000
-0.025000 0.000000 0.000000
-0.025000 0.025000 0.000000
-0.025000 0.050000 0.000000
-0.025000 0.075000 0.000000
-0.025000 0.100000 0.000000
-0.025000 0.125000 0.000000
-0.025000 0.150000 0.000000
-0.025000 0.175000 0.000000
-0.025000 0.200000 0.000000
-0.025000 0.225000 0.000000
-0.025000 0.250000 0.000000
-0.025000 0.275000 0.000000
-0.025000 0.300000 0.000000
-0.025000 0.325000 0.000000
-0.025000 0.350000 0.000000
-0.025000 0.375000 0.000000
-0.025000 0.400000 0.000000
-0.025000 0.425000 0.000000
-0.025000 0.450000 0.000000
-0.025000 0.475000 0.000000
-0.025000 0.500000 0.000000
-0.025000 0.525000 0.000000
-0.025000 0.550000 0.000000
-0.025000 0.575000 0.000000
-0.025000 0.600000 0.000000
0.000000 -0.075000 0.000000
0.000000 -0.050000 0.000000
0.000000 -0.025000 0.000000
0.000000 0.000000 0.000000
0.000000 0.025000 0.000000
0.000000 0.050000 0.000000
0.000000 0.075000 0.000000
0.000000 0.100000 0.000000
0.000000 0.125000 0.000000
0.000000 0.150000 0.000000
0.000000 0.175000 0.000000
0.000000 0.200000 0.000000
0.000000 0.225000 0.000000
0.000000 0.250000 0.000000
0.000000 0.275000 0.000000
0.000000 0.300000 0.000000
0.000000 0.325000 0.000000
0.000000 0.350000 0.000000
0.000000 0.375000 0.000000
0.000000 0.400000 0.000000
0.000000 0.425000 0.000000
0.000000 0.450000 0.000000
0.000000 0.475000 0.000000
0.000000 0.500000 0.000000
0.000000 0.525000 0.000000
0.000000 0.550000 0.000000
0.000000 0.575000 0.000000
0.000000 0.600000 0.000000
0.025000 -0.075000 0.000000
0.025000 -0.050000 0.000000
0.025000 -0.025000 0.000000
0.025000 0.000000 0.000000
0.042830 0.021558 0.000000
0.021355 0.032804 0.000000
0.055475 0.042679 0.000000
0.029366 0.055049 0.000000
0.060741 0.067515 0.000000
0.029075 0.075909 0.000000
0.058658 0.089135 0.000000
0.026353 0.096825 0.000000
0.044873 0.112997 0.000000
0.022920 0.124391 0.000000
0.037944 0.143739 0.000000
0.022529 0.162908 0.000000
0.029241 0.183805 0.000000
0.026992 0.206843 0.000000
0.025572 0.227609 0.000000
0.025951 0.250981 0.000000
0.028183 0.272830 0.000000
0.023383 0.294325 0.000000
0.028215 0.319902 0.000000
0.026022 0.336923 0.000000
0.050000 -0.075000 0.000000
0.050000 -0.050000 0.000000
0.050000 -0.025000 0.000000
0.050000 0.000000 0.000000
0.099626 0.029691 0.000000
0.077577 0.023000 0.000000
0.077173 0.050357 0.000000
0.124565 0.073618 0.000000
0.090575 0.071019 0.000000
0.097917 0.095692 0.000000
0.075820 0.105438 0.000000
0.099878 0.118601 0.000000
0.065039 0.126055 0.000000
0.082881 0.149130 0.000000
0.055992 0.154297 0.000000
0.074497 0.171944 0.000000
0.054157 0.185691 0.000000
0.066894 0.202112 0.000000
0.055424 0.220486 0.000000
0.060277 0.239135 0.000000
0.053858 0.261200 0.000000
0.059778 0.280318 0.000000
0.052972 0.304862 0.000000
0.057427 0.326499 0.000000
0.075000 -0.075000 0.000000
0.075000 -0.050000 0.000000
0.075000 -0.025000 0.000000
0.075000 0.000000 0.000000
0.120717 0.024362 0.000000
0.107753 0.057955 0.000000
0.151610 0.021265 0.000000
0.131089 0.047749 0.000000
0.154867 0.071300 0.000000
0.140697 0.091878 0.000000
0.161072 0.106106 0.000000
0.121584 0.104763 0.000000
0.139196 0.123823 0.000000
0.101279 0.138419 0.000000
0.123485 0.163192 0.000000
0.098751 0.171502 0.000000
0.099571 0.192367 0.000000
0.097442 0.211091 0.000000
0.092711 0.229460 0.000000
0.088588 0.249620 0.000000
0.090553 0.268798 0.000000
0.083144 0.290873 0.000000
0.085115 0.313864 0.000000
0.072356 0.328110 0.000000
0.100000 -0.075000 0.000000
0.100000 -0.050000 0.000000
0.100000 -0.025000 0.000000
0.100000 0.000000 0.000000
0.203433 0.024025 0.000000
0.182718 0.025555 0.000000
0.175975 0.051064 0.000000
0.192166 0.063459 0.000000
0.153449 0.044279 0.000000
0.209012 0.082507 0.000000
0.176088 0.083932 0.000000
0.191132 0.098974 0.000000
0.159929 0.128732 0.000000
0.181899 0.142200 0.000000
0.137356 0.147009 0.000000
0.159135 0.163282 0.000000
0.137931 0.175704 0.000000
0.139792 0.197754 0.000000
0.132354 0.215115 0.000000
0.124113 0.233562 0.000000
0.125578 0.255990 0.000000
0.116934 0.275503 0.000000
0.113029 0.298420 0.000000
0.110785 0.322004 0.000000
0.125000 -0.075000 0.000000
0.125000 -0.050000 0.000000
0.125000 -0.025000 0.000000
0.125000 0.000000 0.000000
0.248866 0.022016 0.000000
0.224054 0.034349 0.000000
0.268662 0.027163 0.000000
0.253823 0.053170 0.000000
0.277144 0.054272 0.000000
0.219214 0.053121 0.000000
0.236162 0.067020 0.000000
0.235004 0.102613 0.000000
0.215502 0.108827 0.000000
0.198338 0.125714 0.000000
0.206896 0.145383 0.000000
0.188407 0.163178 0.000000
0.180232 0.180774 0.000000
0.171045 0.198069 0.000000
0.169696 0.217195 0.000000
0.155703 0.233513 0.000000
0.158752 0.253998 0.000000
0.145285 0.270834 0.000000
0.147276 0.297960 0.000000
0.132157 0.310370 0.000000
0.150000 -0.075000 0.000000
0.150000 -0.050000 0.000000
0.150000 -0.025000 0.000000
0.150000 0.000000 0.000000
0.343613 0.021943 0.000000
0.303860 0.021449 0.000000
0.322208 0.038722 0.000000
0.295326 0.040627 0.000000
0.303335 0.069296 0.000000
0.331545 0.058734 0.000000
0.274208 0.079314 0.000000
0.299789 0.087834 0.000000
0.251662 0.084584 0.000000
0.270858 0.111807 0.000000
0.248327 0.118874 0.000000
0.240890 0.139200 0.000000
0.236005 0.157593 0.000000
0.224495 0.175483 0.000000
0.215708 0.193164 0.000000
0.206537 0.212970 0.000000
0.193725 0.230925 0.000000
0.188501 0.255707 0.000000
0.178667 0.276803 0.000000
0.165824 0.301369 0.000000
0.175000 -0.075000 0.000000
0.175000 -0.050000 0.000000
0.175000 -0.025000 0.000000
0.175000 0.000000 0.000000
0.412423 0.024642 0.000000
0.369405 0.026297 0.000000
0.407479 0.050932 0.000000
0.390428 0.028759 0.000000
0.385543 0.062113 0.000000
0.353945 0.046149 0.000000
0.362409 0.065105 0.000000
0.356791 0.090730 0.000000
0.326694 0.082977 0.000000
0.339617 0.100088 0.000000
0.293236 0.109906 0.000000
0.293876 0.129236 0.000000
0.274477 0.142416 0.000000
0.264617 0.161969 0.000000
0.255442 0.181818 0.000000
0.239603 0.200836 0.000000
0.229535 0.222335 0.000000
0.213782 0.242006 0.000000
0.210314 0.271576 0.000000
0.192685 0.289221 0.000000
0.200000 -0.075000 0.000000
0.200000 -0.050000 0.000000
0.200000 -0.025000 0.000000
0.200000 0.000000 0.000000
0.596168 0.035027 0.000000
0.472618 0.020779 0.000000
0.521749 0.020666 0.000000
0.438917 0.024129 0.000000
0.508293 0.034989 0.000000
0.482895 0.038321 0.000000
0.441921 0.044081 0.000000
0.424280 0.064249 0.000000
0.395405 0.080984 0.000000
0.381286 0.099714 0.000000
0.369348 0.120253 0.000000
0.334733 0.120538 0.000000
0.334276 0.138850 0.000000
0.313080 0.145069 0.000000
0.299090 0.160494 0.000000
0.294511 0.180597 0.000000
0.275609 0.195552 0.000000
0.263727 0.220932 0.000000
0.247847 0.244615 0.000000
0.226644 0.271757 0.000000
0.225000 -0.075000 0.000000
0.225000 -0.050000 0.000000
0.225000 -0.025000 0.000000
0.225000 0.000000 0.000000
0.618631 0.023295 0.000000
0.636990 0.048720 0.000000
0.576837 0.022632 0.000000
0.566809 0.053008 0.000000
0.558112 0.031099 0.000000
0.549510 0.069182 0.000000
0.533641 0.044845 0.000000
0.503540 0.060589 0.000000
0.461590 0.051446 0.000000
0.470347 0.070924 0.000000
0.439337 0.080940 0.000000
0.420516 0.094489 0.000000
0.408020 0.108113 0.000000
0.384440 0.131550 0.000000
0.361750 0.148039 0.000000
0.340049 0.165110 0.000000
0.321669 0.186731 0.000000
0.296126 0.210074 0.000000
0.277777 0.231624 0.000000
0.245367 0.258364 0.000000
0.250000 -0.075000 0.000000
0.250000 -0.050000 0.000000
0.250000 -0.025000 0.000000
0.250000 0.000000 0.000000
0.706781 0.026251 0.000000
0.682445 0.022774 0.000000
0.641670 0.024015 0.000000
0.670899 0.036070 0.000000
0.662823 0.050915 0.000000
0.620714 0.055152 0.000000
0.607150 0.069757 0.000000
0.594737 0.061810 0.000000
0.557526 0.092104 0.000000
0.532180 0.067519 0.000000
0.506040 0.080273 0.000000
0.489907 0.086413 0.000000
0.469878 0.095923 0.000000
0.444756 0.108899 0.000000
0.421624 0.131837 0.000000
0.399346 0.145456 0.000000
0.370891 0.165483 0.000000
0.351493 0.180452 0.000000
0.319469 0.201246 0.000000
0.295954 0.230584 0.000000
0.275000 -0.075000 0.000000
0.275000 -0.050000 0.000000
0.275000 -0.025000 0.000000
0.275000 0.000000 0.000000
0.300000 -0.075000 0.000000
0.300000 -0.050000 0.000000
0.300000 -0.025000 0.000000
0.300000 0.000000 0.000000
0.325000 -0.075000 0.000000
0.325000 -0.050000 0.000000
0.325000 -0.025000 0.000000
0.325000 0.000000 0.000000
0.350000 -0.075000 0.000000
0.350000 -0.050000 0.000000
0.350000 -0.025000 0.000000
0.350000 0.000000 0.000000
0.375000 -0.075000 0.000000
0.375000 -0.050000 0.000000
0.375000 -0.025000 0.000000
0.375000 0.000000 0.000000
0.400000 -0.075000 0.000000
0.400000 -0.050000 0.000000
0.400000 -0.025000 0.000000
0.400000 0.000000 0.000000
0.425000 -0.075000 0.000000
0.425000 -0.050000 0.000000
0.425000 -0.025000 0.000000
0.425000 0.000000 0.000000
0.450000 -0.075000 0.000000
0.450000 -0.050000 0.000000
0.450000 -0.025000 0.000000
0.450000 0.000000 0.000000
0.475000 -0.075000 0.000000
0.475000 -0.050000 0.000000
0.475000 -0.025000 0.000000
0.475000 0.000000 0.000000
0.500000 -0.075000 0.000000
0.500000 -0.050000 0.000000
0.500000 -0.025000 0.000000
0.500000 0.000000 0.000000
0.525000 -0.075000 0.000000
0.525000 -0.050000 0.000000
0.525000 -0.025000 0.000000
0.525000 0.000000 0.000000
0.550000 -0.075000 0.000000
0.550000 -0.050000 0.000000
0.550000 -0.025000 0.000000
0.550000 0.000000 0.000000
0.575000 -0.075000 0.000000
0.575000 -0.050000 0.000000
0.575000 -0.025000 0.000000
0.575000 0.000000 0.000000
0.600000 -0.075000 0.000000
0.600000 -0.050000 0.000000
0.600000 -0.025000 0.000000
0.600000 0.000000 0.000000
0.625000 -0.075000 0.000000
0.625000 -0.050000 0.000000
0.625000 -0.025000 0.000000
0.625000 0.000000 0.000000
0.650000 -0.075000 0.000000
0.650000 -0.050000 0.000000
0.650000 -0.025000 0.000000
0.650000 0.000000 0.000000
0.675000 -0.075000 0.000000
0.675000 -0.050000 0.000000
0.675000 -0.025000 0.000000
0.675000 0.000000 0.000000
0.700000 -0.075000 0.000000
0.700000 -0.050000 0.000000
0.700000 -0.025000 0.000000
0.700000 0.000000 0.000000
0.725000 -0.075000 0.000000
0.725000 -0.050000 0.000000
0.725000 -0.025000 0.000000
0.725000 0.000000 0.000000
0.750000 -0.075000 0.000000
0.750000 -0.050000 0.000000
0.750000 -0.025000 0.000000
0.750000 0.000000 0.000000
0.775000 -0.075000 0.000000
0.775000 -0.050000 0.000000
0.775000 -0.025000 0.000000
0.775000 0.000000 0.000000
0.800000 -0.075000 0.000000
0.800000 -0.050000 0.000000
0.800000 -0.025000 0.000000
0.800000 0.000000 0.000000
0.825000 -0.075000 0.000000
0.825000 -0.050000 0.000000
0.825000 -0.025000 0.000000
0.825000 0.000000 0.000000
0.850000 -0.075000 0.000000
0.850000 -0.050000 0.000000
0.850000 -0.025000 0.000000
0.850000 0.000000 0.000000
0.875000 -0.075000 0.000000
0.875000 -0.050000 0.000000
0.875000 -0.025000 0.000000
0.875000 0.000000 0.000000
0.900000 -0.075000 0.000000
0.900000 -0.050000 0.000000
0.900000 -0.025000 0.000000
0.900000 0.000000 0.000000
0.925000 -0.075000 0.000000
0.925000 -0.050000 0.000000
0.925000 -0.025000 0.000000
0.925000 0.000000 0.000000
0.950000 -0.075000 0.000000
0.950000 -0.050000 0.000000
0.950000 -0.025000 0.000000
0.950000 0.000000 0.000000
0.975000 -0.075000 0.000000
0.975000 -0.050000 0.000000
0.975000 -0.025000 0.000000
0.975000 0.000000 0.000000
1.000000 -0.075000 0.000000
1.000000 -0.050000 0.000000
1.000000 -0.025000 0.000000
1.000000 0.000000 0.000000
1.025000 -0.075000 0.000000
1.025000 -0.050000 0.000000
1.025000 -0.025000 0.000000
1.025000 0.000000 0.000000
1.025000 0.025000 0.000000
1.025000 0.050000 0.000000
1.025000 0.075000 0.000000
1.025000 0.100000 0.000000
1.025000 0.125000 0.000000
1.025000 0.150000 0.000000
1.025000 0.175000 0.000000
1.025000 0.200000 0.000000
1.025000 0.225000 0.000000
1.025000 0.250000 0.000000
1.025000 0.275000 0.000000
1.025000 0.300000 0.000000
1.025000 0.325000 0.000000
1.025000 0.350000 0.000000
1.025000 0.375000 0.000000
1.025000 0.400000 0.000000
1.025000 0.425000 0.000000
1.025000 0.450000 0.000000
1.025000 0.475000 0.000000
1.025000 0.500000 0.000000
1.025000 0.525000 0.000000
1.025000 0.550000 0.000000
1.025000 0.575000 0.000000
1.025000 0.600000 0.000000
1.050000 -0.075000 0.000000
1.050000 -0.050000 0.000000
1.050000 -0.025000 0.000000
1.050000 0.000000 0.000000
1.050000 0.025000 0.000000
1.050000 0.050000 0.000000
1.050000 0.075000 0.000000
1.050000 0.100000 0.000000
1.050000 0.125000 0.000000
1.050000 0.150000 0.000000
1.050000 0.175000 0.000000
1.050000 0.200000 0.000000
1.050000 0.225000 0.000000
1.050000 0.250000 0.000000
1.050000 0.275000 0.000000
1.050000 0.300000 0.000000
1.050000 0.325000 0.000000
1.050000 0.350000 0.000000
1.050000 0.375000 0.000000
1.050000 0.400000 0.000000
1.050000 0.425000 0.000000
1.050000 0.450000 0.000000
1.050000 0.475000 0.000000
1.050000 0.500000 0.000000
1.050000 0.525000 0.000000
1.050000 0.550000 0.000000
1.050000 0.575000 0.000000
1.050000 0.600000 0.000000
1.075000 -0.075000 0.000000
1.075000 -0.050000 0.000000
1.075000 -0.025000 0.000000
1.075000 0.000000 0.000000
1.075000 0.025000 0.000000
1.075000 0.050000 0.000000
1.075000 0.075000 0.000000
1.075000 0.100000 0.000000
1.075000 0.125000 0.000000
1.075000 0.150000 0.000000
1.075000 0.175000 0.000000
1.075000 0.200000 0.000000
1.075000 0.225000 0.000000
1.075000 0.250000 0.000000
1.075000 0.275000 0.000000
1.075000 0.300000 0.000000
1.075000 0.325000 0.000000
1.075000 0.350000 0.000000
1.075000 0.375000 0.000000
1.075000 0.400000 0.000000
1.075000 0.425000 0.000000
1.075000 0.450000 0.000000
1.075000 0.475000 0.000000
1.075000 0.500000 0.000000
1.075000 0.525000 0.000000
1.075000 0.550000 0.000000
1.075000 0.575000 0.000000
1.075000 0.600000 0.000000
1.100000 -0.075000 0.000000
1.100000 -0.050000 0.000000
1.100000 -0.025000 0.000000
1.100000 0.000000 0.000000
1.100000 0.025000 0.000000
1.100000 0.050000 0.000000
1.100000 0.075000 0.000000
1.100000 0.100000 0.000000
1.100000 0.125000 0.000000
1.100000 0.150000 0.000000
1.100000 0.175000 0.000000
1.100000 0.200000 0.000000
1.100000 0.225000 0.000000
1.100000 0.250000 0.000000
1.100000 0.275000 0.000000
1.100000 0.300000 0.000000
1.100000 0.325000 0.000000
1.100000 0.350000 0.000000
1.100000 0.375000 0.000000
1.100000 0.400000 0.000000
1.100000 0.425000 0.000000
1.100000 0.450000 0.000000
1.100000 0.475000 0.000000
1.100000 0.500000 0.000000
1.100000 0.525000 0.000000
1.100000 0.550000 0.000000
1.100000 0.575000 0.000000
1.100000 0.600000 0.000000
</DataArray>
</Points>
<PointData>
<DataArray NumberOfComponents='1' type='Int32' Name='ParticleType' format='ascii'>
3
3
3
3
3
3
3
3
3
3
3
3
3
3
3
3
3
3
3
3
3
3
3
3
3
3
2
2
3
3
3
3
3
3
3
3
3
3
3
3
3
3
3
3
3
3
3
3
3
3
3
3
3
3
2
2
3
3
2
2
2
2
2
2
2
2
2
2
2
2
2
2
2
2
2
2
2
2
2
2
2
2
2
2
3
3
2
2
2
2
2
2
2
2
2
2
2
2
2
2
2
2
2
2
2
2
2
2
2
2
2
2
3
3
2
2
0
0
0
0
0
0
0
0
0
0
0
0
0
0
0
0
0
0
0
0
3
3
2
2
0
0
0
0
0
0
0
0
0
0
0
0
0
0
0
0
0
0
0
0
3
3
2
2
0
0
0
0
0
0
0
0
0
0
0
0
0
0
0
0
0
0
0
0
3
3
2
2
0
0
0
0
0
0
0
0
0
0
0
0
0
0
0
0
0
0
0
0
3
3
2
2
0
0
0
0
0
0
0
0
0
0
0
0
0
0
0
0
0
0
0
0
3
3
2
2
0
0
0
0
0
0
0
0
0
0
0
0
0
0
0
0
0
0
0
0
3
3
2
2
0
0
0
0
0
0
0
0
0
0
0
0
0
0
0
0
0
0
0
0
3
3
2
2
0
0
0
0
0
0
0
0
0
0
0
0
0
0
0
0
0
0
0
0
3
3
2
2
0
0
0
0
0
0
0
0
0
0
0
0
0
0
0
0
0
0
0
0
3
3
2
2
0
0
0
0
0
0
0
0
0
0
0
0
0
0
0
0
0
0
0
0
3
3
2
2
3
3
2
2
3
3
2
2
3
3
2
2
3
3
2
2
3
3
2
2
3
3
2
2
3
3
2
2
3
3
2
2
3
3
2
2
3
3
2
2
3
3
2
2
3
3
2
2
3
3
2
2
3
3
2
2
3
3
2
2
3
3
2
2
3
3
2
2
3
3
2
2
3
3
2
2
3
3
2
2
3
3
2
2
3
3
2
2
3
3
2
2
3
3
2
2
3
3
2
2
3
3
2
2
3
3
2
2
3
3
2
2
3
3
2
2
3
3
2
2
2
2
2
2
2
2
2
2
2
2
2
2
2
2
2
2
2
2
2
2
2
2
2
2
3
3
2
2
2
2
2
2
2
2
2
2
2
2
2
2
2
2
2
2
2
2
2
2
2
2
2
2
3
3
3
3
3
3
3
3
3
3
3
3
3
3
3
3
3
3
3
3
3
3
3
3
3
3
2
2
3
3
3
3
3
3
3
3
3
3
3
3
3
3
3
3
3
3
3
3
3
3
3
3
3
3
2
2
</DataArray>
<DataArray NumberOfComponents='1' type='Float32' Name='Velocity' format='ascii'>
0.000000
0.000000
0.000000
0.000000
0.000000
0.000000
0.000000
0.000000
0.000000
0.000000
0.000000
0.000000
0.000000
0.000000
0.000000
0.000000
0.000000
0.000000
0.000000
0.000000
0.000000
0.000000
0.000000
0.000000
0.000000
0.000000
0.000000
0.000000
0.000000
0.000000
0.000000
0.000000
0.000000
0.000000
0.000000
0.000000
0.000000
0.000000
0.000000
0.000000
0.000000
0.000000
0.000000
0.000000
0.000000
0.000000
0.000000
0.000000
0.000000
0.000000
0.000000
0.000000
0.000000
0.000000
0.000000
0.000000
0.000000
0.000000
0.000000
0.000000
0.000000
0.000000
0.000000
0.000000
0.000000
0.000000
0.000000
0.000000
0.000000
0.000000
0.000000
0.000000
0.000000
0.000000
0.000000
0.000000
0.000000
0.000000
0.000000
0.000000
0.000000
0.000000
0.000000
0.000000
0.000000
0.000000
0.000000
0.000000
0.000000
0.000000
0.000000
0.000000
0.000000
0.000000
0.000000
0.000000
0.000000
0.000000
0.000000
0.000000
0.000000
0.000000
0.000000
0.000000
0.000000
0.000000
0.000000
0.000000
0.000000
0.000000
0.000000
0.000000
0.000000
0.000000
0.000000
0.000000
0.060808
0.180711
0.537744
0.413527
0.518870
0.318934
0.556377
0.389434
0.587631
0.752605
0.668954
0.859987
0.788419
0.764326
0.753001
0.832124
0.723312
0.845022
0.916457
0.915679
0.000000
0.000000
0.000000
0.000000
0.369916
0.398645
0.432225
0.888081
0.236919
0.352920
0.355974
0.577708
0.319971
0.365340
0.468505
0.480791
0.695948
0.862339
0.814642
0.844744
0.864774
0.906529
0.849428
0.867895
0.000000
0.000000
0.000000
0.000000
0.256430
0.449159
0.540519
0.341285
0.930639
0.705517
0.898594
0.808804
0.818760
0.534996
0.792676
0.695500
0.564640
0.619284
0.622876
0.596190
0.667999
0.739721
0.790789
0.999292
0.000000
0.000000
0.000000
0.000000
0.871861
0.695067
0.435717
0.714658
0.435300
1.468163
1.109493
0.679449
0.690729
0.832158
0.634745
1.157117
0.894539
0.667413
0.949669
0.779129
0.926767
0.899645
0.893999
0.874256
0.000000
0.000000
0.000000
0.000000
0.808020
0.980521
1.129155
1.045947
0.872238
0.241962
1.004886
0.916037
0.615813
0.793147
1.287156
0.753366
0.505059
0.685121
0.556374
0.708270
0.805417
0.948321
0.869526
1.148217
0.000000
0.000000
0.000000
0.000000
1.281139
1.176077
1.046844
0.794718
1.370896
1.961220
0.760109
1.416126
1.295367
1.351261
1.156038
0.962323
0.984610
0.936722
1.000062
1.050967
1.149945
1.086094
1.195466
1.097212
0.000000
0.000000
0.000000
0.000000
2.025328
1.664462
1.546535
1.870920
1.989853
1.706069
1.678694
1.615846
1.804638
1.893318
1.053394
1.493667
1.082623
1.243186
1.349621
1.141140
1.284971
1.277148
1.172729
1.284072
0.000000
0.000000
0.000000
0.000000
2.858408
2.030594
2.588268
2.169539
2.541675
2.863816
2.659252
2.032758
2.005995
1.960258
1.547073
1.291874
1.650300
1.435026
1.532499
1.371216
1.540246
1.547528
1.483701
1.498071
0.000000
0.000000
0.000000
0.000000
2.754612
2.908280
2.912302
2.194547
2.913912
2.618022
2.973320
2.351930
2.504279
2.725195
2.549957
2.388963
2.176546
2.181848
2.033045
1.855646
1.869233
1.692899
1.571058
1.527709
0.000000
0.000000
0.000000
0.000000
2.584469
3.092428
2.526321
2.947987
2.816822
2.707817
2.692281
2.766701
2.627709
2.570502
2.417303
2.701790
2.781483
2.710181
2.471376
2.370314
2.130783
2.197569
1.968427
1.833086
0.000000
0.000000
0.000000
0.000000
0.000000
0.000000
0.000000
0.000000
0.000000
0.000000
0.000000
0.000000
0.000000
0.000000
0.000000
0.000000
0.000000
0.000000
0.000000
0.000000
0.000000
0.000000
0.000000
0.000000
0.000000
0.000000
0.000000
0.000000
0.000000
0.000000
0.000000
0.000000
0.000000
0.000000
0.000000
0.000000
0.000000
0.000000
0.000000
0.000000
0.000000
0.000000
0.000000
0.000000
0.000000
0.000000
0.000000
0.000000
0.000000
0.000000
0.000000
0.000000
0.000000
0.000000
0.000000
0.000000
0.000000
0.000000
0.000000
0.000000
0.000000
0.000000
0.000000
0.000000
0.000000
0.000000
0.000000
0.000000
0.000000
0.000000
0.000000
0.000000
0.000000
0.000000
0.000000
0.000000
0.000000
0.000000
0.000000
0.000000
0.000000
0.000000
0.000000
0.000000
0.000000
0.000000
0.000000
0.000000
0.000000
0.000000
0.000000
0.000000
0.000000
0.000000
0.000000
0.000000
0.000000
0.000000
0.000000
0.000000
0.000000
0.000000
0.000000
0.000000
0.000000
0.000000
0.000000
0.000000
0.000000
0.000000
0.000000
0.000000
0.000000
0.000000
0.000000
0.000000
0.000000
0.000000
0.000000
0.000000
0.000000
0.000000
0.000000
0.000000
0.000000
0.000000
0.000000
0.000000
0.000000
0.000000
0.000000
0.000000
0.000000
0.000000
0.000000
0.000000
0.000000
0.000000
0.000000
0.000000
0.000000
0.000000
0.000000
0.000000
0.000000
0.000000
0.000000
0.000000
0.000000
0.000000
0.000000
0.000000
0.000000
0.000000
0.000000
0.000000
0.000000
0.000000
0.000000
0.000000
0.000000
0.000000
0.000000
0.000000
0.000000
0.000000
0.000000
0.000000
0.000000
0.000000
0.000000
0.000000
0.000000
0.000000
0.000000
0.000000
0.000000
0.000000
0.000000
0.000000
0.000000
0.000000
0.000000
0.000000
0.000000
0.000000
0.000000
0.000000
0.000000
0.000000
0.000000
0.000000
0.000000
0.000000
0.000000
0.000000
0.000000
0.000000
0.000000
0.000000
0.000000
0.000000
0.000000
0.000000
0.000000
0.000000
0.000000
0.000000
0.000000
0.000000
0.000000
0.000000
0.000000
0.000000
0.000000
0.000000
0.000000
0.000000
0.000000
0.000000
0.000000
0.000000
0.000000
0.000000
0.000000
0.000000
0.000000
0.000000
0.000000
0.000000
0.000000
0.000000
</DataArray>
<DataArray NumberOfComponents='1' type='Float32' Name='pressure' format='ascii'>
0.000000
0.000000
0.000000
0.000000
0.000000
0.000000
0.000000
0.000000
0.000000
0.000000
0.000000
0.000000
0.000000
0.000000
0.000000
0.000000
0.000000
0.000000
0.000000
0.000000
0.000000
0.000000
0.000000
0.000000
0.000000
0.000000
0.000000
0.000000
0.000000
0.000000
0.000000
0.000000
0.000000
0.000000
0.000000
0.000000
0.000000
0.000000
0.000000
0.000000
0.000000
0.000000
0.000000
0.000000
0.000000
0.000000
0.000000
0.000000
0.000000
0.000000
0.000000
0.000000
0.000000
0.000000
0.000000
0.000000
0.000000
0.000000
5041.782715
5159.582031
6020.583008
4317.021973
2437.532471
2470.620117
3712.445557
2986.657471
2391.796631
689.266296
726.181824
257.059570
0.000000
266.307098
0.000000
0.000000
0.000000
0.000000
0.000000
0.000000
0.000000
0.000000
0.000000
0.000000
0.000000
0.000000
0.000000
0.000000
4980.160156
4493.849609
6679.781738
3500.432373
1223.375732
2414.531250
4083.187256
2417.776611
1941.321289
967.850769
1288.766968
573.348450
0.000000
1032.474121
0.000000
0.000000
0.000000
0.000000
0.000000
0.000000
0.000000
0.000000
0.000000
0.000000
0.000000
0.000000
0.000000
0.000000
5069.802734
3168.321533
4977.932129
6740.170898
4648.937500
4684.694824
3820.209229
4251.287598
3034.927490
4211.645020
3194.446045
3184.661865
3234.121582
2715.692871
2756.313721
2276.945801
2117.059814
2035.915161
1372.641479
490.804932
455.208344
0.000000
0.000000
0.000000
6073.434082
5777.501953
4045.299805
3382.112549
4143.766602
1641.086182
3782.656738
4074.641602
3286.633057
3223.999023
2603.022461
3249.712891
1908.201660
3543.322266
1269.108765
1644.873413
1199.964966
568.389954
746.771057
0.000000
312.733612
0.000000
0.000000
0.000000
5440.404297
5015.979004
3818.214355
4646.788574
2971.310059
4021.759277
3357.596680
4638.589355
2278.177490
3433.931152
2093.560059
2244.708496
3411.404053
2165.628662
1414.570557
2185.896484
1665.952148
1638.172607
824.918335
1054.009521
0.000000
0.000000
0.000000
0.000000
3716.043213
3448.134277
1571.864380
2088.099121
3600.135010
3605.785645
5435.167480
0.000000
5068.067383
3522.870361
2495.215088
3706.320312
1345.670532
899.686157
2554.204590
1000.313965
1485.403931
463.105896
624.757690
922.094299
644.014954
0.000000
0.000000
0.000000
4608.718262
4074.604004
2106.094238
2323.410889
0.000000
1830.885132
3893.006836
1473.322021
3300.236572
4532.657227
2555.210449
2222.680908
0.000000
2544.917480
1596.210815
2639.603027
841.859009
2123.771484
769.303772
767.877502
0.000000
0.000000
0.000000
0.000000
5686.989746
6261.834961
4488.625977
4827.995605
3296.870850
4429.533203
4017.445068
3426.379395
1568.583252
4391.934570
2304.078613
1561.795288
3618.804932
2686.235840
2804.076904
2029.965088
1754.101318
1739.334717
671.768921
571.386169
660.364746
0.000000
0.000000
0.000000
3514.419434
3594.940674
3843.874023
5137.280762
1921.311157
3556.442627
2683.330811
3720.203613
3553.924561
3169.801758
1148.186035
4110.589355
3753.155518
4110.208984
2658.478027
1419.098389
1630.006836
589.157288
215.112671
1427.802246
0.000000
0.000000
0.000000
0.000000
2942.159180
2447.916748
590.332214
1913.274292
691.014709
3764.616943
80.501831
0.000000
4396.926270
2887.195557
2318.960449
265.591339
2822.509766
1505.111816
3332.513184
1731.780396
2557.316895
1793.545776
963.266541
1301.635864
0.000000
0.000000
0.000000
0.000000
1416.230347
0.000000
1327.757446
0.000000
169.433929
0.000000
0.000000
0.000000
0.000000
1841.805176
899.045471
0.000000
0.000000
1770.706177
288.348114
54.070862
6.809897
687.604004
674.909607
923.782776
0.000000
0.000000
0.000000
0.000000
3406.160156
3053.593018
0.000000
0.000000
1890.735718
0.000000
0.000000
105.685394
0.000000
0.000000
0.000000
0.000000
0.000000
0.000000
0.000000
0.000000
0.000000
0.000000
0.000000
0.000000
0.000000
0.000000
0.000000
0.000000
2301.164795
1881.129150
0.000000
0.000000
4973.077637
4674.079590
0.000000
0.000000
4644.723145
2685.280762
0.000000
0.000000
5373.058594
5638.423828
0.000000
0.000000
3622.382080
4387.826660
0.000000
0.000000
3166.426758
3398.653809
0.000000
0.000000
3155.635986
2591.922119
0.000000
0.000000
3166.600098
2076.104248
0.000000
0.000000
3845.419189
2692.847656
0.000000
0.000000
1591.566650
0.000000
0.000000
0.000000
2596.158203
1315.913818
0.000000
0.000000
0.000000
0.000000
0.000000
0.000000
1005.916199
286.188263
0.000000
0.000000
0.000000
0.000000
0.000000
0.000000
1094.844238
1060.449341
0.000000
0.000000
593.448669
0.000000
0.000000
0.000000
875.322327
1026.241211
0.000000
0.000000
0.000000
0.000000
0.000000
0.000000
0.000000
0.000000
0.000000
0.000000
0.000000
0.000000
0.000000
0.000000
0.000000
0.000000
0.000000
0.000000
0.000000
0.000000
0.000000
0.000000
0.000000
0.000000
0.000000
0.000000
0.000000
0.000000
0.000000
0.000000
0.000000
0.000000
0.000000
0.000000
0.000000
0.000000
0.000000
0.000000
0.000000
0.000000
0.000000
0.000000
0.000000
0.000000
0.000000
0.000000
0.000000
0.000000
0.000000
0.000000
0.000000
0.000000
0.000000
0.000000
0.000000
0.000000
0.000000
0.000000
0.000000
0.000000
0.000000
0.000000
0.000000
0.000000
0.000000
0.000000
0.000000
0.000000
0.000000
0.000000
0.000000
0.000000
0.000000
0.000000
0.000000
0.000000
0.000000
0.000000
0.000000
0.000000
0.000000
0.000000
0.000000
0.000000
0.000000
0.000000
0.000000
0.000000
0.000000
0.000000
0.000000
0.000000
0.000000
0.000000
0.000000
0.000000
0.000000
0.000000
0.000000
0.000000
0.000000
0.000000
0.000000
0.000000
0.000000
0.000000
0.000000
0.000000
0.000000
0.000000
0.000000
0.000000
0.000000
0.000000
0.000000
0.000000
0.000000
0.000000
0.000000
0.000000
0.000000
0.000000
0.000000
0.000000
0.000000
0.000000
0.000000
0.000000
0.000000
0.000000
0.000000
0.000000
0.000000
0.000000
0.000000
0.000000
0.000000
0.000000
0.000000
0.000000
0.000000
0.000000
0.000000
0.000000
0.000000
0.000000
0.000000
0.000000
0.000000
0.000000
0.000000
0.000000
0.000000
0.000000
0.000000
0.000000
0.000000
0.000000
0.000000
0.000000
0.000000
0.000000
0.000000
0.000000
</DataArray>
</PointData>
<Cells>
<DataArray type='Int32' Name='connectivity' format='ascii'>
0
1
2
3
4
5
6
7
8
9
10
11
12
13
14
15
16
17
18
19
20
21
22
23
24
25
26
27
28
29
30
31
32
33
34
35
36
37
38
39
40
41
42
43
44
45
46
47
48
49
50
51
52
53
54
55
56
57
58
59
60
61
62
63
64
65
66
67
68
69
70
71
72
73
74
75
76
77
78
79
80
81
82
83
84
85
86
87
88
89
90
91
92
93
94
95
96
97
98
99
100
101
102
103
104
105
106
107
108
109
110
111
112
113
114
115
116
117
118
119
120
121
122
123
124
125
126
127
128
129
130
131
132
133
134
135
136
137
138
139
140
141
142
143
144
145
146
147
148
149
150
151
152
153
154
155
156
157
158
159
160
161
162
163
164
165
166
167
168
169
170
171
172
173
174
175
176
177
178
179
180
181
182
183
184
185
186
187
188
189
190
191
192
193
194
195
196
197
198
199
200
201
202
203
204
205
206
207
208
209
210
211
212
213
214
215
216
217
218
219
220
221
222
223
224
225
226
227
228
229
230
231
232
233
234
235
236
237
238
239
240
241
242
243
244
245
246
247
248
249
250
251
252
253
254
255
256
257
258
259
260
261
262
263
264
265
266
267
268
269
270
271
272
273
274
275
276