<?xml version='1.0' encoding='UTF-8'?>
<VTKFile xmlns='VTK' byte_order='LittleEndian' version='0.1' type='UnstructuredGrid'>
<UnstructuredGrid>
<Piece NumberOfCells='584' NumberOfPoints='584'>
<Points>
<DataArray NumberOfComponents='3' type='Float32' Name='Position' format='ascii'>
-0.075000 -0.075000 0.000000
-0.075000 -0.050000 0.000000
-0.075000 -0.025000 0.000000
-0.075000 0.000000 0.000000
-0.075000 0.025000 0.000000
-0.075000 0.050000 0.000000
-0.075000 0.075000 0.000000
-0.075000 0.100000 0.000000
-0.075000 0.125000 0.000000
-0.075000 0.150000 0.000000
-0.075000 0.175000 0.000000
-0.075000 0.200000 0.000000
-0.075000 0.225000 0.000000
-0.075000 0.250000 0.000000
-0.075000 0.275000 0.000000
-0.075000 0.300000 0.000000
-0.075000 0.325000 0.000000
-0.075000 0.350000 0.000000
-0.075000 0.375000 0.000000
-0.075000 0.400000 0.000000
-0.075000 0.425000 0.000000
-0.075000 0.450000 0.000000
-0.075000 0.475000 0.000000
-0.075000 0.500000 0.000000
-0.075000 0.525000 0.000000
-0.075000 0.550000 0.000000
-0.075000 0.575000 0.000000
-0.075000 0.600000 0.000000
-0.050000 -0.075000 0.000000
-0.050000 -0.050000 0.000000
-0.050000 -0.025000 0.000000
-0.050000 0.000000 0.000000
-0.050000 0.025000 0.000000
-0.050000 0.050000 0.000000
-0.050000 0.075000 0.000000
-0.050000 0.100000 0.000000
-0.050000 0.125000 0.000000
-0.050000 0.150000 0.000000
-0.050000 0.175000 0.000000
-0.050000 0.200000 0.000000
-0.050000 0.225000 0.000000
-0.050000 0.250000 0.000000
-0.050000 0.275000 0.000000
-0.050000 0.300000 0.000000
-0.050000 0.325000 0.000000
-0.050000 0.350000 0.000000
-0.050000 0.375000 0.000000
-0.050000 0.400000 0.000000
-0.050000 0.425000 0.000000
-0.050000 0.450000 0.000000
-0.050000 0.475000 0.000000
-0.050000 0.500000 0.000000
-0.050000 0.525000 0.000000
-0.050000 0.550000 0.000000
-0.050000 0.575000 0.000000
-0.050000 0.600000 0.000000
-0.025000 -0.075000 0.000000
-0.025000 -0.050000 0.000000
-0.025000 -0.025000 0.000000
-0.025000 0.000000 0.000000
-0.025000 0.025000 0.000000
-0.025000 0.050000 0.000000
-0.025000 0.075000 0.000000
-0.025000 0.100000 0.000000
-0.025000 0.125000 0.000000
-0.025000 0.150000 0.000000
-0.025000 0.175000 0.000000
-0.025000 0.200000 0.000000
-0.025000 0.225000 0.000000
-0.025000 0.250000 0.000000
-0.025000 0.275000 0.000000
-0.025000 0.300000 0.000000
-0.025000 0.325000 0.000000
-0.025000 0.350000 0.000000
-0.025000 0.375000 0.000000
-0.025000 0.400000 0.000000
-0.025000 0.425000 0.000000
-0.025000 0.450000 0.000000
-0.025000 0.475000 0.000000
-0.025000 0.500000 0.000000
-0.025000 0.525000 0.000000
-0.025000 0.550000 0.000000
-0.025000 0.575000 0.000000
-0.025000 0.600000 0.000000
0.000000 -0.075000 0.000000
0.000000 -0.050000 0.000000
0.000000 -0.025000 0.000000
0.000000 0.000000 0.000000
0.000000 0.025000 0.000000
0.000000 0.050000 0.000000
0.000000 0.075000 0.000000
0.000000 0.100000 0.000000
0.000000 0.125000 0.000000
0.000000 0.150000 0.000000
0.000000 0.175000 0.000000
0.000000 0.200000 0.000000
0.000000 0.225000 0.000000
0.000000 0.250000 0.000000
0.000000 0.275000 0.000000
0.000000 0.300000 0.000000
0.000000 0.325000 0.000000
0.000000 0.350000 0.000000
0.000000 0.375000 0.000000
0.000000 0.400000 0.000000
0.000000 0.425000 0.000000
0.000000 0.450000 0.000000
0.000000 0.475000 0.000000
0.000000 0.500000 0.000000
0.000000 0.525000 0.000000
0.000000 0.550000 0.000000
0.000000 0.575000 0.000000
0.000000 0.600000 0.000000
0.025000 -0.075000 0.000000
0.025000 -0.050000 0.000000
0.025000 -0.025000 0.000000
0.025000 0.000000 0.000000
0.166365 0.048539 0.000000
0.160484 0.165134 0.000000
0.156601 0.022415 0.000000
0.181994 0.028085 0.000000
0.213621 0.047557 0.000000
0.109009 0.112666 0.000000
0.283695 0.023031 0.000000
0.192737 0.058239 0.000000
0.166060 0.092988 0.000000
0.096250 0.245064 0.000000
0.204792 0.024996 0.000000
0.082476 0.155809 0.000000
0.124786 0.027141 0.000000
0.102022 0.023984 0.000000
0.132674 0.144788 0.000000
0.066308 0.049817 0.000000
0.050143 0.188858 0.000000
0.066748 0.021846 0.000000
0.021704 0.186189 0.000000
0.142399 0.042254 0.000000
0.050000 -0.075000 0.000000
0.050000 -0.050000 0.000000
0.050000 -0.025000 0.000000
0.050000 0.000000 0.000000
0.110989 0.222940 0.000000
0.061814 0.133896 0.000000
0.050930 0.214047 0.000000
0.023924 0.025945 0.000000
0.026479 0.140355 0.000000
0.424980 0.056957 0.000000
0.173651 0.133769 0.000000
0.559367 0.026352 0.000000
0.088182 0.178849 0.000000
0.187201 0.202656 0.000000
0.093030 0.100637 0.000000
0.207327 0.121561 0.000000
0.031313 0.257419 0.000000
0.147147 0.229891 0.000000
0.098333 0.069570 0.000000
0.023665 0.056172 0.000000
0.186587 0.107265 0.000000
0.222675 0.098913 0.000000
0.095764 0.259595 0.000000
0.074260 0.074188 0.000000
0.075000 -0.075000 0.000000
0.075000 -0.050000 0.000000
0.075000 -0.025000 0.000000
0.075000 0.000000 0.000000
0.105392 0.132518 0.000000
0.154065 0.111897 0.000000
0.369960 0.057465 0.000000
0.313055 0.022561 0.000000
0.375710 0.094294 0.000000
0.639323 0.045206 0.000000
0.625697 0.072322 0.000000
0.045557 0.118172 0.000000
0.303304 0.128548 0.000000
0.597318 0.071038 0.000000
0.406882 0.025168 0.000000
0.077727 0.120989 0.000000
0.198221 0.085084 0.000000
0.190045 0.143142 0.000000
0.239052 0.086895 0.000000
0.040165 0.094390 0.000000
0.132449 0.098161 0.000000
0.047925 0.059367 0.000000
0.142216 0.079934 0.000000
0.118506 0.051649 0.000000
0.100000 -0.075000 0.000000
0.100000 -0.050000 0.000000
0.100000 -0.025000 0.000000
0.100000 0.000000 0.000000
0.461750 0.024227 0.000000
0.264206 0.152175 0.000000
0.480047 0.044022 0.000000
0.782364 0.022347 0.000000
0.216680 0.072042 0.000000
0.707100 0.022710 0.000000
0.576861 0.092734 0.000000
0.241224 0.048167 0.000000
0.661464 0.021787 0.000000
0.664229 0.045189 0.000000
0.436279 0.023169 0.000000
0.291221 0.153529 0.000000
0.508933 0.052472 0.000000
0.607665 0.030148 0.000000
0.060141 0.229381 0.000000
0.231847 0.023605 0.000000
0.515495 0.027017 0.000000
0.257171 0.062708 0.000000
0.304685 0.089955 0.000000
0.165310 0.195385 0.000000
0.125000 -0.075000 0.000000
0.125000 -0.050000 0.000000
0.125000 -0.025000 0.000000
0.125000 0.000000 0.000000
0.691881 0.065556 0.000000
0.648335 0.068305 0.000000
0.984859 0.058624 0.000000
0.828893 0.025452 0.000000
0.534104 0.068644 0.000000
0.587179 0.025390 0.000000
0.143837 0.209148 0.000000
0.442496 0.046530 0.000000
0.750387 0.072037 0.000000
0.720692 0.060973 0.000000
0.845525 0.053105 0.000000
0.461423 0.057481 0.000000
0.491195 0.024473 0.000000
0.410208 0.137837 0.000000
0.384723 0.025564 0.000000
0.383099 0.130817 0.000000
0.238780 0.158194 0.000000
0.119929 0.075428 0.000000
0.417815 0.126595 0.000000
0.053666 0.161602 0.000000
0.150000 -0.075000 0.000000
0.150000 -0.050000 0.000000
0.150000 -0.025000 0.000000
0.150000 0.000000 0.000000
0.174961 0.175969 0.000000
0.963225 0.022865 0.000000
0.693599 0.088700 0.000000
0.274109 0.045473 0.000000
0.876025 0.021523 0.000000
0.170922 0.069444 0.000000
0.910256 0.043075 0.000000
0.410420 0.077728 0.000000
0.937345 0.051682 0.000000
0.489622 0.097755 0.000000
0.916196 0.084745 0.000000
0.685193 0.034032 0.000000
0.824222 0.070220 0.000000
0.801272 0.063141 0.000000
0.753109 0.032936 0.000000
0.609137 0.055210 0.000000
0.631596 0.023551 0.000000
0.630802 0.101511 0.000000
0.674083 0.075660 0.000000
0.218909 0.136185 0.000000
0.175000 -0.075000 0.000000
0.175000 -0.050000 0.000000
0.175000 -0.025000 0.000000
0.175000 0.000000 0.000000
0.103018 0.155996 0.000000
0.557466 0.099129 0.000000
0.885883 0.047951 0.000000
0.785334 0.084790 0.000000
0.991935 0.023410 0.000000
0.168983 0.223080 0.000000
0.851385 0.026271 0.000000
0.327723 0.042429 0.000000
0.363667 0.034552 0.000000
0.913773 0.021525 0.000000
0.474530 0.078059 0.000000
0.737320 0.072587 0.000000
0.347626 0.094137 0.000000
0.939486 0.026591 0.000000
0.973650 0.048072 0.000000
0.402886 0.047544 0.000000
1.000919 0.044286 0.000000
0.449223 0.095209 0.000000
0.120496 0.188008 0.000000
0.371270 0.118844 0.000000
0.200000 -0.075000 0.000000
0.200000 -0.050000 0.000000
0.200000 -0.025000 0.000000
0.200000 0.000000 0.000000
0.322769 0.097325 0.000000
0.090867 0.043369 0.000000
0.258217 0.101210 0.000000
0.800774 0.027680 0.000000
0.333225 0.062269 0.000000
0.250700 0.140267 0.000000
0.574057 0.045681 0.000000
0.943268 0.064032 0.000000
0.349633 0.114371 0.000000
0.031267 0.158638 0.000000
0.782172 0.065310 0.000000
0.684994 0.116912 0.000000
0.045528 0.029084 0.000000
0.431706 0.094386 0.000000
0.546549 0.053679 0.000000
0.111236 0.245474 0.000000
0.708681 0.045320 0.000000
0.332656 0.145643 0.000000
0.864979 0.054445 0.000000
0.700787 0.102642 0.000000
0.225000 -0.075000 0.000000
0.225000 -0.050000 0.000000
0.225000 -0.025000 0.000000
0.225000 0.000000 0.000000
0.276796 0.076384 0.000000
0.816791 0.047560 0.000000
0.531757 0.088686 0.000000
0.185517 0.252742 0.000000
0.024423 0.206697 0.000000
0.108192 0.194372 0.000000
0.413514 0.104559 0.000000
0.895341 0.062410 0.000000
0.568457 0.066897 0.000000
0.068742 0.181366 0.000000
0.587973 0.100711 0.000000
0.135229 0.382270 0.000000
0.344722 0.022566 0.000000
0.393798 0.071690 0.000000
0.070385 0.093357 0.000000
0.208886 0.186483 0.000000
0.501472 0.067743 0.000000
0.027321 0.078870 0.000000
0.247038 0.117595 0.000000
0.298615 0.046999 0.000000
0.250000 -0.075000 0.000000
0.250000 -0.050000 0.000000
0.250000 -0.025000 0.000000
0.250000 0.000000 0.000000
0.738750 0.021939 0.000000
0.303439 0.156563 0.000000
0.225233 0.177409 0.000000
0.280266 0.097486 0.000000
0.256009 0.027049 0.000000
0.326270 0.121643 0.000000
0.136378 0.168840 0.000000
0.249958 0.204349 0.000000
0.236753 0.196356 0.000000
0.466116 0.095568 0.000000
0.202758 0.161114 0.000000
0.040032 0.247404 0.000000
0.144638 0.132757 0.000000
0.536799 0.024729 0.000000
0.355121 0.068600 0.000000
0.306257 0.066920 0.000000
0.284122 0.126057 0.000000
0.760317 0.053028 0.000000
0.022412 0.111685 0.000000
0.496488 0.140118 0.000000
0.275000 -0.075000 0.000000
0.275000 -0.050000 0.000000
0.275000 -0.025000 0.000000
0.275000 0.000000 0.000000
0.300000 -0.075000 0.000000
0.300000 -0.050000 0.000000
0.300000 -0.025000 0.000000
0.300000 0.000000 0.000000
0.325000 -0.075000 0.000000
0.325000 -0.050000 0.000000
0.325000 -0.025000 0.000000
0.325000 0.000000 0.000000
0.350000 -0.075000 0.000000
0.350000 -0.050000 0.000000
0.350000 -0.025000 0.000000
0.350000 0.000000 0.000000
0.375000 -0.075000 0.000000
0.375000 -0.050000 0.000000
0.375000 -0.025000 0.000000
0.375000 0.000000 0.000000
0.400000 -0.075000 0.000000
0.400000 -0.050000 0.000000
0.400000 -0.025000 0.000000
0.400000 0.000000 0.000000
0.425000 -0.075000 0.000000
0.425000 -0.050000 0.000000
0.425000 -0.025000 0.000000
0.425000 0.000000 0.000000
0.450000 -0.075000 0.000000
0.450000 -0.050000 0.000000
0.450000 -0.025000 0.000000
0.450000 0.000000 0.000000
0.475000 -0.075000 0.000000
0.475000 -0.050000 0.000000
0.475000 -0.025000 0.000000
0.475000 0.000000 0.000000
0.500000 -0.075000 0.000000
0.500000 -0.050000 0.000000
0.500000 -0.025000 0.000000
0.500000 0.000000 0.000000
0.525000 -0.075000 0.000000
0.525000 -0.050000 0.000000
0.525000 -0.025000 0.000000
0.525000 0.000000 0.000000
0.550000 -0.075000 0.000000
0.550000 -0.050000 0.000000
0.550000 -0.025000 0.000000
0.550000 0.000000 0.000000
0.575000 -0.075000 0.000000
0.575000 -0.050000 0.000000
0.575000 -0.025000 0.000000
0.575000 0.000000 0.000000
0.600000 -0.075000 0.000000
0.600000 -0.050000 0.000000
0.600000 -0.025000 0.000000
0.600000 0.000000 0.000000
0.625000 -0.075000 0.000000
0.625000 -0.050000 0.000000
0.625000 -0.025000 0.000000
0.625000 0.000000 0.000000
0.650000 -0.075000 0.000000
0.650000 -0.050000 0.000000
0.650000 -0.025000 0.000000
0.650000 0.000000 0.000000
0.675000 -0.075000 0.000000
0.675000 -0.050000 0.000000
0.675000 -0.025000 0.000000
0.675000 0.000000 0.000000
0.700000 -0.075000 0.000000
0.700000 -0.050000 0.000000
0.700000 -0.025000 0.000000
0.700000 0.000000 0.000000
0.725000 -0.075000 0.000000
0.725000 -0.050000 0.000000
0.725000 -0.025000 0.000000
0.725000 0.000000 0.000000
0.750000 -0.075000 0.000000
0.750000 -0.050000 0.000000
0.750000 -0.025000 0.000000
0.750000 0.000000 0.000000
0.775000 -0.075000 0.000000
0.775000 -0.050000 0.000000
0.775000 -0.025000 0.000000
0.775000 0.000000 0.000000
0.800000 -0.075000 0.000000
0.800000 -0.050000 0.000000
0.800000 -0.025000 0.000000
0.800000 0.000000 0.000000
0.825000 -0.075000 0.000000
0.825000 -0.050000 0.000000
0.825000 -0.025000 0.000000
0.825000 0.000000 0.000000
0.850000 -0.075000 0.000000
0.850000 -0.050000 0.000000
0.850000 -0.025000 0.000000
0.850000 0.000000 0.000000
0.875000 -0.075000 0.000000
0.875000 -0.050000 0.000000
0.875000 -0.025000 0.000000
0.875000 0.000000 0.000000
0.900000 -0.075000 0.000000
0.900000 -0.050000 0.000000
0.900000 -0.025000 0.000000
0.900000 0.000000 0.000000
0.925000 -0.075000 0.000000
0.925000 -0.050000 0.000000
0.925000 -0.025000 0.000000
0.925000 0.000000 0.000000
0.950000 -0.075000 0.000000
0.950000 -0.050000 0.000000
0.950000 -0.025000 0.000000
0.950000 0.000000 0.000000
0.975000 -0.075000 0.000000
0.975000 -0.050000 0.000000
0.975000 -0.025000 0.000000
0.975000 0.000000 0.000000
1.000000 -0.075000 0.000000
1.000000 -0.050000 0.000000
1.000000 -0.025000 0.000000
1.000000 0.000000 0.000000
1.025000 -0.075000 0.000000
1.025000 -0.050000 0.000000
1.025000 -0.025000 0.000000
1.025000 0.000000 0.000000
1.025000 0.025000 0.000000
1.025000 0.050000 0.000000
1.025000 0.075000 0.000000
1.025000 0.100000 0.000000
1.025000 0.125000 0.000000
1.025000 0.150000 0.000000
1.025000 0.175000 0.000000
1.025000 0.200000 0.000000
1.025000 0.225000 0.000000
1.025000 0.250000 0.000000
1.025000 0.275000 0.000000
1.025000 0.300000 0.000000
1.025000 0.325000 0.000000
1.025000 0.350000 0.000000
1.025000 0.375000 0.000000
1.025000 0.400000 0.000000
1.025000 0.425000 0.000000
1.025000 0.450000 0.000000
1.025000 0.475000 0.000000
1.025000 0.500000 0.000000
1.025000 0.525000 0.000000
1.025000 0.550000 0.000000
1.025000 0.575000 0.000000
1.025000 0.600000 0.000000
1.050000 -0.075000 0.000000
1.050000 -0.050000 0.000000
1.050000 -0.025000 0.000000
1.050000 0.000000 0.000000
1.050000 0.025000 0.000000
1.050000 0.050000 0.000000
1.050000 0.075000 0.000000
1.050000 0.100000 0.000000
1.050000 0.125000 0.000000
1.050000 0.150000 0.000000
1.050000 0.175000 0.000000
1.050000 0.200000 0.000000
1.050000 0.225000 0.000000
1.050000 0.250000 0.000000
1.050000 0.275000 0.000000
1.050000 0.300000 0.000000
1.050000 0.325000 0.000000
1.050000 0.350000 0.000000
1.050000 0.375000 0.000000
1.050000 0.400000 0.000000
1.050000 0.425000 0.000000
1.050000 0.450000 0.000000
1.050000 0.475000 0.000000
1.050000 0.500000 0.000000
1.050000 0.525000 0.000000
1.050000 0.550000 0.000000
1.050000 0.575000 0.000000
1.050000 0.600000 0.000000
1.075000 -0.075000 0.000000
1.075000 -0.050000 0.000000
1.075000 -0.025000 0.000000
1.075000 0.000000 0.000000
1.075000 0.025000 0.000000
1.075000 0.050000 0.000000
1.075000 0.075000 0.000000
1.075000 0.100000 0.000000
1.075000 0.125000 0.000000
1.075000 0.150000 0.000000
1.075000 0.175000 0.000000
1.075000 0.200000 0.000000
1.075000 0.225000 0.000000
1.075000 0.250000 0.000000
1.075000 0.275000 0.000000
1.075000 0.300000 0.000000
1.075000 0.325000 0.000000
1.075000 0.350000 0.000000
1.075000 0.375000 0.000000
1.075000 0.400000 0.000000
1.075000 0.425000 0.000000
1.075000 0.450000 0.000000
1.075000 0.475000 0.000000
1.075000 0.500000 0.000000
1.075000 0.525000 0.000000
1.075000 0.550000 0.000000
1.075000 0.575000 0.000000
1.075000 0.600000 0.000000
1.100000 -0.075000 0.000000
1.100000 -0.050000 0.000000
1.100000 -0.025000 0.000000
1.100000 0.000000 0.000000
1.100000 0.025000 0.000000
1.100000 0.050000 0.000000
1.100000 0.075000 0.000000
1.100000 0.100000 0.000000
1.100000 0.125000 0.000000
1.100000 0.150000 0.000000
1.100000 0.175000 0.000000
1.100000 0.200000 0.000000
1.100000 0.225000 0.000000
1.100000 0.250000 0.000000
1.100000 0.275000 0.000000
1.100000 0.300000 0.000000
1.100000 0.325000 0.000000
1.100000 0.350000 0.000000
1.100000 0.375000 0.000000
1.100000 0.400000 0.000000
1.100000 0.425000 0.000000
1.100000 0.450000 0.000000
1.100000 0.475000 0.000000
1.100000 0.500000 0.000000
1.100000 0.525000 0.000000
1.100000 0.550000 0.000000
1.100000 0.575000 0.000000
1.100000 0.600000 0.000000
</DataArray>
</Points>
<PointData>
<DataArray NumberOfComponents='1' type='Int32' Name='ParticleType' format='ascii'>
3
3
3
3
3
3
3
3
3
3
3
3
3
3
3
3
3
3
3
3
3
3
3
3
3
3
2
2
3
3
3
3
3
3
3
3
3
3
3
3
3
3
3
3
3
3
3
3
3
3
3
3
3
3
2
2
3
3
2
2
2
2
2
2
2
2
2
2
2
2
2
2
2
2
2
2
2
2
2
2
2
2
2
2
3
3
2
2
2
2
2
2
2
2
2
2
2
2
2
2
2
2
2
2
2
2
2
2
2
2
2
2
3
3
2
2
0
0
0
0
0
0
0
0
0
0
0
0
0
0
0
0
0
0
0
0
3
3
2
2
0
0
0
0
0
0
0
0
0
0
0
0
0
0
0
0
0
0
0
0
3
3
2
2
0
0
0
0
0
0
0
0
0
0
0
0
0
0
0
0
0
0
0
0
3
3
2
2
0
0
0
0
0
0
0
0
0
0
0
0
0
0
0
0
0
0
0
0
3
3
2
2
0
0
0
0
0
0
0
0
0
0
0
0
0
0
0
0
0
0
0
0
3
3
2
2
0
0
0
0
0
0
0
0
0
0
0
0
0
0
0
0
0
0
0
0
3
3
2
2
0
0
0
0
0
0
0
0
0
0
0
0
0
0
0
0
0
0
0
0
3
3
2
2
0
0
0
0
0
0
0
0
0
0
0
0
0
0
0
0
0
0
0
0
3
3
2
2
0
0
0
0
0
0
0
0
0
0
0
0
0
0
0
0
0
0
0
0
3
3
2
2
0
0
0
0
0
0
0
0
0
0
0
0
0
0
0
0
0
0
0
0
3
3
2
2
3
3
2
2
3
3
2
2
3
3
2
2
3
3
2
2
3
3
2
2
3
3
2
2
3
3
2
2
3
3
2
2
3
3
2
2
3
3
2
2
3
3
2
2
3
3
2
2
3
3
2
2
3
3
2
2
3
3
2
2
3
3
2
2
3
3
2
2
3
3
2
2
3
3
2
2
3
3
2
2
3
3
2
2
3
3
2
2
3
3
2
2
3
3
2
2
3
3
2
2
3
3
2
2
3
3
2
2
3
3
2
2
3
3
2
2
3
3
2
2
2
2
2
2
2
2
2
2
2
2
2
2
2
2
2
2
2
2
2
2
2
2
2
2
3
3
2
2
2
2
2
2
2
2
2
2
2
2
2
2
2
2
2
2
2
2
2
2
2
2
2
2
3
3
3
3
3
3
3
3
3
3
3
3
3
3
3
3
3
3
3
3
3
3
3
3
3
3
2
2
3
3
3
3
3
3
3
3
3
3
3
3
3
3
3
3
3
3
3
3
3
3
3
3
3
3
2
2
</DataArray>
<DataArray NumberOfComponents='1' type='Float32' Name='Velocity' format='ascii'>
0.000000
0.000000
0.000000
0.000000
0.000000
0.000000
0.000000
0.000000
0.000000
0.000000
0.000000
0.000000
0.000000
0.000000
0.000000
0.000000
0.000000
0.000000
0.000000
0.000000
0.000000
0.000000
0.000000
0.000000
0.000000
0.000000
0.000000
0.000000
0.000000
0.000000
0.000000
0.000000
0.000000
0.000000
0.000000
0.000000
0.000000
0.000000
0.000000
0.000000
0.000000
0.000000
0.000000
0.000000
0.000000
0.000000
0.000000
0.000000
0.000000
0.000000
0.000000
0.000000
0.000000
0.000000
0.000000
0.000000
0.000000
0.000000
0.000000
0.000000
0.000000
0.000000
0.000000
0.000000
0.000000
0.000000
0.000000
0.000000
0.000000
0.000000
0.000000
0.000000
0.000000
0.000000
0.000000
0.000000
0.000000
0.000000
0.000000
0.000000
0.000000
0.000000
0.000000
0.000000
0.000000
0.000000
0.000000
0.000000
0.000000
0.000000
0.000000
0.000000
0.000000
0.000000
0.000000
0.000000
0.000000
0.000000
0.000000
0.000000
0.000000
0.000000
0.000000
0.000000
0.000000
0.000000
0.000000
0.000000
0.000000
0.000000
0.000000
0.000000
0.000000
0.000000
0.000000
0.000000
0.474333
0.414406
0.173564
0.058482
0.196261
0.502866
0.107871
0.418982
0.134849
1.002959
0.235358
0.521711
0.283750
0.360899
0.096126
0.139210
0.552334
0.063966
1.308876
0.615705
0.000000
0.000000
0.000000
0.000000
0.138685
0.254542
0.917216
0.035075
0.589272
0.217652
0.181845
0.127559
0.347906
0.143183
0.137330
0.168162
0.500022
0.471177
0.449473
0.318123
0.133863
0.271798
0.518966
0.502871
0.000000
0.000000
0.000000
0.000000
0.226278
0.233226
0.139940
0.133887
0.201835
0.563931
0.604444
0.365181
0.394880
0.796388
0.233173
0.269078
0.367480
0.265712
0.330801
0.337889
0.137682
0.270623
0.150967
0.562635
0.000000
0.000000
0.000000
0.000000
0.350056
0.190353
0.388917
0.124725
0.236914
0.249301
0.493987
0.023575
0.163366
0.299989
0.339347
0.132390
0.356431
0.208468
0.183545
0.198129
0.141053
0.184909
0.317819
0.208743
0.000000
0.000000
0.000000
0.000000
0.291627
0.584752
0.058303
0.107201
0.253864
0.113947
0.602268
0.349315
0.094083
0.110445
0.218978
0.475919
0.062816
0.791762
0.170266
0.441986
0.559055
0.461270
0.587724
0.569098
0.000000
0.000000
0.000000
0.000000
0.598389
0.172919
0.743271
0.041800
0.024362
0.281818
0.053646
0.236547
0.118773
0.279095
0.746133
0.241060
0.119147
0.319373
0.122391
0.214219
0.168199
0.396709
0.171264
0.344965
0.000000
0.000000
0.000000
0.000000
0.567480
1.137884
0.038352
0.344979
0.088032
0.991643
0.034650
0.227767
0.191840
0.283820
0.455381
0.161764
0.388919
0.351368
0.084494
0.093174
0.075876
0.346181
0.375670
0.526076
0.000000
0.000000
0.000000
0.000000
0.172744
0.162906
0.169974
0.393875
0.204470
0.461478
0.409207
0.134032
0.513749
0.498837
0.220995
0.369493
0.264046
0.462329
0.430674
1.174770
0.344824
0.273410
0.419591
0.396824
0.000000
0.000000
0.000000
0.000000
0.268777
0.195620
0.471072
0.649893
0.671148
0.378115
0.430219
0.252389
0.603951
0.381810
0.740578
0.896860
0.080711
0.234273
0.164899
0.635768
0.402396
0.305613
0.237985
0.058720
0.000000
0.000000
0.000000
0.000000
0.206905
0.454780
0.692032
0.036522
0.080387
0.753579
0.214909
0.186830
0.245185
0.117640
0.435852
0.538025
0.319275
0.336192
0.241602
0.318041
0.443743
0.388680
0.524053
0.201941
0.000000
0.000000
0.000000
0.000000
0.000000
0.000000
0.000000
0.000000
0.000000
0.000000
0.000000
0.000000
0.000000
0.000000
0.000000
0.000000
0.000000
0.000000
0.000000
0.000000
0.000000
0.000000
0.000000
0.000000
0.000000
0.000000
0.000000
0.000000
0.000000
0.000000
0.000000
0.000000
0.000000
0.000000
0.000000
0.000000
0.000000
0.000000
0.000000
0.000000
0.000000
0.000000
0.000000
0.000000
0.000000
0.000000
0.000000
0.000000
0.000000
0.000000
0.000000
0.000000
0.000000
0.000000
0.000000
0.000000
0.000000
0.000000
0.000000
0.000000
0.000000
0.000000
0.000000
0.000000
0.000000
0.000000
0.000000
0.000000
0.000000
0.000000
0.000000
0.000000
0.000000
0.000000
0.000000
0.000000
0.000000
0.000000
0.000000
0.000000
0.000000
0.000000
0.000000
0.000000
0.000000
0.000000
0.000000
0.000000
0.000000
0.000000
0.000000
0.000000
0.000000
0.000000
0.000000
0.000000
0.000000
0.000000
0.000000
0.000000
0.000000
0.000000
0.000000
0.000000
0.000000
0.000000
0.000000
0.000000
0.000000
0.000000
0.000000
0.000000
0.000000
0.000000
0.000000
0.000000
0.000000
0.000000
0.000000
0.000000
0.000000
0.000000
0.000000
0.000000
0.000000
0.000000
0.000000
0.000000
0.000000
0.000000
0.000000
0.000000
0.000000
0.000000
0.000000
0.000000
0.000000
0.000000
0.000000
0.000000
0.000000
0.000000
0.000000
0.000000
0.000000
0.000000
0.000000
0.000000
0.000000
0.000000
0.000000
0.000000
0.000000
0.000000
0.000000
0.000000
0.000000
0.000000
0.000000
0.000000
0.000000
0.000000
0.000000
0.000000
0.000000
0.000000
0.000000
0.000000
0.000000
0.000000
0.000000
0.000000
0.000000
0.000000
0.000000
0.000000
0.000000
0.000000
0.000000
0.000000
0.000000
0.000000
0.000000
0.000000
0.000000
0.000000
0.000000
0.000000
0.000000
0.000000
0.000000
0.000000
0.000000
0.000000
0.000000
0.000000
0.000000
0.000000
0.000000
0.000000
0.000000
0.000000
0.000000
0.000000
0.000000
0.000000
0.000000
0.000000
0.000000
0.000000
0.000000
0.000000
0.000000
0.000000
0.000000
0.000000
0.000000
0.000000
0.000000
0.000000
0.000000
0.000000
0.000000
0.000000
0.000000
0.000000
0.000000
0.000000
0.000000
0.000000
0.000000
0.000000
</DataArray>
<DataArray NumberOfComponents='1' type='Float32' Name='pressure' format='ascii'>
0.000000
0.000000
0.000000
0.000000
0.000000
0.000000
0.000000
0.000000
0.000000
0.000000
0.000000
0.000000
0.000000
0.000000
0.000000
0.000000
0.000000
0.000000
0.000000
0.000000
0.000000
0.000000
0.000000
0.000000
0.000000
0.000000
0.000000
0.000000
0.000000
0.000000
0.000000
0.000000
0.000000
0.000000
0.000000
0.000000
0.000000
0.000000
0.000000
0.000000
0.000000
0.000000
0.000000
0.000000
0.000000
0.000000
0.000000
0.000000
0.000000
0.000000
0.000000
0.000000
0.000000
0.000000
0.000000
0.000000
0.000000
0.000000
1925.541992
1975.343262
2260.068359
1907.001709
540.636536
1185.094971
820.816467
102.332443
1875.617798
2342.623291
0.000000
0.000000
0.000000
0.000000
0.000000
0.000000
0.000000
0.000000
0.000000
0.000000
0.000000
0.000000
0.000000
0.000000
0.000000
0.000000
0.000000
0.000000
1868.477417
1939.627808
2367.447754
1804.754028
801.342285
667.104675
0.000000
0.000000
1701.624756
1439.733398
0.000000
0.000000
0.000000
0.000000
0.000000
0.000000
0.000000
0.000000
0.000000
0.000000
0.000000
0.000000
0.000000
0.000000
0.000000
0.000000
0.000000
0.000000
1592.217651
1613.538208
564.015442
0.000000
1291.292236
1045.110718
1403.053467
1171.266113
948.685791
1078.019287
391.138397
0.000000
1052.585327
0.000000
2668.570068
1588.461182
0.000000
1479.947754
0.000000
1879.307861
3841.594238
0.000000
0.000000
0.000000
2100.013916
1961.430420
0.000000
0.000000
0.000000
1397.871582
0.000000
0.000000
0.000000
1236.935059
0.000000
0.000000
1729.920898
522.469238
0.000000
0.000000
1622.078613
1281.739746
0.000000
0.000000
0.000000
763.893921
0.000000
0.000000
2786.059814
2131.027344
0.000000
0.000000
1414.720825
1495.077759
0.000000
758.353943
0.000000
0.000000
265.623352
0.000000
1197.627075
0.000000
0.000000
0.000000
560.040771
1557.468018
0.000000
1743.593872
0.000000
234.440536
0.000000
0.000000
1960.222168
1483.213257
216.327301
0.000000
715.580566
0.000000
0.000000
0.000000
407.501343
0.000000
1440.357788
756.203552
1003.940735
0.000000
185.275558
0.000000
0.000000
863.830566
1431.641724
723.039551
835.596802
0.000000
0.000000
0.000000
579.470093
209.599136
2062.441650
0.000000
0.000000
619.489746
0.000000
460.596466
0.000000
421.852783
490.651978
0.000000
0.000000
0.000000
1340.031006
0.000000
292.717834
0.000000
0.000000
493.184570
0.000000
0.000000
0.000000
0.000000
1660.908325
1240.462646
0.000000
0.000000
0.000000
1379.197510
0.000000
707.582642
0.000000
586.987549
313.901611
0.000000
0.000000
52.484474
0.000000
0.000000
0.000000
0.000000
957.777466
0.000000
0.000000
0.000000
0.000000
0.000000
559.314758
0.000000
0.000000
0.000000
416.596680
0.000000
0.000000
0.000000
275.777740
873.987000
675.413086
646.717468
325.258270
30.474855
1282.117554
0.000000
0.000000
578.017456
0.000000
0.000000
140.533813
0.000000
0.000000
0.000000
773.231689
597.704956
1082.351196
668.807678
1385.843018
0.000000
1049.974487
828.014954
748.471924
0.000000
0.000000
880.385193
0.000000
0.000000
2423.949951
0.000000
0.000000
0.000000
1106.829834
0.000000
0.000000
0.000000
0.000000
0.000000
1278.688477
1556.921143
0.000000
1499.324219
0.000000
0.000000
0.000000
0.000000
0.000000
0.000000
0.000000
396.357483
0.000000
0.000000
817.686523
0.000000
765.649170
0.000000
0.000000
2286.555908
404.174744
1116.992432
0.000000
0.000000
644.352722
392.482391
645.276917
0.000000
57.156944
0.000000
1635.030273
0.000000
0.000000
0.000000
0.000000
0.000000
0.000000
0.000000
0.000000
1712.811035
135.623978
1250.895630
0.000000
0.000000
1355.411621
0.000000
0.000000
0.000000
1960.994995
1491.129883
0.000000
0.000000
2740.756592
1455.375610
0.000000
0.000000
2773.414307
2333.708252
0.000000
0.000000
2530.042236
2480.226074
0.000000
0.000000
797.599426
279.210815
0.000000
0.000000
816.664124
1151.704712
0.000000
0.000000
1228.652344
518.003906
0.000000
0.000000
1716.805664
1456.248169
0.000000
0.000000
1012.047058
1068.035156
0.000000
0.000000
1037.762939
1371.536499
0.000000
0.000000
558.399353
2192.520020
0.000000
0.000000
0.000000
724.218018
0.000000
0.000000
0.000000
0.000000
0.000000
0.000000
0.000000
0.000000
0.000000
0.000000
926.550476
879.880493
0.000000
0.000000
2135.969482
2159.684082
0.000000
0.000000
2043.043579
575.915527
0.000000
0.000000
2277.005615
1278.353394
0.000000
0.000000
2510.577637
1538.753662
0.000000
0.000000
2036.932129
1158.882324
0.000000
0.000000
1649.746582
1246.813965
0.000000
0.000000
253.352310
388.415649
0.000000
0.000000
0.000000
0.000000
0.000000
0.000000
0.000000
315.390381
0.000000
0.000000
1732.654053
755.100220
0.000000
0.000000
1224.598877
0.000000
0.000000
0.000000
1351.926270
1472.998413
0.000000
0.000000
341.250061
395.590149
0.000000
0.000000
65.959251
0.000000
0.000000
0.000000
0.000000
0.000000
0.000000
0.000000
0.000000
0.000000
0.000000
0.000000
0.000000
0.000000
0.000000
0.000000
0.000000
0.000000
0.000000
0.000000
0.000000
0.000000
0.000000
0.000000
0.000000
0.000000
0.000000
0.000000
0.000000
0.000000
0.000000
0.000000
0.000000
0.000000
0.000000
0.000000
0.000000
0.000000
0.000000
0.000000
0.000000
0.000000
0.000000
0.000000
0.000000
0.000000
0.000000
0.000000
0.000000
0.000000
0.000000
0.000000
0.000000
0.000000
0.000000
0.000000
0.000000
0.000000
0.000000
0.000000
0.000000
0.000000
0.000000
0.000000
0.000000
0.000000
0.000000
0.000000
0.000000
0.000000
0.000000
0.000000
0.000000
0.000000
0.000000
0.000000
0.000000
0.000000
0.000000
0.000000
0.000000
0.000000
0.000000
0.000000
0.000000
0.000000
0.000000
0.000000
0.000000
0.000000
0.000000
0.000000
0.000000
0.000000
0.000000
0.000000
0.000000
0.000000
0.000000
0.000000
0.000000
0.000000
0.000000
0.000000
0.000000
0.000000
0.000000
0.000000
0.000000
0.000000
0.000000
0.000000
0.000000
0.000000
0.000000
0.000000
0.000000
0.000000
</DataArray>
</PointData>
<Cells>
<DataArray type='Int32' Name='connectivity' format='ascii'>
0
1
2
3
4
5
6
7
8
9
10
11
12
13
14
15
16
17
18
19
20
21
22
23
24
25
26
27
28
29
30
31
32
33
34
35
36
37
38
39
40
41
42
43
44
45
46
47
48
49
50
51
52
53
54
55
56
57
58
59
60
61
62
63
64
65
66
67
68
69
70
71
72
73
74
75
76
77
78
79
80
81
82
83
84
85
86
87
88
89
90
91
92
93
94
95
96
97
98
99
100
101
102
103
104
105
106
107
108
109
110
111
112
113
114
115
116
117
118
119
120
121
122
123
124
125
126
127
128
129
130
131
132
133
134
135
136
137
138
139
140
141
142
143
144
145
146
147
148
149
150
151
152
153
154
155
156
157
158
159
160
161
162
163
164
165
166
167
168
169
170
171
172
173
174
175
176
177
178
179
180
181
182
183
184
185
186
187
188
189
190
191
192
193
194
195
196
197
198
199
200
201
202
203
204
205
206
207
208
209
210
211
212
213
214
215
216
217
218
219
220
221
222
223
224
225
226
227
228
229
230
231
232
233
234
235
236
237
238
239
240
241
242
243
244
245
246
247
248
249
250
251
252
253
254
255
256
257
258
259
260
261
262
263
264
265
266
267
268
269
270
271
272
273
274
275
276
277
278
279
280
281
282
283
284
285
286
287
288
289
290
291
292
293
294
295
296
297
298
299
300
301
302
303
304
305
306
307
308
309
310
311
312
313
314
315
316
317
318
319
320
321
322
323
324
325
326
327