<?xml version='1.0' encoding='UTF-8'?>
<VTKFile xmlns='VTK' byte_order='LittleEndian' version='0.1' type='UnstructuredGrid'>
<UnstructuredGrid>
<Piece NumberOfCells='584' NumberOfPoints='584'>
<Points>
<DataArray NumberOfComponents='3' type='Float32' Name='Position' format='ascii'>
-0.075000 -0.075000 0.000000
-0.075000 -0.050000 0.000000
-0.075000 -0.025000 0.000000
-0.075000 0.000000 0.000000
-0.075000 0.025000 0.000000
-0.075000 0.050000 0.000000
-0.075000 0.075000 0.000000
-0.075000 0.100000 0.000000
-0.075000 0.125000 0.000000
-0.075000 0.150000 0.000000
-0.075000 0.175000 0.000000
-0.075000 0.200000 0.000000
-0.075000 0.225000 0.000000
-0.075000 0.250000 0.000000
-0.075000 0.275000 0.000000
-0.075000 0.300000 0.000000
-0.075000 0.325000 0.000000
-0.075000 0.350000 0.000000
-0.075000 0.375000 0.000000
-0.075000 0.400000 0.000000
-0.075000 0.425000 0.000000
-0.075000 0.450000 0.000000
-0.075000 0.475000 0.000000
-0.075000 0.500000 0.000000
-0.075000 0.525000 0.000000
-0.075000 0.550000 0.000000
-0.075000 0.575000 0.000000
-0.075000 0.600000 0.000000
-0.050000 -0.075000 0.000000
-0.050000 -0.050000 0.000000
-0.050000 -0.025000 0.000000
-0.050000 0.000000 0.000000
-0.050000 0.025000 0.000000
-0.050000 0.050000 0.000000
-0.050000 0.075000 0.000000
-0.050000 0.100000 0.000000
-0.050000 0.125000 0.000000
-0.050000 0.150000 0.000000
-0.050000 0.175000 0.000000
-0.050000 0.200000 0.000000
-0.050000 0.225000 0.000000
-0.050000 0.250000 0.000000
-0.050000 0.275000 0.000000
-0.050000 0.300000 0.000000
-0.050000 0.325000 0.000000
-0.050000 0.350000 0.000000
-0.050000 0.375000 0.000000
-0.050000 0.400000 0.000000
-0.050000 0.425000 0.000000
-0.050000 0.450000 0.000000
-0.050000 0.475000 0.000000
-0.050000 0.500000 0.000000
-0.050000 0.525000 0.000000
-0.050000 0.550000 0.000000
-0.050000 0.575000 0.000000
-0.050000 0.600000 0.000000
-0.025000 -0.075000 0.000000
-0.025000 -0.050000 0.000000
-0.025000 -0.025000 0.000000
-0.025000 0.000000 0.000000
-0.025000 0.025000 0.000000
-0.025000 0.050000 0.000000
-0.025000 0.075000 0.000000
-0.025000 0.100000 0.000000
-0.025000 0.125000 0.000000
-0.025000 0.150000 0.000000
-0.025000 0.175000 0.000000
-0.025000 0.200000 0.000000
-0.025000 0.225000 0.000000
-0.025000 0.250000 0.000000
-0.025000 0.275000 0.000000
-0.025000 0.300000 0.000000
-0.025000 0.325000 0.000000
-0.025000 0.350000 0.000000
-0.025000 0.375000 0.000000
-0.025000 0.400000 0.000000
-0.025000 0.425000 0.000000
-0.025000 0.450000 0.000000
-0.025000 0.475000 0.000000
-0.025000 0.500000 0.000000
-0.025000 0.525000 0.000000
-0.025000 0.550000 0.000000
-0.025000 0.575000 0.000000
-0.025000 0.600000 0.000000
0.000000 -0.075000 0.000000
0.000000 -0.050000 0.000000
0.000000 -0.025000 0.000000
0.000000 0.000000 0.000000
0.000000 0.025000 0.000000
0.000000 0.050000 0.000000
0.000000 0.075000 0.000000
0.000000 0.100000 0.000000
0.000000 0.125000 0.000000
0.000000 0.150000 0.000000
0.000000 0.175000 0.000000
0.000000 0.200000 0.000000
0.000000 0.225000 0.000000
0.000000 0.250000 0.000000
0.000000 0.275000 0.000000
0.000000 0.300000 0.000000
0.000000 0.325000 0.000000
0.000000 0.350000 0.000000
0.000000 0.375000 0.000000
0.000000 0.400000 0.000000
0.000000 0.425000 0.000000
0.000000 0.450000 0.000000
0.000000 0.475000 0.000000
0.000000 0.500000 0.000000
0.000000 0.525000 0.000000
0.000000 0.550000 0.000000
0.000000 0.575000 0.000000
0.000000 0.600000 0.000000
0.025000 -0.075000 0.000000
0.025000 -0.050000 0.000000
0.025000 -0.025000 0.000000
0.025000 0.000000 0.000000
0.038637 0.020902 0.000000
0.020811 0.041169 0.000000
0.049948 0.055940 0.000000
0.025388 0.065489 0.000000
0.042860 0.081263 0.000000
0.023629 0.098326 0.000000
0.040359 0.110660 0.000000
0.023431 0.131023 0.000000
0.031861 0.149319 0.000000
0.025821 0.169851 0.000000
0.029083 0.190265 0.000000
0.026034 0.211088 0.000000
0.026593 0.232793 0.000000
0.026896 0.253768 0.000000
0.025849 0.276701 0.000000
0.025844 0.298528 0.000000
0.024315 0.322737 0.000000
0.025461 0.345656 0.000000
0.026082 0.371135 0.000000
0.025077 0.390372 0.000000
0.050000 -0.075000 0.000000
0.050000 -0.050000 0.000000
0.050000 -0.025000 0.000000
0.050000 0.000000 0.000000
0.085985 0.021097 0.000000
0.056298 0.031830 0.000000
0.073326 0.054109 0.000000
0.086371 0.070999 0.000000
0.066961 0.087149 0.000000
0.080065 0.103916 0.000000
0.063457 0.118396 0.000000
0.069233 0.137788 0.000000
0.061375 0.153616 0.000000
0.064459 0.173662 0.000000
0.060722 0.191051 0.000000
0.061690 0.211019 0.000000
0.059178 0.229748 0.000000
0.059640 0.250104 0.000000
0.057102 0.270160 0.000000
0.056576 0.290990 0.000000
0.054650 0.312039 0.000000
0.054535 0.333601 0.000000
0.052626 0.355578 0.000000
0.052502 0.380377 0.000000
0.075000 -0.075000 0.000000
0.075000 -0.050000 0.000000
0.075000 -0.025000 0.000000
0.075000 0.000000 0.000000
0.119861 0.021569 0.000000
0.092045 0.041590 0.000000
0.124345 0.045261 0.000000
0.117326 0.062614 0.000000
0.114713 0.081638 0.000000
0.107598 0.099036 0.000000
0.111287 0.117592 0.000000
0.103871 0.134439 0.000000
0.103519 0.152851 0.000000
0.100218 0.170869 0.000000
0.098936 0.189804 0.000000
0.096107 0.208991 0.000000
0.093786 0.228873 0.000000
0.091110 0.249491 0.000000
0.088702 0.270960 0.000000
0.086081 0.292487 0.000000
0.083819 0.316580 0.000000
0.080729 0.339230 0.000000
0.079265 0.365649 0.000000
0.075158 0.384543 0.000000
0.100000 -0.075000 0.000000
0.100000 -0.050000 0.000000
0.100000 -0.025000 0.000000
0.100000 0.000000 0.000000
0.172260 0.021610 0.000000
0.142169 0.030734 0.000000
0.162102 0.042742 0.000000
0.164599 0.067936 0.000000
0.151023 0.077696 0.000000
0.153704 0.096538 0.000000
0.147530 0.112946 0.000000
0.146850 0.131293 0.000000
0.138985 0.148336 0.000000
0.139360 0.166443 0.000000
0.132942 0.185714 0.000000
0.131500 0.204259 0.000000
0.125987 0.224334 0.000000
0.123541 0.244324 0.000000
0.119983 0.264953 0.000000
0.115167 0.285899 0.000000
0.113647 0.307491 0.000000
0.109411 0.329003 0.000000
0.106553 0.352082 0.000000
0.103387 0.375919 0.000000
0.125000 -0.075000 0.000000
0.125000 -0.050000 0.000000
0.125000 -0.025000 0.000000
0.125000 0.000000 0.000000
0.214156 0.021733 0.000000
0.186355 0.038967 0.000000
0.221998 0.045342 0.000000
0.196166 0.056564 0.000000
0.207052 0.076175 0.000000
0.191766 0.088499 0.000000
0.189429 0.106639 0.000000
0.186113 0.124713 0.000000
0.180789 0.142277 0.000000
0.175900 0.160679 0.000000
0.171629 0.179731 0.000000
0.167227 0.198920 0.000000
0.162494 0.219338 0.000000
0.157653 0.239678 0.000000
0.152797 0.261015 0.000000
0.147442 0.283000 0.000000
0.143243 0.306054 0.000000
0.136974 0.329659 0.000000
0.134373 0.354176 0.000000
0.126141 0.375789 0.000000
0.150000 -0.075000 0.000000
0.150000 -0.050000 0.000000
0.150000 -0.025000 0.000000
0.150000 0.000000 0.000000
0.268564 0.019088 0.000000
0.237578 0.028087 0.000000
0.267214 0.041145 0.000000
0.244225 0.053812 0.000000
0.233607 0.073692 0.000000
0.250086 0.091950 0.000000
0.227390 0.098365 0.000000
0.229072 0.119123 0.000000
0.218521 0.133858 0.000000
0.213878 0.153396 0.000000
0.207943 0.170752 0.000000
0.201712 0.190617 0.000000
0.195994 0.209675 0.000000
0.189415 0.229910 0.000000
0.183876 0.251045 0.000000
0.177424 0.272870 0.000000
0.170864 0.294702 0.000000
0.166210 0.317513 0.000000
0.160472 0.342010 0.000000
0.154761 0.366710 0.000000
0.175000 -0.075000 0.000000
0.175000 -0.050000 0.000000
0.175000 -0.025000 0.000000
0.175000 0.000000 0.000000
0.320689 0.021186 0.000000
0.302869 0.031147 0.000000
0.319523 0.051841 0.000000
0.283132 0.051546 0.000000
0.302478 0.068261 0.000000
0.277878 0.073822 0.000000
0.270969 0.091871 0.000000
0.272767 0.114144 0.000000
0.257770 0.127470 0.000000
0.255930 0.147703 0.000000
0.246521 0.165331 0.000000
0.240518 0.184315 0.000000
0.232827 0.204523 0.000000
0.225027 0.224554 0.000000
0.218115 0.246035 0.000000
0.209511 0.267768 0.000000
0.202918 0.289798 0.000000
0.193948 0.315165 0.000000
0.189102 0.339122 0.000000
0.177990 0.362182 0.000000
0.200000 -0.075000 0.000000
0.200000 -0.050000 0.000000
0.200000 -0.025000 0.000000
0.200000 0.000000 0.000000
0.439991 0.030353 0.000000
0.360396 0.023992 0.000000
0.382834 0.030000 0.000000
0.345343 0.036621 0.000000
0.359925 0.059642 0.000000
0.332115 0.068228 0.000000
0.322462 0.085922 0.000000
0.315461 0.102507 0.000000
0.306363 0.118117 0.000000
0.296970 0.134171 0.000000
0.288313 0.151706 0.000000
0.278226 0.169606 0.000000
0.269570 0.190023 0.000000
0.259056 0.209612 0.000000
0.250581 0.231827 0.000000
0.240459 0.253153 0.000000
0.232907 0.276708 0.000000
0.222503 0.300398 0.000000
0.215582 0.324455 0.000000
0.205668 0.352293 0.000000
0.225000 -0.075000 0.000000
0.225000 -0.050000 0.000000
0.225000 -0.025000 0.000000
0.225000 0.000000 0.000000
0.459109 0.021767 0.000000
0.473337 0.042585 0.000000
0.408755 0.021802 0.000000
0.431060 0.049213 0.000000
0.402334 0.041806 0.000000
0.405797 0.065676 0.000000
0.374740 0.063319 0.000000
0.373329 0.092036 0.000000
0.354517 0.100955 0.000000
0.346062 0.121098 0.000000
0.331502 0.140174 0.000000
0.318922 0.160531 0.000000
0.307026 0.182261 0.000000
0.295161 0.202446 0.000000
0.285537 0.225735 0.000000
0.273124 0.246957 0.000000
0.265753 0.271270 0.000000
0.251461 0.294479 0.000000
0.246269 0.321191 0.000000
0.229789 0.344077 0.000000
0.250000 -0.075000 0.000000
0.250000 -0.050000 0.000000
0.250000 -0.025000 0.000000
0.250000 0.000000 0.000000
0.562357 0.019366 0.000000
0.516882 0.027963 0.000000
0.495995 0.022379 0.000000
0.510217 0.045532 0.000000
0.499090 0.062744 0.000000
0.467044 0.062053 0.000000
0.454851 0.066541 0.000000
0.428080 0.077468 0.000000
0.409457 0.084542 0.000000
0.387068 0.104777 0.000000
0.374699 0.121032 0.000000
0.355992 0.142091 0.000000
0.344084 0.163768 0.000000
0.329581 0.185890 0.000000
0.317101 0.208536 0.000000
0.305621 0.231881 0.000000
0.293374 0.255021 0.000000
0.283211 0.279571 0.000000
0.271108 0.303058 0.000000
0.258409 0.329885 0.000000
0.275000 -0.075000 0.000000
0.275000 -0.050000 0.000000
0.275000 -0.025000 0.000000
0.275000 0.000000 0.000000
0.300000 -0.075000 0.000000
0.300000 -0.050000 0.000000
0.300000 -0.025000 0.000000
0.300000 0.000000 0.000000
0.325000 -0.075000 0.000000
0.325000 -0.050000 0.000000
0.325000 -0.025000 0.000000
0.325000 0.000000 0.000000
0.350000 -0.075000 0.000000
0.350000 -0.050000 0.000000
0.350000 -0.025000 0.000000
0.350000 0.000000 0.000000
0.375000 -0.075000 0.000000
0.375000 -0.050000 0.000000
0.375000 -0.025000 0.000000
0.375000 0.000000 0.000000
0.400000 -0.075000 0.000000
0.400000 -0.050000 0.000000
0.400000 -0.025000 0.000000
0.400000 0.000000 0.000000
0.425000 -0.075000 0.000000
0.425000 -0.050000 0.000000
0.425000 -0.025000 0.000000
0.425000 0.000000 0.000000
0.450000 -0.075000 0.000000
0.450000 -0.050000 0.000000
0.450000 -0.025000 0.000000
0.450000 0.000000 0.000000
0.475000 -0.075000 0.000000
0.475000 -0.050000 0.000000
0.475000 -0.025000 0.000000
0.475000 0.000000 0.000000
0.500000 -0.075000 0.000000
0.500000 -0.050000 0.000000
0.500000 -0.025000 0.000000
0.500000 0.000000 0.000000
0.525000 -0.075000 0.000000
0.525000 -0.050000 0.000000
0.525000 -0.025000 0.000000
0.525000 0.000000 0.000000
0.550000 -0.075000 0.000000
0.550000 -0.050000 0.000000
0.550000 -0.025000 0.000000
0.550000 0.000000 0.000000
0.575000 -0.075000 0.000000
0.575000 -0.050000 0.000000
0.575000 -0.025000 0.000000
0.575000 0.000000 0.000000
0.600000 -0.075000 0.000000
0.600000 -0.050000 0.000000
0.600000 -0.025000 0.000000
0.600000 0.000000 0.000000
0.625000 -0.075000 0.000000
0.625000 -0.050000 0.000000
0.625000 -0.025000 0.000000
0.625000 0.000000 0.000000
0.650000 -0.075000 0.000000
0.650000 -0.050000 0.000000
0.650000 -0.025000 0.000000
0.650000 0.000000 0.000000
0.675000 -0.075000 0.000000
0.675000 -0.050000 0.000000
0.675000 -0.025000 0.000000
0.675000 0.000000 0.000000
0.700000 -0.075000 0.000000
0.700000 -0.050000 0.000000
0.700000 -0.025000 0.000000
0.700000 0.000000 0.000000
0.725000 -0.075000 0.000000
0.725000 -0.050000 0.000000
0.725000 -0.025000 0.000000
0.725000 0.000000 0.000000
0.750000 -0.075000 0.000000
0.750000 -0.050000 0.000000
0.750000 -0.025000 0.000000
0.750000 0.000000 0.000000
0.775000 -0.075000 0.000000
0.775000 -0.050000 0.000000
0.775000 -0.025000 0.000000
0.775000 0.000000 0.000000
0.800000 -0.075000 0.000000
0.800000 -0.050000 0.000000
0.800000 -0.025000 0.000000
0.800000 0.000000 0.000000
0.825000 -0.075000 0.000000
0.825000 -0.050000 0.000000
0.825000 -0.025000 0.000000
0.825000 0.000000 0.000000
0.850000 -0.075000 0.000000
0.850000 -0.050000 0.000000
0.850000 -0.025000 0.000000
0.850000 0.000000 0.000000
0.875000 -0.075000 0.000000
0.875000 -0.050000 0.000000
0.875000 -0.025000 0.000000
0.875000 0.000000 0.000000
0.900000 -0.075000 0.000000
0.900000 -0.050000 0.000000
0.900000 -0.025000 0.000000
0.900000 0.000000 0.000000
0.925000 -0.075000 0.000000
0.925000 -0.050000 0.000000
0.925000 -0.025000 0.000000
0.925000 0.000000 0.000000
0.950000 -0.075000 0.000000
0.950000 -0.050000 0.000000
0.950000 -0.025000 0.000000
0.950000 0.000000 0.000000
0.975000 -0.075000 0.000000
0.975000 -0.050000 0.000000
0.975000 -0.025000 0.000000
0.975000 0.000000 0.000000
1.000000 -0.075000 0.000000
1.000000 -0.050000 0.000000
1.000000 -0.025000 0.000000
1.000000 0.000000 0.000000
1.025000 -0.075000 0.000000
1.025000 -0.050000 0.000000
1.025000 -0.025000 0.000000
1.025000 0.000000 0.000000
1.025000 0.025000 0.000000
1.025000 0.050000 0.000000
1.025000 0.075000 0.000000
1.025000 0.100000 0.000000
1.025000 0.125000 0.000000
1.025000 0.150000 0.000000
1.025000 0.175000 0.000000
1.025000 0.200000 0.000000
1.025000 0.225000 0.000000
1.025000 0.250000 0.000000
1.025000 0.275000 0.000000
1.025000 0.300000 0.000000
1.025000 0.325000 0.000000
1.025000 0.350000 0.000000
1.025000 0.375000 0.000000
1.025000 0.400000 0.000000
1.025000 0.425000 0.000000
1.025000 0.450000 0.000000
1.025000 0.475000 0.000000
1.025000 0.500000 0.000000
1.025000 0.525000 0.000000
1.025000 0.550000 0.000000
1.025000 0.575000 0.000000
1.025000 0.600000 0.000000
1.050000 -0.075000 0.000000
1.050000 -0.050000 0.000000
1.050000 -0.025000 0.000000
1.050000 0.000000 0.000000
1.050000 0.025000 0.000000
1.050000 0.050000 0.000000
1.050000 0.075000 0.000000
1.050000 0.100000 0.000000
1.050000 0.125000 0.000000
1.050000 0.150000 0.000000
1.050000 0.175000 0.000000
1.050000 0.200000 0.000000
1.050000 0.225000 0.000000
1.050000 0.250000 0.000000
1.050000 0.275000 0.000000
1.050000 0.300000 0.000000
1.050000 0.325000 0.000000
1.050000 0.350000 0.000000
1.050000 0.375000 0.000000
1.050000 0.400000 0.000000
1.050000 0.425000 0.000000
1.050000 0.450000 0.000000
1.050000 0.475000 0.000000
1.050000 0.500000 0.000000
1.050000 0.525000 0.000000
1.050000 0.550000 0.000000
1.050000 0.575000 0.000000
1.050000 0.600000 0.000000
1.075000 -0.075000 0.000000
1.075000 -0.050000 0.000000
1.075000 -0.025000 0.000000
1.075000 0.000000 0.000000
1.075000 0.025000 0.000000
1.075000 0.050000 0.000000
1.075000 0.075000 0.000000
1.075000 0.100000 0.000000
1.075000 0.125000 0.000000
1.075000 0.150000 0.000000
1.075000 0.175000 0.000000
1.075000 0.200000 0.000000
1.075000 0.225000 0.000000
1.075000 0.250000 0.000000
1.075000 0.275000 0.000000
1.075000 0.300000 0.000000
1.075000 0.325000 0.000000
1.075000 0.350000 0.000000
1.075000 0.375000 0.000000
1.075000 0.400000 0.000000
1.075000 0.425000 0.000000
1.075000 0.450000 0.000000
1.075000 0.475000 0.000000
1.075000 0.500000 0.000000
1.075000 0.525000 0.000000
1.075000 0.550000 0.000000
1.075000 0.575000 0.000000
1.075000 0.600000 0.000000
1.100000 -0.075000 0.000000
1.100000 -0.050000 0.000000
1.100000 -0.025000 0.000000
1.100000 0.000000 0.000000
1.100000 0.025000 0.000000
1.100000 0.050000 0.000000
1.100000 0.075000 0.000000
1.100000 0.100000 0.000000
1.100000 0.125000 0.000000
1.100000 0.150000 0.000000
1.100000 0.175000 0.000000
1.100000 0.200000 0.000000
1.100000 0.225000 0.000000
1.100000 0.250000 0.000000
1.100000 0.275000 0.000000
1.100000 0.300000 0.000000
1.100000 0.325000 0.000000
1.100000 0.350000 0.000000
1.100000 0.375000 0.000000
1.100000 0.400000 0.000000
1.100000 0.425000 0.000000
1.100000 0.450000 0.000000
1.100000 0.475000 0.000000
1.100000 0.500000 0.000000
1.100000 0.525000 0.000000
1.100000 0.550000 0.000000
1.100000 0.575000 0.000000
1.100000 0.600000 0.000000
</DataArray>
</Points>
<PointData>
<DataArray NumberOfComponents='1' type='Int32' Name='ParticleType' format='ascii'>
3
3
3
3
3
3
3
3
3
3
3
3
3
3
3
3
3
3
3
3
3
3
3
3
3
3
2
2
3
3
3
3
3
3
3
3
3
3
3
3
3
3
3
3
3
3
3
3
3
3
3
3
3
3
2
2
3
3
2
2
2
2
2
2
2
2
2
2
2
2
2
2
2
2
2
2
2
2
2
2
2
2
2
2
3
3
2
2
2
2
2
2
2
2
2
2
2
2
2
2
2
2
2
2
2
2
2
2
2
2
2
2
3
3
2
2
0
0
0
0
0
0
0
0
0
0
0
0
0
0
0
0
0
0
0
0
3
3
2
2
0
0
0
0
0
0
0
0
0
0
0
0
0
0
0
0
0
0
0
0
3
3
2
2
0
0
0
0
0
0
0
0
0
0
0
0
0
0
0
0
0
0
0
0
3
3
2
2
0
0
0
0
0
0
0
0
0
0
0
0
0
0
0
0
0
0
0
0
3
3
2
2
0
0
0
0
0
0
0
0
0
0
0
0
0
0
0
0
0
0
0
0
3
3
2
2
0
0
0
0
0
0
0
0
0
0
0
0
0
0
0
0
0
0
0
0
3
3
2
2
0
0
0
0
0
0
0
0
0
0
0
0
0
0
0
0
0
0
0
0
3
3
2
2
0
0
0
0
0
0
0
0
0
0
0
0
0
0
0
0
0
0
0
0
3
3
2
2
0
0
0
0
0
0
0
0
0
0
0
0
0
0
0
0
0
0
0
0
3
3
2
2
0
0
0
0
0
0
0
0
0
0
0
0
0
0
0
0
0
0
0
0
3
3
2
2
3
3
2
2
3
3
2
2
3
3
2
2
3
3
2
2
3
3
2
2
3
3
2
2
3
3
2
2
3
3
2
2
3
3
2
2
3
3
2
2
3
3
2
2
3
3
2
2
3
3
2
2
3
3
2
2
3
3
2
2
3
3
2
2
3
3
2
2
3
3
2
2
3
3
2
2
3
3
2
2
3
3
2
2
3
3
2
2
3
3
2
2
3
3
2
2
3
3
2
2
3
3
2
2
3
3
2
2
3
3
2
2
3
3
2
2
3
3
2
2
2
2
2
2
2
2
2
2
2
2
2
2
2
2
2
2
2
2
2
2
2
2
2
2
3
3
2
2
2
2
2
2
2
2
2
2
2
2
2
2
2
2
2
2
2
2
2
2
2
2
2
2
3
3
3
3
3
3
3
3
3
3
3
3
3
3
3
3
3
3
3
3
3
3
3
3
3
3
2
2
3
3
3
3
3
3
3
3
3
3
3
3
3
3
3
3
3
3
3
3
3
3
3
3
3
3
2
2
</DataArray>
<DataArray NumberOfComponents='1' type='Float32' Name='Velocity' format='ascii'>
0.000000
0.000000
0.000000
0.000000
0.000000
0.000000
0.000000
0.000000
0.000000
0.000000
0.000000
0.000000
0.000000
0.000000
0.000000
0.000000
0.000000
0.000000
0.000000
0.000000
0.000000
0.000000
0.000000
0.000000
0.000000
0.000000
0.000000
0.000000
0.000000
0.000000
0.000000
0.000000
0.000000
0.000000
0.000000
0.000000
0.000000
0.000000
0.000000
0.000000
0.000000
0.000000
0.000000
0.000000
0.000000
0.000000
0.000000
0.000000
0.000000
0.000000
0.000000
0.000000
0.000000
0.000000
0.000000
0.000000
0.000000
0.000000
0.000000
0.000000
0.000000
0.000000
0.000000
0.000000
0.000000
0.000000
0.000000
0.000000
0.000000
0.000000
0.000000
0.000000
0.000000
0.000000
0.000000
0.000000
0.000000
0.000000
0.000000
0.000000
0.000000
0.000000
0.000000
0.000000
0.000000
0.000000
0.000000
0.000000
0.000000
0.000000
0.000000
0.000000
0.000000
0.000000
0.000000
0.000000
0.000000
0.000000
0.000000
0.000000
0.000000
0.000000
0.000000
0.000000
0.000000
0.000000
0.000000
0.000000
0.000000
0.000000
0.000000
0.000000
0.000000
0.000000
0.000000
0.000000
0.183386
0.070251
0.390168
0.324340
0.374166
0.622833
0.771791
0.620575
0.785867
0.744146
0.782194
0.760219
0.800216
0.762267
0.882311
0.939845
0.917396
0.895249
0.833293
0.912658
0.000000
0.000000
0.000000
0.000000
0.399300
0.257157
0.241395
0.826813
0.276640
0.719405
0.528679
0.621112
0.663784
0.708035
0.759775
0.739045
0.846110
0.820835
0.833407
0.772995
0.849538
0.840182
0.975811
0.996559
0.000000
0.000000
0.000000
0.000000
0.165803
0.395387
0.734100
0.493361
0.556587
0.355167
0.619059
0.481365
0.489158
0.555505
0.567639
0.705231
0.727539
0.736048
0.851246
0.952085
0.965393
1.011672
0.877037
0.957255
0.000000
0.000000
0.000000
0.000000
0.361926
0.499418
0.537288
0.749572
0.570663
0.761682
0.671117
0.644427
0.834819
0.749210
0.863068
0.845907
0.873783
0.922117
0.922742
0.888441
0.881770
0.936974
0.972946
1.016558
0.000000
0.000000
0.000000
0.000000
0.443857
0.772440
0.909911
0.767197
1.258056
0.715381
0.791633
0.794270
0.800607
0.740405
0.855737
0.871731
0.910107
0.953498
0.974068
1.024654
1.063340
1.099800
1.050343
1.059233
0.000000
0.000000
0.000000
0.000000
0.890193
0.824151
0.941229
0.937963
0.543398
1.265825
0.873505
1.115453
0.955533
1.122384
1.083290
1.043999
1.160197
1.117730
1.126156
1.202210
1.108865
1.132299
1.131597
1.141361
0.000000
0.000000
0.000000
0.000000
1.178861
1.208493
1.351255
1.164623
1.399492
1.157190
1.189643
1.221159
1.164471
1.099506
1.196797
1.158554
1.159515
1.157128
1.289171
1.170841
1.287945
1.253708
1.219514
1.212863
0.000000
0.000000
0.000000
0.000000
2.635695
1.675362
2.046225
1.438023
1.893754
1.775169
1.499090
1.453601
1.249629
1.377629
1.314952
1.336176
1.465999
1.570173
1.451079
1.499712
1.424001
1.440219
1.372896
1.355446
0.000000
0.000000
0.000000
0.000000
2.436663
2.679713
2.297010
2.197450
2.350390
2.242025
1.977159
1.866886
1.810780
1.885666
1.881934
1.824612
1.720233
1.635403
1.622002
1.619621
1.568975
1.534031
1.501857
1.432173
0.000000
0.000000
0.000000
0.000000
2.345836
2.311438
2.315202
2.525726
2.694866
2.519049
2.544472
2.555971
2.279773
2.217268
2.221628
2.079463
2.059849
2.020658
1.899536
1.861368
1.816761
1.751104
1.767270
1.630010
0.000000
0.000000
0.000000
0.000000
0.000000
0.000000
0.000000
0.000000
0.000000
0.000000
0.000000
0.000000
0.000000
0.000000
0.000000
0.000000
0.000000
0.000000
0.000000
0.000000
0.000000
0.000000
0.000000
0.000000
0.000000
0.000000
0.000000
0.000000
0.000000
0.000000
0.000000
0.000000
0.000000
0.000000
0.000000
0.000000
0.000000
0.000000
0.000000
0.000000
0.000000
0.000000
0.000000
0.000000
0.000000
0.000000
0.000000
0.000000
0.000000
0.000000
0.000000
0.000000
0.000000
0.000000
0.000000
0.000000
0.000000
0.000000
0.000000
0.000000
0.000000
0.000000
0.000000
0.000000
0.000000
0.000000
0.000000
0.000000
0.000000
0.000000
0.000000
0.000000
0.000000
0.000000
0.000000
0.000000
0.000000
0.000000
0.000000
0.000000
0.000000
0.000000
0.000000
0.000000
0.000000
0.000000
0.000000
0.000000
0.000000
0.000000
0.000000
0.000000
0.000000
0.000000
0.000000
0.000000
0.000000
0.000000
0.000000
0.000000
0.000000
0.000000
0.000000
0.000000
0.000000
0.000000
0.000000
0.000000
0.000000
0.000000
0.000000
0.000000
0.000000
0.000000
0.000000
0.000000
0.000000
0.000000
0.000000
0.000000
0.000000
0.000000
0.000000
0.000000
0.000000
0.000000
0.000000
0.000000
0.000000
0.000000
0.000000
0.000000
0.000000
0.000000
0.000000
0.000000
0.000000
0.000000
0.000000
0.000000
0.000000
0.000000
0.000000
0.000000
0.000000
0.000000
0.000000
0.000000
0.000000
0.000000
0.000000
0.000000
0.000000
0.000000
0.000000
0.000000
0.000000
0.000000
0.000000
0.000000
0.000000
0.000000
0.000000
0.000000
0.000000
0.000000
0.000000
0.000000
0.000000
0.000000
0.000000
0.000000
0.000000
0.000000
0.000000
0.000000
0.000000
0.000000
0.000000
0.000000
0.000000
0.000000
0.000000
0.000000
0.000000
0.000000
0.000000
0.000000
0.000000
0.000000
0.000000
0.000000
0.000000
0.000000
0.000000
0.000000
0.000000
0.000000
0.000000
0.000000
0.000000
0.000000
0.000000
0.000000
0.000000
0.000000
0.000000
0.000000
0.000000
0.000000
0.000000
0.000000
0.000000
0.000000
0.000000
0.000000
0.000000
0.000000
0.000000
0.000000
0.000000
0.000000
0.000000
0.000000
0.000000
0.000000
0.000000
0.000000
0.000000
0.000000
0.000000
0.000000
</DataArray>
<DataArray NumberOfComponents='1' type='Float32' Name='pressure' format='ascii'>
0.000000
0.000000
0.000000
0.000000
0.000000
0.000000
0.000000
0.000000
0.000000
0.000000
0.000000
0.000000
0.000000
0.000000
0.000000
0.000000
0.000000
0.000000
0.000000
0.000000
0.000000
0.000000
0.000000
0.000000
0.000000
0.000000
0.000000
0.000000
0.000000
0.000000
0.000000
0.000000
0.000000
0.000000
0.000000
0.000000
0.000000
0.000000
0.000000
0.000000
0.000000
0.000000
0.000000
0.000000
0.000000
0.000000
0.000000
0.000000
0.000000
0.000000
0.000000
0.000000
0.000000
0.000000
0.000000
0.000000
0.000000
0.000000
1428.622925
1494.434937
2401.857666
3690.053711
2426.391846
3211.559082
2737.858398
1035.169189
740.428528
110.292221
0.000000
0.000000
250.610855
307.897369
717.122620
33.649590
0.000000
0.000000
0.000000
0.000000
0.000000
0.000000
0.000000
0.000000
0.000000
0.000000
0.000000
0.000000
1746.096313
0.000000
0.000000
3532.305176
2029.823364
3340.176758
3201.734863
1094.318970
1209.422119
1269.025757
1489.908691
905.378052
706.388306
724.239807
1167.787476
531.961121
92.057732
0.000000
0.000000
0.000000
0.000000
0.000000
0.000000
0.000000
0.000000
0.000000
0.000000
0.000000
3286.734863
1367.560059
3671.514648
2523.128662
2562.136475
2983.019287
3214.344238
2770.224121
2801.176025
2024.628052
1885.150146
1941.704102
1773.298950
1347.468506
1584.454468
1013.387024
1345.109619
962.288330
649.697937
141.876099
0.000000
0.000000
0.000000
0.000000
4601.245605
3339.970459
2780.121338
2418.979004
4589.739746
2585.657715
2545.571045
2063.965576
2311.616699
1953.403809
1780.938232
1497.033325
1730.849365
1164.481201
1393.166870
1153.831909
1544.595825
985.935913
958.511047
583.650391
397.809845
0.000000
0.000000
0.000000
5452.129395
3871.747070
4967.463867
2643.257324
3775.947998
3579.683594
3004.114990
3629.088135
1897.026733
2750.936035
1946.983154
2354.132812
1586.060425
2063.010254
1375.167236
1282.408081
950.898682
0.000000
0.000000
0.000000
241.714279
0.000000
0.000000
0.000000
6235.491211
4677.771484
4711.072266
3482.576416
3071.927002
2579.245361
2265.709961
2017.892944
2278.124756
1003.181580
2234.340820
1106.911011
1381.046387
1379.355469
841.716248
1214.024048
985.026184
1182.655762
983.903320
753.353149
584.401245
0.000000
0.000000
0.000000
6123.356445
5703.812500
2378.591797
4295.257324
2476.816406
2908.619141
3863.307373
2596.830078
2868.324219
2847.879150
2828.470703
2353.397217
2294.675049
2073.335693
1611.313354
1405.811890
1084.096924
958.655518
487.485687
0.000000
128.954895
0.000000
0.000000
0.000000
4188.718750
2542.160400
3720.093994
3100.041016
3946.311035
2748.715088
2638.100098
2943.279541
1648.888062
1986.914062
1090.814331
1277.088257
1236.074951
639.549194
1247.125977
733.203796
491.710449
701.839294
733.556091
344.338501
911.331909
0.000000
0.000000
0.000000
5572.691895
5207.769531
1155.506226
344.980774
2797.314697
3316.069580
1936.120117
1344.383545
2907.344727
0.000000
1679.950073
1005.448303
1605.676147
1358.643555
1014.868958
953.392212
1172.723755
1001.635010
595.629883
481.551331
98.871559
0.000000
0.000000
0.000000
4639.908203
1924.445190
766.655823
1328.261719
109.441681
0.000000
79.978508
647.907349
1251.673828
2379.470215
1208.587769
2369.803467
1852.077026
594.760681
702.405762
406.453735
703.268494
0.000000
0.000000
218.174316
453.354523
0.000000
0.000000
0.000000
5074.199707
3920.907715
926.282043
0.000000
1730.667847
0.000000
2500.200684
1110.599121
243.012161
795.579285
0.000000
941.382629
85.433182
0.000000
1116.784424
729.577576
778.899231
553.886658
330.292145
482.767487
105.387779
0.000000
0.000000
0.000000
5331.960938
4003.233154
0.000000
0.000000
0.000000
0.000000
0.000000
1110.619873
0.000000
0.000000
0.000000
0.000000
0.000000
0.000000
0.000000
0.000000
0.000000
0.000000
0.000000
0.000000
0.000000
0.000000
0.000000
0.000000
6232.171875
5632.286621
0.000000
0.000000
3178.167969
0.000000
0.000000
0.000000
3761.098145
3910.564697
0.000000
0.000000
1696.717041
786.120972
0.000000
0.000000
880.801025
74.853737
0.000000
0.000000
1815.124390
1627.012817
0.000000
0.000000
1006.025696
0.000000
0.000000
0.000000
1619.049194
316.630646
0.000000
0.000000
1247.958740
0.000000
0.000000
0.000000
1669.613525
1618.193848
0.000000
0.000000
26.277639
0.000000
0.000000
0.000000
2143.852783
0.000000
0.000000
0.000000
1871.629639
0.000000
0.000000
0.000000
0.000000
0.000000
0.000000
0.000000
0.000000
0.000000
0.000000
0.000000
0.000000
0.000000
0.000000
0.000000
0.000000
0.000000
0.000000
0.000000
0.000000
0.000000
0.000000
0.000000
0.000000
0.000000
0.000000
0.000000
0.000000
0.000000
0.000000
0.000000
0.000000
0.000000
0.000000
0.000000
0.000000
0.000000
0.000000
0.000000
0.000000
0.000000
0.000000
0.000000
0.000000
0.000000
0.000000
0.000000
0.000000
0.000000
0.000000
0.000000
0.000000
0.000000
0.000000
0.000000
0.000000
0.000000
0.000000
0.000000
0.000000
0.000000
0.000000
0.000000
0.000000
0.000000
0.000000
0.000000
0.000000
0.000000
0.000000
0.000000
0.000000
0.000000
0.000000
0.000000
0.000000
0.000000
0.000000
0.000000
0.000000
0.000000
0.000000
0.000000
0.000000
0.000000
0.000000
0.000000
0.000000
0.000000
0.000000
0.000000
0.000000
0.000000
0.000000
0.000000
0.000000
0.000000
0.000000
0.000000
0.000000
0.000000
0.000000
0.000000
0.000000
0.000000
0.000000
0.000000
0.000000
0.000000
0.000000
0.000000
0.000000
0.000000
0.000000
0.000000
0.000000
0.000000
0.000000
0.000000
0.000000
0.000000
0.000000
0.000000
0.000000
0.000000
0.000000
0.000000
0.000000
0.000000
0.000000
0.000000
0.000000
0.000000
0.000000
0.000000
0.000000
0.000000
0.000000
0.000000
0.000000
0.000000
0.000000
0.000000
0.000000
0.000000
0.000000
0.000000
0.000000
0.000000
0.000000
0.000000
0.000000
0.000000
0.000000
0.000000
0.000000
0.000000
0.000000
0.000000
0.000000
0.000000
0.000000
0.000000
0.000000
0.000000
0.000000
0.000000
0.000000
0.000000
0.000000
0.000000
0.000000
0.000000
0.000000
0.000000
0.000000
0.000000
0.000000
0.000000
0.000000
0.000000
</DataArray>
</PointData>
<Cells>
<DataArray type='Int32' Name='connectivity' format='ascii'>
0
1
2
3
4
5
6
7
8
9
10
11
12
13
14
15
16
17
18
19
20
21
22
23
24
25
26
27
28
29
30
31
32
33
34
35
36
37
38
39
40
41
42
43
44
45
46
47
48
49
50
51
52
53
54
55
56
57
58
59
60
61
62
63
64
65
66
67
68
69
70
71
72
73
74
75
76
77
78
79
80
81
82
83
84
85
86
87
88
89
90
91
92
93
94
95
96
97
98
99
100
101
102
103
104
105
106
107
108
109
110
111
112
113
114
115
116
117
118
119
120
121
122
123
124
125
126
127
128
129
130
131
132
133
134
135
136
137
138
139
140
141
142
143
144
145
146
147
148
149
150
151
152
153
154
155
156
157
158
159
160
161
162
163
164
165
166
167
168
169
170
171
172
173
174
175
176
177
178
179
180
181
182
183
184
185
186
187
188
189
190
191
192
193
194
195
196
197
198
199
200
201
202
203
204
205
206
207
208
209
210
211
212
213
214
215
216
217
218
219
220
221
222
223
224
225
226
227
228
229
230
231
232
233
234
235
236
237
238
239
240
241
242
243
244
245
246
247
248
249
250
251
252
253
254
255
256
257
258
259
260
261
262
263
264
265
266
267
268
269
270
271
272
273
274
275
276
277
278
279
280
281
282
283
284