<?xml version='1.0' encoding='UTF-8'?>
<VTKFile xmlns='VTK' byte_order='LittleEndian' version='0.1' type='UnstructuredGrid'>
<UnstructuredGrid>
<Piece NumberOfCells='584' NumberOfPoints='584'>
<Points>
<DataArray NumberOfComponents='3' type='Float32' Name='Position' format='ascii'>
-0.075000 -0.075000 0.000000
-0.075000 -0.050000 0.000000
-0.075000 -0.025000 0.000000
-0.075000 0.000000 0.000000
-0.075000 0.025000 0.000000
-0.075000 0.050000 0.000000
-0.075000 0.075000 0.000000
-0.075000 0.100000 0.000000
-0.075000 0.125000 0.000000
-0.075000 0.150000 0.000000
-0.075000 0.175000 0.000000
-0.075000 0.200000 0.000000
-0.075000 0.225000 0.000000
-0.075000 0.250000 0.000000
-0.075000 0.275000 0.000000
-0.075000 0.300000 0.000000
-0.075000 0.325000 0.000000
-0.075000 0.350000 0.000000
-0.075000 0.375000 0.000000
-0.075000 0.400000 0.000000
-0.075000 0.425000 0.000000
-0.075000 0.450000 0.000000
-0.075000 0.475000 0.000000
-0.075000 0.500000 0.000000
-0.075000 0.525000 0.000000
-0.075000 0.550000 0.000000
-0.075000 0.575000 0.000000
-0.075000 0.600000 0.000000
-0.050000 -0.075000 0.000000
-0.050000 -0.050000 0.000000
-0.050000 -0.025000 0.000000
-0.050000 0.000000 0.000000
-0.050000 0.025000 0.000000
-0.050000 0.050000 0.000000
-0.050000 0.075000 0.000000
-0.050000 0.100000 0.000000
-0.050000 0.125000 0.000000
-0.050000 0.150000 0.000000
-0.050000 0.175000 0.000000
-0.050000 0.200000 0.000000
-0.050000 0.225000 0.000000
-0.050000 0.250000 0.000000
-0.050000 0.275000 0.000000
-0.050000 0.300000 0.000000
-0.050000 0.325000 0.000000
-0.050000 0.350000 0.000000
-0.050000 0.375000 0.000000
-0.050000 0.400000 0.000000
-0.050000 0.425000 0.000000
-0.050000 0.450000 0.000000
-0.050000 0.475000 0.000000
-0.050000 0.500000 0.000000
-0.050000 0.525000 0.000000
-0.050000 0.550000 0.000000
-0.050000 0.575000 0.000000
-0.050000 0.600000 0.000000
-0.025000 -0.075000 0.000000
-0.025000 -0.050000 0.000000
-0.025000 -0.025000 0.000000
-0.025000 0.000000 0.000000
-0.025000 0.025000 0.000000
-0.025000 0.050000 0.000000
-0.025000 0.075000 0.000000
-0.025000 0.100000 0.000000
-0.025000 0.125000 0.000000
-0.025000 0.150000 0.000000
-0.025000 0.175000 0.000000
-0.025000 0.200000 0.000000
-0.025000 0.225000 0.000000
-0.025000 0.250000 0.000000
-0.025000 0.275000 0.000000
-0.025000 0.300000 0.000000
-0.025000 0.325000 0.000000
-0.025000 0.350000 0.000000
-0.025000 0.375000 0.000000
-0.025000 0.400000 0.000000
-0.025000 0.425000 0.000000
-0.025000 0.450000 0.000000
-0.025000 0.475000 0.000000
-0.025000 0.500000 0.000000
-0.025000 0.525000 0.000000
-0.025000 0.550000 0.000000
-0.025000 0.575000 0.000000
-0.025000 0.600000 0.000000
0.000000 -0.075000 0.000000
0.000000 -0.050000 0.000000
0.000000 -0.025000 0.000000
0.000000 0.000000 0.000000
0.000000 0.025000 0.000000
0.000000 0.050000 0.000000
0.000000 0.075000 0.000000
0.000000 0.100000 0.000000
0.000000 0.125000 0.000000
0.000000 0.150000 0.000000
0.000000 0.175000 0.000000
0.000000 0.200000 0.000000
0.000000 0.225000 0.000000
0.000000 0.250000 0.000000
0.000000 0.275000 0.000000
0.000000 0.300000 0.000000
0.000000 0.325000 0.000000
0.000000 0.350000 0.000000
0.000000 0.375000 0.000000
0.000000 0.400000 0.000000
0.000000 0.425000 0.000000
0.000000 0.450000 0.000000
0.000000 0.475000 0.000000
0.000000 0.500000 0.000000
0.000000 0.525000 0.000000
0.000000 0.550000 0.000000
0.000000 0.575000 0.000000
0.000000 0.600000 0.000000
0.025000 -0.075000 0.000000
0.025000 -0.050000 0.000000
0.025000 -0.025000 0.000000
0.025000 0.000000 0.000000
0.156417 0.047118 0.000000
0.165551 0.159158 0.000000
0.154424 0.022871 0.000000
0.180279 0.026585 0.000000
0.217583 0.047786 0.000000
0.110222 0.120680 0.000000
0.281670 0.024655 0.000000
0.188595 0.051312 0.000000
0.167417 0.090988 0.000000
0.080384 0.255475 0.000000
0.201648 0.025208 0.000000
0.072316 0.157666 0.000000
0.120451 0.024101 0.000000
0.093664 0.024322 0.000000
0.132198 0.146162 0.000000
0.070085 0.048313 0.000000
0.059813 0.191814 0.000000
0.066985 0.022984 0.000000
0.031364 0.207078 0.000000
0.130749 0.041437 0.000000
0.050000 -0.075000 0.000000
0.050000 -0.050000 0.000000
0.050000 -0.025000 0.000000
0.050000 0.000000 0.000000
0.113910 0.221879 0.000000
0.064685 0.135700 0.000000
0.045958 0.230265 0.000000
0.023641 0.024135 0.000000
0.025621 0.147698 0.000000
0.428445 0.055690 0.000000
0.167301 0.132610 0.000000
0.559162 0.028612 0.000000
0.095709 0.183607 0.000000
0.189478 0.199481 0.000000
0.090660 0.097827 0.000000
0.204556 0.119072 0.000000
0.030021 0.267989 0.000000
0.144969 0.218893 0.000000
0.091833 0.076682 0.000000
0.024918 0.062006 0.000000
0.187679 0.106441 0.000000
0.216461 0.096427 0.000000
0.091007 0.276308 0.000000
0.063521 0.073754 0.000000
0.075000 -0.075000 0.000000
0.075000 -0.050000 0.000000
0.075000 -0.025000 0.000000
0.075000 0.000000 0.000000
0.104235 0.139139 0.000000
0.152798 0.109430 0.000000
0.373029 0.054121 0.000000
0.312446 0.022882 0.000000
0.381061 0.096560 0.000000
0.646099 0.038961 0.000000
0.636765 0.066424 0.000000
0.045502 0.117777 0.000000
0.311349 0.129341 0.000000
0.613026 0.071530 0.000000
0.411483 0.024311 0.000000
0.080426 0.124254 0.000000
0.192304 0.082109 0.000000
0.185348 0.144794 0.000000
0.233329 0.086844 0.000000
0.043568 0.098614 0.000000
0.130963 0.098022 0.000000
0.046224 0.056091 0.000000
0.143149 0.073917 0.000000
0.114768 0.060103 0.000000
0.100000 -0.075000 0.000000
0.100000 -0.050000 0.000000
0.100000 -0.025000 0.000000
0.100000 0.000000 0.000000
0.457720 0.023090 0.000000
0.271151 0.152005 0.000000
0.475271 0.039127 0.000000
0.783507 0.021511 0.000000
0.213573 0.070234 0.000000
0.711317 0.021324 0.000000
0.586841 0.092638 0.000000
0.240952 0.048639 0.000000
0.667148 0.021822 0.000000
0.669949 0.049033 0.000000
0.433636 0.028411 0.000000
0.290910 0.150250 0.000000
0.516431 0.050500 0.000000
0.606885 0.026388 0.000000
0.062649 0.229725 0.000000
0.229680 0.023433 0.000000
0.513618 0.026932 0.000000
0.254162 0.064820 0.000000
0.306810 0.086346 0.000000
0.168761 0.191651 0.000000
0.125000 -0.075000 0.000000
0.125000 -0.050000 0.000000
0.125000 -0.025000 0.000000
0.125000 0.000000 0.000000
0.695629 0.069832 0.000000
0.654420 0.078280 0.000000
0.985991 0.057642 0.000000
0.827933 0.023358 0.000000
0.537422 0.065407 0.000000
0.586516 0.023927 0.000000
0.154791 0.202156 0.000000
0.448060 0.053721 0.000000
0.752299 0.073078 0.000000
0.723705 0.059995 0.000000
0.850393 0.050552 0.000000
0.467399 0.064177 0.000000
0.492008 0.023603 0.000000
0.424700 0.130439 0.000000
0.385951 0.025389 0.000000
0.391302 0.132298 0.000000
0.250835 0.157064 0.000000
0.118308 0.082628 0.000000
0.427013 0.117220 0.000000
0.046345 0.162085 0.000000
0.150000 -0.075000 0.000000
0.150000 -0.050000 0.000000
0.150000 -0.025000 0.000000
0.150000 0.000000 0.000000
0.184073 0.169151 0.000000
0.962486 0.026927 0.000000
0.707612 0.093844 0.000000
0.273121 0.045961 0.000000
0.876819 0.024092 0.000000
0.167318 0.064716 0.000000
0.912863 0.041799 0.000000
0.408096 0.077534 0.000000
0.936793 0.052580 0.000000
0.494602 0.093305 0.000000
0.911270 0.097066 0.000000
0.686945 0.036102 0.000000
0.824607 0.069043 0.000000
0.801254 0.063326 0.000000
0.758160 0.033306 0.000000
0.613199 0.052825 0.000000
0.632208 0.023901 0.000000
0.635093 0.092997 0.000000
0.673616 0.073798 0.000000
0.216786 0.132805 0.000000
0.175000 -0.075000 0.000000
0.175000 -0.050000 0.000000
0.175000 -0.025000 0.000000
0.175000 0.000000 0.000000
0.095157 0.158685 0.000000
0.576676 0.101181 0.000000
0.885266 0.046464 0.000000
0.793526 0.092116 0.000000
0.991766 0.021773 0.000000
0.162784 0.240059 0.000000
0.852405 0.026583 0.000000
0.325427 0.041888 0.000000
0.364736 0.028531 0.000000
0.908924 0.023321 0.000000
0.483436 0.080098 0.000000
0.733932 0.074936 0.000000
0.356925 0.093266 0.000000
0.942009 0.022665 0.000000
0.973917 0.049185 0.000000
0.402248 0.049136 0.000000
0.999797 0.043353 0.000000
0.453444 0.100400 0.000000
0.126408 0.190860 0.000000
0.378829 0.125468 0.000000
0.200000 -0.075000 0.000000
0.200000 -0.050000 0.000000
0.200000 -0.025000 0.000000
0.200000 0.000000 0.000000
0.326017 0.095664 0.000000
0.093590 0.048140 0.000000
0.262976 0.099203 0.000000
0.800588 0.033159 0.000000
0.336797 0.060598 0.000000
0.253758 0.132491 0.000000
0.580049 0.051661 0.000000
0.941498 0.064323 0.000000
0.360548 0.114402 0.000000
0.028547 0.167088 0.000000
0.779771 0.068308 0.000000
0.692053 0.112885 0.000000
0.043069 0.031567 0.000000
0.434663 0.084192 0.000000
0.552550 0.058454 0.000000
0.100673 0.255525 0.000000
0.712269 0.041615 0.000000
0.338039 0.146678 0.000000
0.869587 0.057886 0.000000
0.706005 0.107189 0.000000
0.225000 -0.075000 0.000000
0.225000 -0.050000 0.000000
0.225000 -0.025000 0.000000
0.225000 0.000000 0.000000
0.273152 0.077817 0.000000
0.819659 0.044384 0.000000
0.540574 0.084436 0.000000
0.176019 0.242008 0.000000
0.024081 0.224431 0.000000
0.113518 0.197134 0.000000
0.417730 0.097639 0.000000
0.902558 0.065251 0.000000
0.579609 0.068922 0.000000
0.072427 0.187425 0.000000
0.606673 0.104758 0.000000
0.124632 0.394880 0.000000
0.342694 0.024835 0.000000
0.388326 0.069347 0.000000
0.067424 0.096005 0.000000
0.212049 0.178074 0.000000
0.502474 0.059973 0.000000
0.022464 0.082579 0.000000
0.248661 0.117183 0.000000
0.297678 0.045608 0.000000
0.250000 -0.075000 0.000000
0.250000 -0.050000 0.000000
0.250000 -0.025000 0.000000
0.250000 0.000000 0.000000
0.742254 0.025313 0.000000
0.306036 0.147512 0.000000
0.236334 0.167168 0.000000
0.283052 0.099349 0.000000
0.255730 0.025053 0.000000
0.335642 0.109730 0.000000
0.140831 0.166788 0.000000
0.252200 0.206193 0.000000
0.240102 0.193168 0.000000
0.466716 0.097622 0.000000
0.211861 0.159471 0.000000
0.040968 0.254114 0.000000
0.140574 0.127922 0.000000
0.541662 0.024020 0.000000
0.352799 0.067537 0.000000
0.300502 0.068453 0.000000
0.291345 0.123787 0.000000
0.762952 0.055003 0.000000
0.022113 0.121479 0.000000
0.500391 0.137218 0.000000
0.275000 -0.075000 0.000000
0.275000 -0.050000 0.000000
0.275000 -0.025000 0.000000
0.275000 0.000000 0.000000
0.300000 -0.075000 0.000000
0.300000 -0.050000 0.000000
0.300000 -0.025000 0.000000
0.300000 0.000000 0.000000
0.325000 -0.075000 0.000000
0.325000 -0.050000 0.000000
0.325000 -0.025000 0.000000
0.325000 0.000000 0.000000
0.350000 -0.075000 0.000000
0.350000 -0.050000 0.000000
0.350000 -0.025000 0.000000
0.350000 0.000000 0.000000
0.375000 -0.075000 0.000000
0.375000 -0.050000 0.000000
0.375000 -0.025000 0.000000
0.375000 0.000000 0.000000
0.400000 -0.075000 0.000000
0.400000 -0.050000 0.000000
0.400000 -0.025000 0.000000
0.400000 0.000000 0.000000
0.425000 -0.075000 0.000000
0.425000 -0.050000 0.000000
0.425000 -0.025000 0.000000
0.425000 0.000000 0.000000
0.450000 -0.075000 0.000000
0.450000 -0.050000 0.000000
0.450000 -0.025000 0.000000
0.450000 0.000000 0.000000
0.475000 -0.075000 0.000000
0.475000 -0.050000 0.000000
0.475000 -0.025000 0.000000
0.475000 0.000000 0.000000
0.500000 -0.075000 0.000000
0.500000 -0.050000 0.000000
0.500000 -0.025000 0.000000
0.500000 0.000000 0.000000
0.525000 -0.075000 0.000000
0.525000 -0.050000 0.000000
0.525000 -0.025000 0.000000
0.525000 0.000000 0.000000
0.550000 -0.075000 0.000000
0.550000 -0.050000 0.000000
0.550000 -0.025000 0.000000
0.550000 0.000000 0.000000
0.575000 -0.075000 0.000000
0.575000 -0.050000 0.000000
0.575000 -0.025000 0.000000
0.575000 0.000000 0.000000
0.600000 -0.075000 0.000000
0.600000 -0.050000 0.000000
0.600000 -0.025000 0.000000
0.600000 0.000000 0.000000
0.625000 -0.075000 0.000000
0.625000 -0.050000 0.000000
0.625000 -0.025000 0.000000
0.625000 0.000000 0.000000
0.650000 -0.075000 0.000000
0.650000 -0.050000 0.000000
0.650000 -0.025000 0.000000
0.650000 0.000000 0.000000
0.675000 -0.075000 0.000000
0.675000 -0.050000 0.000000
0.675000 -0.025000 0.000000
0.675000 0.000000 0.000000
0.700000 -0.075000 0.000000
0.700000 -0.050000 0.000000
0.700000 -0.025000 0.000000
0.700000 0.000000 0.000000
0.725000 -0.075000 0.000000
0.725000 -0.050000 0.000000
0.725000 -0.025000 0.000000
0.725000 0.000000 0.000000
0.750000 -0.075000 0.000000
0.750000 -0.050000 0.000000
0.750000 -0.025000 0.000000
0.750000 0.000000 0.000000
0.775000 -0.075000 0.000000
0.775000 -0.050000 0.000000
0.775000 -0.025000 0.000000
0.775000 0.000000 0.000000
0.800000 -0.075000 0.000000
0.800000 -0.050000 0.000000
0.800000 -0.025000 0.000000
0.800000 0.000000 0.000000
0.825000 -0.075000 0.000000
0.825000 -0.050000 0.000000
0.825000 -0.025000 0.000000
0.825000 0.000000 0.000000
0.850000 -0.075000 0.000000
0.850000 -0.050000 0.000000
0.850000 -0.025000 0.000000
0.850000 0.000000 0.000000
0.875000 -0.075000 0.000000
0.875000 -0.050000 0.000000
0.875000 -0.025000 0.000000
0.875000 0.000000 0.000000
0.900000 -0.075000 0.000000
0.900000 -0.050000 0.000000
0.900000 -0.025000 0.000000
0.900000 0.000000 0.000000
0.925000 -0.075000 0.000000
0.925000 -0.050000 0.000000
0.925000 -0.025000 0.000000
0.925000 0.000000 0.000000
0.950000 -0.075000 0.000000
0.950000 -0.050000 0.000000
0.950000 -0.025000 0.000000
0.950000 0.000000 0.000000
0.975000 -0.075000 0.000000
0.975000 -0.050000 0.000000
0.975000 -0.025000 0.000000
0.975000 0.000000 0.000000
1.000000 -0.075000 0.000000
1.000000 -0.050000 0.000000
1.000000 -0.025000 0.000000
1.000000 0.000000 0.000000
1.025000 -0.075000 0.000000
1.025000 -0.050000 0.000000
1.025000 -0.025000 0.000000
1.025000 0.000000 0.000000
1.025000 0.025000 0.000000
1.025000 0.050000 0.000000
1.025000 0.075000 0.000000
1.025000 0.100000 0.000000
1.025000 0.125000 0.000000
1.025000 0.150000 0.000000
1.025000 0.175000 0.000000
1.025000 0.200000 0.000000
1.025000 0.225000 0.000000
1.025000 0.250000 0.000000
1.025000 0.275000 0.000000
1.025000 0.300000 0.000000
1.025000 0.325000 0.000000
1.025000 0.350000 0.000000
1.025000 0.375000 0.000000
1.025000 0.400000 0.000000
1.025000 0.425000 0.000000
1.025000 0.450000 0.000000
1.025000 0.475000 0.000000
1.025000 0.500000 0.000000
1.025000 0.525000 0.000000
1.025000 0.550000 0.000000
1.025000 0.575000 0.000000
1.025000 0.600000 0.000000
1.050000 -0.075000 0.000000
1.050000 -0.050000 0.000000
1.050000 -0.025000 0.000000
1.050000 0.000000 0.000000
1.050000 0.025000 0.000000
1.050000 0.050000 0.000000
1.050000 0.075000 0.000000
1.050000 0.100000 0.000000
1.050000 0.125000 0.000000
1.050000 0.150000 0.000000
1.050000 0.175000 0.000000
1.050000 0.200000 0.000000
1.050000 0.225000 0.000000
1.050000 0.250000 0.000000
1.050000 0.275000 0.000000
1.050000 0.300000 0.000000
1.050000 0.325000 0.000000
1.050000 0.350000 0.000000
1.050000 0.375000 0.000000
1.050000 0.400000 0.000000
1.050000 0.425000 0.000000
1.050000 0.450000 0.000000
1.050000 0.475000 0.000000
1.050000 0.500000 0.000000
1.050000 0.525000 0.000000
1.050000 0.550000 0.000000
1.050000 0.575000 0.000000
1.050000 0.600000 0.000000
1.075000 -0.075000 0.000000
1.075000 -0.050000 0.000000
1.075000 -0.025000 0.000000
1.075000 0.000000 0.000000
1.075000 0.025000 0.000000
1.075000 0.050000 0.000000
1.075000 0.075000 0.000000
1.075000 0.100000 0.000000
1.075000 0.125000 0.000000
1.075000 0.150000 0.000000
1.075000 0.175000 0.000000
1.075000 0.200000 0.000000
1.075000 0.225000 0.000000
1.075000 0.250000 0.000000
1.075000 0.275000 0.000000
1.075000 0.300000 0.000000
1.075000 0.325000 0.000000
1.075000 0.350000 0.000000
1.075000 0.375000 0.000000
1.075000 0.400000 0.000000
1.075000 0.425000 0.000000
1.075000 0.450000 0.000000
1.075000 0.475000 0.000000
1.075000 0.500000 0.000000
1.075000 0.525000 0.000000
1.075000 0.550000 0.000000
1.075000 0.575000 0.000000
1.075000 0.600000 0.000000
1.100000 -0.075000 0.000000
1.100000 -0.050000 0.000000
1.100000 -0.025000 0.000000
1.100000 0.000000 0.000000
1.100000 0.025000 0.000000
1.100000 0.050000 0.000000
1.100000 0.075000 0.000000
1.100000 0.100000 0.000000
1.100000 0.125000 0.000000
1.100000 0.150000 0.000000
1.100000 0.175000 0.000000
1.100000 0.200000 0.000000
1.100000 0.225000 0.000000
1.100000 0.250000 0.000000
1.100000 0.275000 0.000000
1.100000 0.300000 0.000000
1.100000 0.325000 0.000000
1.100000 0.350000 0.000000
1.100000 0.375000 0.000000
1.100000 0.400000 0.000000
1.100000 0.425000 0.000000
1.100000 0.450000 0.000000
1.100000 0.475000 0.000000
1.100000 0.500000 0.000000
1.100000 0.525000 0.000000
1.100000 0.550000 0.000000
1.100000 0.575000 0.000000
1.100000 0.600000 0.000000
</DataArray>
</Points>
<PointData>
<DataArray NumberOfComponents='1' type='Int32' Name='ParticleType' format='ascii'>
3
3
3
3
3
3
3
3
3
3
3
3
3
3
3
3
3
3
3
3
3
3
3
3
3
3
2
2
3
3
3
3
3
3
3
3
3
3
3
3
3
3
3
3
3
3
3
3
3
3
3
3
3
3
2
2
3
3
2
2
2
2
2
2
2
2
2
2
2
2
2
2
2
2
2
2
2
2
2
2
2
2
2
2
3
3
2
2
2
2
2
2
2
2
2
2
2
2
2
2
2
2
2
2
2
2
2
2
2
2
2
2
3
3
2
2
0
0
0
0
0
0
0
0
0
0
0
0
0
0
0
0
0
0
0
0
3
3
2
2
0
0
0
0
0
0
0
0
0
0
0
0
0
0
0
0
0
0
0
0
3
3
2
2
0
0
0
0
0
0
0
0
0
0
0
0
0
0
0
0
0
0
0
0
3
3
2
2
0
0
0
0
0
0
0
0
0
0
0
0
0
0
0
0
0
0
0
0
3
3
2
2
0
0
0
0
0
0
0
0
0
0
0
0
0
0
0
0
0
0
0
0
3
3
2
2
0
0
0
0
0
0
0
0
0
0
0
0
0
0
0
0
0
0
0
0
3
3
2
2
0
0
0
0
0
0
0
0
0
0
0
0
0
0
0
0
0
0
0
0
3
3
2
2
0
0
0
0
0
0
0
0
0
0
0
0
0
0
0
0
0
0
0
0
3
3
2
2
0
0
0
0
0
0
0
0
0
0
0
0
0
0
0
0
0
0
0
0
3
3
2
2
0
0
0
0
0
0
0
0
0
0
0
0
0
0
0
0
0
0
0
0
3
3
2
2
3
3
2
2
3
3
2
2
3
3
2
2
3
3
2
2
3
3
2
2
3
3
2
2
3
3
2
2
3
3
2
2
3
3
2
2
3
3
2
2
3
3
2
2
3
3
2
2
3
3
2
2
3
3
2
2
3
3
2
2
3
3
2
2
3
3
2
2
3
3
2
2
3
3
2
2
3
3
2
2
3
3
2
2
3
3
2
2
3
3
2
2
3
3
2
2
3
3
2
2
3
3
2
2
3
3
2
2
3
3
2
2
3
3
2
2
3
3
2
2
2
2
2
2
2
2
2
2
2
2
2
2
2
2
2
2
2
2
2
2
2
2
2
2
3
3
2
2
2
2
2
2
2
2
2
2
2
2
2
2
2
2
2
2
2
2
2
2
2
2
2
2
3
3
3
3
3
3
3
3
3
3
3
3
3
3
3
3
3
3
3
3
3
3
3
3
3
3
2
2
3
3
3
3
3
3
3
3
3
3
3
3
3
3
3
3
3
3
3
3
3
3
3
3
3
3
2
2
</DataArray>
<DataArray NumberOfComponents='1' type='Float32' Name='Velocity' format='ascii'>
0.000000
0.000000
0.000000
0.000000
0.000000
0.000000
0.000000
0.000000
0.000000
0.000000
0.000000
0.000000
0.000000
0.000000
0.000000
0.000000
0.000000
0.000000
0.000000
0.000000
0.000000
0.000000
0.000000
0.000000
0.000000
0.000000
0.000000
0.000000
0.000000
0.000000
0.000000
0.000000
0.000000
0.000000
0.000000
0.000000
0.000000
0.000000
0.000000
0.000000
0.000000
0.000000
0.000000
0.000000
0.000000
0.000000
0.000000
0.000000
0.000000
0.000000
0.000000
0.000000
0.000000
0.000000
0.000000
0.000000
0.000000
0.000000
0.000000
0.000000
0.000000
0.000000
0.000000
0.000000
0.000000
0.000000
0.000000
0.000000
0.000000
0.000000
0.000000
0.000000
0.000000
0.000000
0.000000
0.000000
0.000000
0.000000
0.000000
0.000000
0.000000
0.000000
0.000000
0.000000
0.000000
0.000000
0.000000
0.000000
0.000000
0.000000
0.000000
0.000000
0.000000
0.000000
0.000000
0.000000
0.000000
0.000000
0.000000
0.000000
0.000000
0.000000
0.000000
0.000000
0.000000
0.000000
0.000000
0.000000
0.000000
0.000000
0.000000
0.000000
0.000000
0.000000
0.000000
0.000000
0.488930
0.436300
0.152256
0.080914
0.042512
0.233762
0.145471
0.392975
0.191657
0.896421
0.046138
0.512944
0.264871
0.341947
0.393620
0.189680
0.281566
0.129483
0.737580
0.626164
0.000000
0.000000
0.000000
0.000000
0.189474
0.157367
0.799246
0.078249
0.217308
0.135256
0.369598
0.175763
0.478965
0.235245
0.078286
0.199264
0.539312
0.597108
0.620010
0.253474
0.094378
0.273332
0.940743
0.573181
0.000000
0.000000
0.000000
0.000000
0.328554
0.160803
0.270812
0.024428
0.368285
0.380983
0.624352
0.179115
0.466960
0.766505
0.161413
0.231008
0.331506
0.243055
0.194338
0.104824
0.126371
0.074421
0.456716
0.215911
0.000000
0.000000
0.000000
0.000000
0.035856
0.466884
0.281557
0.035392
0.127452
0.250367
0.514510
0.004771
0.430204
0.428360
0.295335
0.205265
0.426495
0.106645
0.185594
0.151010
0.024050
0.196338
0.228260
0.288872
0.000000
0.000000
0.000000
0.000000
0.261859
0.567562
0.136279
0.160903
0.142643
0.012650
0.720421
0.526452
0.280640
0.171767
0.258155
0.355698
0.067930
0.784336
0.128487
0.410907
0.645194
0.450105
0.753943
0.239376
0.000000
0.000000
0.000000
0.000000
0.574186
0.241375
0.711911
0.073431
0.301030
0.239259
0.211291
0.152769
0.023049
0.423378
0.571605
0.101722
0.124919
0.185436
0.249047
0.247760
0.158226
0.569292
0.085298
0.171029
0.000000
0.000000
0.000000
0.000000
0.319208
0.845414
0.048384
0.616113
0.172425
0.812462
0.103394
0.045524
0.347201
0.222337
0.510188
0.200084
0.484031
0.160214
0.052398
0.121611
0.062841
0.423675
0.381341
0.469153
0.000000
0.000000
0.000000
0.000000
0.199204
0.400321
0.133627
0.283244
0.174418
0.464190
0.385826
0.046741
0.594388
0.548848
0.141443
0.465910
0.086018
0.631066
0.317849
0.533551
0.257012
0.291306
0.225595
0.289087
0.000000
0.000000
0.000000
0.000000
0.123209
0.211952
0.509724
0.795015
0.829801
0.195214
0.268130
0.443125
0.573105
0.305021
1.055195
0.747742
0.212193
0.400191
0.216911
0.371651
0.377215
0.448383
0.285969
0.098479
0.000000
0.000000
0.000000
0.000000
0.146960
0.508010
0.828105
0.350774
0.181633
0.781458
0.304180
0.120879
0.271252
0.265841
0.565727
0.259074
0.341581
0.160907
0.068985
0.224909
0.357405
0.085048
0.375972
0.315499
0.000000
0.000000
0.000000
0.000000
0.000000
0.000000
0.000000
0.000000
0.000000
0.000000
0.000000
0.000000
0.000000
0.000000
0.000000
0.000000
0.000000
0.000000
0.000000
0.000000
0.000000
0.000000
0.000000
0.000000
0.000000
0.000000
0.000000
0.000000
0.000000
0.000000
0.000000
0.000000
0.000000
0.000000
0.000000
0.000000
0.000000
0.000000
0.000000
0.000000
0.000000
0.000000
0.000000
0.000000
0.000000
0.000000
0.000000
0.000000
0.000000
0.000000
0.000000
0.000000
0.000000
0.000000
0.000000
0.000000
0.000000
0.000000
0.000000
0.000000
0.000000
0.000000
0.000000
0.000000
0.000000
0.000000
0.000000
0.000000
0.000000
0.000000
0.000000
0.000000
0.000000
0.000000
0.000000
0.000000
0.000000
0.000000
0.000000
0.000000
0.000000
0.000000
0.000000
0.000000
0.000000
0.000000
0.000000
0.000000
0.000000
0.000000
0.000000
0.000000
0.000000
0.000000
0.000000
0.000000
0.000000
0.000000
0.000000
0.000000
0.000000
0.000000
0.000000
0.000000
0.000000
0.000000
0.000000
0.000000
0.000000
0.000000
0.000000
0.000000
0.000000
0.000000
0.000000
0.000000
0.000000
0.000000
0.000000
0.000000
0.000000
0.000000
0.000000
0.000000
0.000000
0.000000
0.000000
0.000000
0.000000
0.000000
0.000000
0.000000
0.000000
0.000000
0.000000
0.000000
0.000000
0.000000
0.000000
0.000000
0.000000
0.000000
0.000000
0.000000
0.000000
0.000000
0.000000
0.000000
0.000000
0.000000
0.000000
0.000000
0.000000
0.000000
0.000000
0.000000
0.000000
0.000000
0.000000
0.000000
0.000000
0.000000
0.000000
0.000000
0.000000
0.000000
0.000000
0.000000
0.000000
0.000000
0.000000
0.000000
0.000000
0.000000
0.000000
0.000000
0.000000
0.000000
0.000000
0.000000
0.000000
0.000000
0.000000
0.000000
0.000000
0.000000
0.000000
0.000000
0.000000
0.000000
0.000000
0.000000
0.000000
0.000000
0.000000
0.000000
0.000000
0.000000
0.000000
0.000000
0.000000
0.000000
0.000000
0.000000
0.000000
0.000000
0.000000
0.000000
0.000000
0.000000
0.000000
0.000000
0.000000
0.000000
0.000000
0.000000
0.000000
0.000000
0.000000
0.000000
0.000000
0.000000
0.000000
0.000000
0.000000
0.000000
0.000000
0.000000
0.000000
0.000000
0.000000
0.000000
</DataArray>
<DataArray NumberOfComponents='1' type='Float32' Name='pressure' format='ascii'>
0.000000
0.000000
0.000000
0.000000
0.000000
0.000000
0.000000
0.000000
0.000000
0.000000
0.000000
0.000000
0.000000
0.000000
0.000000
0.000000
0.000000
0.000000
0.000000
0.000000
0.000000
0.000000
0.000000
0.000000
0.000000
0.000000
0.000000
0.000000
0.000000
0.000000
0.000000
0.000000
0.000000
0.000000
0.000000
0.000000
0.000000
0.000000
0.000000
0.000000
0.000000
0.000000
0.000000
0.000000
0.000000
0.000000
0.000000
0.000000
0.000000
0.000000
0.000000
0.000000
0.000000
0.000000
0.000000
0.000000
0.000000
0.000000
3128.579834
2956.861328
3002.097900
1829.123169
2988.609619
1807.393188
2288.687500
552.805481
0.000000
0.000000
0.000000
0.000000
0.000000
0.000000
0.000000
0.000000
0.000000
0.000000
0.000000
0.000000
0.000000
0.000000
0.000000
0.000000
0.000000
0.000000
0.000000
0.000000
3112.601318
3739.264648
2154.244141
559.938660
3056.483398
84.203957
1790.340942
1374.165161
0.000000
0.000000
0.000000
0.000000
0.000000
0.000000
0.000000
0.000000
0.000000
0.000000
0.000000
0.000000
0.000000
0.000000
0.000000
0.000000
0.000000
0.000000
0.000000
0.000000
3229.997559
3678.380371
1340.926270
1119.987793
606.298828
1784.165527
946.684753
0.000000
1611.437744
0.000000
0.000000
0.000000
1105.478882
753.167114
1474.721802
1800.323242
0.000000
1758.873901
0.000000
3234.312012
0.000000
1501.328735
0.000000
0.000000
2446.484131
1177.662598
0.000000
1869.421875
297.990417
2470.060547
1450.818115
1677.391479
0.000000
13.385701
0.000000
0.000000
1010.462036
1062.615234
0.000000
0.000000
1669.208496
3065.268555
729.577271
0.489674
0.000000
1823.493774
0.000000
0.000000
3123.281982
2992.878662
348.426849
552.240295
785.016052
2034.328247
0.000000
691.890259
0.000000
733.107300
0.000000
0.000000
1768.839355
992.298767
1080.154785
484.792816
0.000000
1574.280640
853.022034
2845.874756
0.000000
2397.404297
0.000000
0.000000
2745.571777
2818.360596
1303.643555
0.000000
0.000000
120.119125
525.698059
1192.377930
0.000000
1190.865356
206.907776
529.649048
1339.227783
160.429031
656.219543
0.000000
0.000000
158.975891
0.000000
389.353699
513.929993
0.000000
0.000000
0.000000
2706.297607
2332.562012
0.000000
0.000000
0.000000
1515.322266
0.000000
0.000000
2081.534424
1367.904663
0.000000
16.168390
0.000000
1023.406555
1411.752075
0.000000
1514.574219
0.000000
0.000000
2516.026367
0.000000
0.000000
0.000000
0.000000
2808.174561
2658.819092
1690.585449
0.000000
0.000000
78.713356
1087.522583
720.618286
0.000000
417.188782
304.533600
0.000000
0.000000
254.324692
0.000000
0.000000
209.889755
0.000000
105.217728
0.000000
0.000000
0.000000
0.000000
0.000000
1376.137207
1558.810303
0.000000
0.000000
0.000000
0.000000
1675.073364
0.000000
1121.036011
709.624512
1887.771729
220.338684
683.854126
0.000000
1237.583496
0.000000
0.000000
178.939285
0.000000
1867.725220
3431.492676
0.000000
0.000000
0.000000
1503.165649
1375.802002
1112.609985
1797.653320
96.262932
25.291491
1126.734009
1249.453003
0.000000
0.000000
0.000000
0.000000
0.000000
0.000000
2721.934814
2021.803589
295.008759
0.000000
0.000000
0.000000
0.000000
0.000000
0.000000
0.000000
1912.500000
1856.555786
2111.825684
0.000000
0.000000
0.000000
89.092812
2006.605835
1098.239624
0.000000
0.000000
28.391268
0.000000
0.000000
1418.795654
2045.871216
2353.700928
0.000000
0.000000
2362.299316
0.000000
430.074432
0.000000
0.000000
1229.593018
1321.417847
0.000000
0.000000
0.000000
459.206757
1471.645752
0.000000
0.000000
0.000000
0.000000
0.000000
0.000000
0.000000
1331.617065
516.801025
726.630310
540.368896
922.307556
131.080170
0.000000
0.000000
0.000000
0.000000
1179.692993
1107.156982
0.000000
0.000000
1319.283691
283.816162
0.000000
0.000000
1370.883057
1159.914429
0.000000
0.000000
1136.564575
1465.686890
0.000000
0.000000
793.985107
1368.931152
0.000000
0.000000
1162.520264
2064.000488
0.000000
0.000000
964.684631
1073.484985
0.000000
0.000000
1715.123413
1361.540894
0.000000
0.000000
1148.933838
1207.325928
0.000000
0.000000
1201.305786
1359.439209
0.000000
0.000000
224.821747
331.203949
0.000000
0.000000
847.785706
1253.433716
0.000000
0.000000
794.002563
927.686462
0.000000
0.000000
963.166138
1620.894897
0.000000
0.000000
1220.606689
1572.682739
0.000000
0.000000
1258.484009
4.086578
0.000000
0.000000
2043.546021
722.339539
0.000000
0.000000
1926.771851
1130.823364
0.000000
0.000000
1408.466309
388.781250
0.000000
0.000000
364.935303
0.000000
0.000000
0.000000
1661.307007
1333.626709
0.000000
0.000000
1061.749023
0.000000
0.000000
0.000000
1279.295410
1375.179565
0.000000
0.000000
1.571759
253.582275
0.000000
0.000000
468.548523
0.000000
0.000000
0.000000
342.941406
0.000000
0.000000
0.000000
428.436859
0.000000
0.000000
0.000000
900.690369
789.225708
0.000000
0.000000
447.274872
112.733070
0.000000
0.000000
859.802551
0.000000
0.000000
0.000000
0.000000
0.000000
0.000000
0.000000
0.000000
0.000000
0.000000
0.000000
0.000000
0.000000
0.000000
0.000000
0.000000
0.000000
0.000000
0.000000
0.000000
0.000000
0.000000
0.000000
0.000000
0.000000
0.000000
0.000000
0.000000
0.000000
0.000000
0.000000
0.000000
0.000000
0.000000
0.000000
0.000000
0.000000
0.000000
0.000000
0.000000
0.000000
0.000000
0.000000
0.000000
0.000000
0.000000
0.000000
0.000000
0.000000
0.000000
0.000000
0.000000
0.000000
0.000000
0.000000
0.000000
0.000000
0.000000
0.000000
0.000000
0.000000
0.000000
0.000000
0.000000
0.000000
0.000000
0.000000
0.000000
0.000000
0.000000
0.000000
0.000000
0.000000
0.000000
0.000000
0.000000
0.000000
0.000000
0.000000
0.000000
0.000000
0.000000
0.000000
0.000000
0.000000
0.000000
0.000000
0.000000
0.000000
0.000000
0.000000
0.000000
0.000000
0.000000
0.000000
0.000000
0.000000
0.000000
0.000000
0.000000
0.000000
0.000000
0.000000
0.000000
0.000000
0.000000
0.000000
0.000000
0.000000
0.000000
0.000000
0.000000
0.000000
</DataArray>
</PointData>
<Cells>
<DataArray type='Int32' Name='connectivity' format='ascii'>
0
1
2
3
4
5
6
7
8
9
10
11
12
13
14
15
16
17
18
19
20
21
22
23
24
25
26
27
28
29
30
31
32
33
34
35
36
37
38
39
40
41
42
43
44
45
46
47
48
49
50
51
52
53
54
55
56
57
58
59
60
61
62
63
64
65
66
67
68
69
70
71
72
73
74
75
76
77
78
79
80
81
82
83
84
85
86
87
88
89
90
91
92
93
94
95
96
97
98
99
100
101
102
103
104
105
106
107
108
109
110
111
112
113
114
115
116
117
118
119
120
121
122
123
124
125
126
127
128
129
130
131
132
133
134
135
136
137
138
139
140
141
142
143
144
145
146
147
148
149
150
151
152
153
154
155
156
157
158
159
160
161
162
163
164
165
166
167
168
169
170
171
172
173
174
175
176
177
178
179
180
181
182
183
184
185
186
187
188
189
190
191
192
193
194
195
196
197
198
199
200
201
202
203
204
205
206
207
208
209
210
211
212
213
214
215
216
217
218
219
220
221
222
223
224
225
226
227
228
229
230
231
232
233
234
235
236
237
238
239
240
241
242
243
244
245
246
247
248
249
250
251
252
253
254
255
256
257
258
259
260
261
262
263
264
265
266
267
268
269
270
271
272
273
274
275
276
277
278
279
280
281
282
283
284
285
286
287
288
289
290
291
292
293
294
295
296
297
298
299
300
301
302
303
304
305
306
307
308
309
310
311