<?xml version='1.0' encoding='UTF-8'?>
<VTKFile xmlns='VTK' byte_order='LittleEndian' version='0.1' type='UnstructuredGrid'>
<UnstructuredGrid>
<Piece NumberOfCells='584' NumberOfPoints='584'>
<Points>
<DataArray NumberOfComponents='3' type='Float32' Name='Position' format='ascii'>
-0.075000 -0.075000 0.000000
-0.075000 -0.050000 0.000000
-0.075000 -0.025000 0.000000
-0.075000 0.000000 0.000000
-0.075000 0.025000 0.000000
-0.075000 0.050000 0.000000
-0.075000 0.075000 0.000000
-0.075000 0.100000 0.000000
-0.075000 0.125000 0.000000
-0.075000 0.150000 0.000000
-0.075000 0.175000 0.000000
-0.075000 0.200000 0.000000
-0.075000 0.225000 0.000000
-0.075000 0.250000 0.000000
-0.075000 0.275000 0.000000
-0.075000 0.300000 0.000000
-0.075000 0.325000 0.000000
-0.075000 0.350000 0.000000
-0.075000 0.375000 0.000000
-0.075000 0.400000 0.000000
-0.075000 0.425000 0.000000
-0.075000 0.450000 0.000000
-0.075000 0.475000 0.000000
-0.075000 0.500000 0.000000
-0.075000 0.525000 0.000000
-0.075000 0.550000 0.000000
-0.075000 0.575000 0.000000
-0.075000 0.600000 0.000000
-0.050000 -0.075000 0.000000
-0.050000 -0.050000 0.000000
-0.050000 -0.025000 0.000000
-0.050000 0.000000 0.000000
-0.050000 0.025000 0.000000
-0.050000 0.050000 0.000000
-0.050000 0.075000 0.000000
-0.050000 0.100000 0.000000
-0.050000 0.125000 0.000000
-0.050000 0.150000 0.000000
-0.050000 0.175000 0.000000
-0.050000 0.200000 0.000000
-0.050000 0.225000 0.000000
-0.050000 0.250000 0.000000
-0.050000 0.275000 0.000000
-0.050000 0.300000 0.000000
-0.050000 0.325000 0.000000
-0.050000 0.350000 0.000000
-0.050000 0.375000 0.000000
-0.050000 0.400000 0.000000
-0.050000 0.425000 0.000000
-0.050000 0.450000 0.000000
-0.050000 0.475000 0.000000
-0.050000 0.500000 0.000000
-0.050000 0.525000 0.000000
-0.050000 0.550000 0.000000
-0.050000 0.575000 0.000000
-0.050000 0.600000 0.000000
-0.025000 -0.075000 0.000000
-0.025000 -0.050000 0.000000
-0.025000 -0.025000 0.000000
-0.025000 0.000000 0.000000
-0.025000 0.025000 0.000000
-0.025000 0.050000 0.000000
-0.025000 0.075000 0.000000
-0.025000 0.100000 0.000000
-0.025000 0.125000 0.000000
-0.025000 0.150000 0.000000
-0.025000 0.175000 0.000000
-0.025000 0.200000 0.000000
-0.025000 0.225000 0.000000
-0.025000 0.250000 0.000000
-0.025000 0.275000 0.000000
-0.025000 0.300000 0.000000
-0.025000 0.325000 0.000000
-0.025000 0.350000 0.000000
-0.025000 0.375000 0.000000
-0.025000 0.400000 0.000000
-0.025000 0.425000 0.000000
-0.025000 0.450000 0.000000
-0.025000 0.475000 0.000000
-0.025000 0.500000 0.000000
-0.025000 0.525000 0.000000
-0.025000 0.550000 0.000000
-0.025000 0.575000 0.000000
-0.025000 0.600000 0.000000
0.000000 -0.075000 0.000000
0.000000 -0.050000 0.000000
0.000000 -0.025000 0.000000
0.000000 0.000000 0.000000
0.000000 0.025000 0.000000
0.000000 0.050000 0.000000
0.000000 0.075000 0.000000
0.000000 0.100000 0.000000
0.000000 0.125000 0.000000
0.000000 0.150000 0.000000
0.000000 0.175000 0.000000
0.000000 0.200000 0.000000
0.000000 0.225000 0.000000
0.000000 0.250000 0.000000
0.000000 0.275000 0.000000
0.000000 0.300000 0.000000
0.000000 0.325000 0.000000
0.000000 0.350000 0.000000
0.000000 0.375000 0.000000
0.000000 0.400000 0.000000
0.000000 0.425000 0.000000
0.000000 0.450000 0.000000
0.000000 0.475000 0.000000
0.000000 0.500000 0.000000
0.000000 0.525000 0.000000
0.000000 0.550000 0.000000
0.000000 0.575000 0.000000
0.000000 0.600000 0.000000
0.025000 -0.075000 0.000000
0.025000 -0.050000 0.000000
0.025000 -0.025000 0.000000
0.025000 0.000000 0.000000
0.136570 0.043096 0.000000
0.164808 0.144663 0.000000
0.149747 0.023665 0.000000
0.172104 0.024562 0.000000
0.215979 0.047937 0.000000
0.112039 0.124546 0.000000
0.283785 0.025245 0.000000
0.187103 0.041905 0.000000
0.167071 0.080560 0.000000
0.053445 0.267338 0.000000
0.205977 0.023576 0.000000
0.058175 0.161581 0.000000
0.109561 0.021513 0.000000
0.088412 0.031930 0.000000
0.122414 0.162496 0.000000
0.072203 0.054054 0.000000
0.059738 0.194949 0.000000
0.065606 0.023030 0.000000
0.055888 0.209857 0.000000
0.114582 0.044742 0.000000
0.050000 -0.075000 0.000000
0.050000 -0.050000 0.000000
0.050000 -0.025000 0.000000
0.050000 0.000000 0.000000
0.120285 0.213458 0.000000
0.067708 0.138594 0.000000
0.048918 0.250735 0.000000
0.022561 0.027141 0.000000
0.022985 0.152168 0.000000
0.428287 0.054240 0.000000
0.156836 0.124006 0.000000
0.568415 0.038027 0.000000
0.113053 0.181179 0.000000
0.200595 0.187164 0.000000
0.093917 0.101616 0.000000
0.206506 0.117972 0.000000
0.023498 0.283702 0.000000
0.135896 0.198682 0.000000
0.072968 0.080011 0.000000
0.021477 0.063971 0.000000
0.187944 0.109099 0.000000
0.206129 0.094843 0.000000
0.082414 0.305300 0.000000
0.053366 0.074097 0.000000
0.075000 -0.075000 0.000000
0.075000 -0.050000 0.000000
0.075000 -0.025000 0.000000
0.075000 0.000000 0.000000
0.100299 0.155661 0.000000
0.156997 0.099925 0.000000
0.373866 0.037589 0.000000
0.309881 0.022513 0.000000
0.402444 0.105744 0.000000
0.656644 0.025316 0.000000
0.658536 0.051513 0.000000
0.048154 0.130262 0.000000
0.343392 0.124883 0.000000
0.635422 0.070554 0.000000
0.417239 0.022855 0.000000
0.087713 0.124342 0.000000
0.188235 0.068263 0.000000
0.185946 0.135030 0.000000
0.233804 0.081487 0.000000
0.041103 0.096768 0.000000
0.136562 0.102304 0.000000
0.039199 0.053831 0.000000
0.142779 0.065621 0.000000
0.120730 0.072913 0.000000
0.100000 -0.075000 0.000000
0.100000 -0.050000 0.000000
0.100000 -0.025000 0.000000
0.100000 0.000000 0.000000
0.460276 0.022344 0.000000
0.287181 0.151234 0.000000
0.475696 0.041967 0.000000
0.789266 0.022389 0.000000
0.210565 0.069949 0.000000
0.721879 0.023932 0.000000
0.607560 0.088796 0.000000
0.246997 0.043325 0.000000
0.677241 0.025382 0.000000
0.684728 0.057651 0.000000
0.440292 0.032015 0.000000
0.299639 0.138411 0.000000
0.529369 0.048388 0.000000
0.610342 0.026491 0.000000
0.077318 0.216580 0.000000
0.228797 0.026363 0.000000
0.520680 0.025379 0.000000
0.248620 0.069117 0.000000
0.318442 0.083031 0.000000
0.188047 0.168746 0.000000
0.125000 -0.075000 0.000000
0.125000 -0.050000 0.000000
0.125000 -0.025000 0.000000
0.125000 0.000000 0.000000
0.702925 0.076331 0.000000
0.669394 0.102698 0.000000
0.988276 0.054745 0.000000
0.826797 0.022142 0.000000
0.541328 0.061240 0.000000
0.579554 0.022192 0.000000
0.172249 0.184523 0.000000
0.466260 0.065534 0.000000
0.764376 0.074712 0.000000
0.734575 0.057740 0.000000
0.860527 0.046068 0.000000
0.488134 0.070908 0.000000
0.491907 0.024663 0.000000
0.453166 0.114594 0.000000
0.394295 0.026964 0.000000
0.413682 0.125305 0.000000
0.271989 0.149960 0.000000
0.112379 0.089698 0.000000
0.450039 0.094125 0.000000
0.039553 0.163481 0.000000
0.150000 -0.075000 0.000000
0.150000 -0.050000 0.000000
0.150000 -0.025000 0.000000
0.150000 0.000000 0.000000
0.205489 0.153398 0.000000
0.961985 0.034915 0.000000
0.734470 0.096106 0.000000
0.270692 0.053486 0.000000
0.881292 0.029108 0.000000
0.164515 0.056182 0.000000
0.919249 0.040300 0.000000
0.411379 0.074177 0.000000
0.937310 0.048499 0.000000
0.520225 0.090969 0.000000
0.901410 0.110054 0.000000
0.698930 0.034070 0.000000
0.827584 0.064640 0.000000
0.806728 0.061309 0.000000
0.765513 0.027446 0.000000
0.617863 0.045784 0.000000
0.632569 0.025382 0.000000
0.648562 0.079598 0.000000
0.675848 0.077991 0.000000
0.227637 0.125978 0.000000
0.175000 -0.075000 0.000000
0.175000 -0.050000 0.000000
0.175000 -0.025000 0.000000
0.175000 0.000000 0.000000
0.083097 0.163835 0.000000
0.604740 0.103725 0.000000
0.887070 0.052089 0.000000
0.811664 0.101181 0.000000
0.991547 0.019252 0.000000
0.150571 0.263319 0.000000
0.853055 0.025739 0.000000
0.323527 0.047360 0.000000
0.359680 0.021785 0.000000
0.904576 0.022591 0.000000
0.511809 0.081362 0.000000
0.738196 0.079920 0.000000
0.376312 0.091980 0.000000
0.941275 0.019864 0.000000
0.973337 0.049055 0.000000
0.402795 0.050395 0.000000
1.004546 0.044935 0.000000
0.470101 0.108489 0.000000
0.144646 0.181595 0.000000
0.393884 0.130913 0.000000
0.200000 -0.075000 0.000000
0.200000 -0.050000 0.000000
0.200000 -0.025000 0.000000
0.200000 0.000000 0.000000
0.336903 0.090516 0.000000
0.090745 0.059300 0.000000
0.269247 0.102059 0.000000
0.800130 0.040993 0.000000
0.341787 0.057390 0.000000
0.263843 0.119149 0.000000
0.592942 0.052761 0.000000
0.944196 0.071783 0.000000
0.383555 0.122022 0.000000
0.021791 0.195252 0.000000
0.781317 0.071588 0.000000
0.695373 0.094102 0.000000
0.044416 0.029168 0.000000
0.446160 0.067401 0.000000
0.568350 0.063522 0.000000
0.086766 0.264030 0.000000
0.717664 0.047433 0.000000
0.351370 0.139374 0.000000
0.874616 0.061484 0.000000
0.717360 0.113417 0.000000
0.225000 -0.075000 0.000000
0.225000 -0.050000 0.000000
0.225000 -0.025000 0.000000
0.225000 0.000000 0.000000
0.275995 0.076316 0.000000
0.830009 0.045818 0.000000
0.559970 0.076663 0.000000
0.157343 0.209540 0.000000
0.019241 0.246895 0.000000
0.102909 0.207147 0.000000
0.419930 0.090482 0.000000
0.917339 0.067325 0.000000
0.603807 0.073524 0.000000
0.082465 0.190603 0.000000
0.649391 0.106656 0.000000
0.103437 0.408341 0.000000
0.336242 0.030061 0.000000
0.384409 0.067446 0.000000
0.070983 0.105988 0.000000
0.214415 0.173835 0.000000
0.500052 0.047097 0.000000
0.024752 0.098531 0.000000
0.242728 0.102967 0.000000
0.296100 0.047060 0.000000
0.250000 -0.075000 0.000000
0.250000 -0.050000 0.000000
0.250000 -0.025000 0.000000
0.250000 0.000000 0.000000
0.745303 0.027211 0.000000
0.325314 0.129837 0.000000
0.250478 0.143854 0.000000
0.295708 0.100373 0.000000
0.259204 0.024143 0.000000
0.356625 0.093287 0.000000
0.146400 0.152984 0.000000
0.257027 0.198757 0.000000
0.248288 0.180918 0.000000
0.481626 0.098804 0.000000
0.232711 0.146900 0.000000
0.042108 0.274640 0.000000
0.130268 0.129098 0.000000
0.542936 0.023121 0.000000
0.361924 0.068020 0.000000
0.298793 0.070709 0.000000
0.308033 0.113609 0.000000
0.767809 0.055626 0.000000
0.025912 0.128685 0.000000
0.508228 0.119699 0.000000
0.275000 -0.075000 0.000000
0.275000 -0.050000 0.000000
0.275000 -0.025000 0.000000
0.275000 0.000000 0.000000
0.300000 -0.075000 0.000000
0.300000 -0.050000 0.000000
0.300000 -0.025000 0.000000
0.300000 0.000000 0.000000
0.325000 -0.075000 0.000000
0.325000 -0.050000 0.000000
0.325000 -0.025000 0.000000
0.325000 0.000000 0.000000
0.350000 -0.075000 0.000000
0.350000 -0.050000 0.000000
0.350000 -0.025000 0.000000
0.350000 0.000000 0.000000
0.375000 -0.075000 0.000000
0.375000 -0.050000 0.000000
0.375000 -0.025000 0.000000
0.375000 0.000000 0.000000
0.400000 -0.075000 0.000000
0.400000 -0.050000 0.000000
0.400000 -0.025000 0.000000
0.400000 0.000000 0.000000
0.425000 -0.075000 0.000000
0.425000 -0.050000 0.000000
0.425000 -0.025000 0.000000
0.425000 0.000000 0.000000
0.450000 -0.075000 0.000000
0.450000 -0.050000 0.000000
0.450000 -0.025000 0.000000
0.450000 0.000000 0.000000
0.475000 -0.075000 0.000000
0.475000 -0.050000 0.000000
0.475000 -0.025000 0.000000
0.475000 0.000000 0.000000
0.500000 -0.075000 0.000000
0.500000 -0.050000 0.000000
0.500000 -0.025000 0.000000
0.500000 0.000000 0.000000
0.525000 -0.075000 0.000000
0.525000 -0.050000 0.000000
0.525000 -0.025000 0.000000
0.525000 0.000000 0.000000
0.550000 -0.075000 0.000000
0.550000 -0.050000 0.000000
0.550000 -0.025000 0.000000
0.550000 0.000000 0.000000
0.575000 -0.075000 0.000000
0.575000 -0.050000 0.000000
0.575000 -0.025000 0.000000
0.575000 0.000000 0.000000
0.600000 -0.075000 0.000000
0.600000 -0.050000 0.000000
0.600000 -0.025000 0.000000
0.600000 0.000000 0.000000
0.625000 -0.075000 0.000000
0.625000 -0.050000 0.000000
0.625000 -0.025000 0.000000
0.625000 0.000000 0.000000
0.650000 -0.075000 0.000000
0.650000 -0.050000 0.000000
0.650000 -0.025000 0.000000
0.650000 0.000000 0.000000
0.675000 -0.075000 0.000000
0.675000 -0.050000 0.000000
0.675000 -0.025000 0.000000
0.675000 0.000000 0.000000
0.700000 -0.075000 0.000000
0.700000 -0.050000 0.000000
0.700000 -0.025000 0.000000
0.700000 0.000000 0.000000
0.725000 -0.075000 0.000000
0.725000 -0.050000 0.000000
0.725000 -0.025000 0.000000
0.725000 0.000000 0.000000
0.750000 -0.075000 0.000000
0.750000 -0.050000 0.000000
0.750000 -0.025000 0.000000
0.750000 0.000000 0.000000
0.775000 -0.075000 0.000000
0.775000 -0.050000 0.000000
0.775000 -0.025000 0.000000
0.775000 0.000000 0.000000
0.800000 -0.075000 0.000000
0.800000 -0.050000 0.000000
0.800000 -0.025000 0.000000
0.800000 0.000000 0.000000
0.825000 -0.075000 0.000000
0.825000 -0.050000 0.000000
0.825000 -0.025000 0.000000
0.825000 0.000000 0.000000
0.850000 -0.075000 0.000000
0.850000 -0.050000 0.000000
0.850000 -0.025000 0.000000
0.850000 0.000000 0.000000
0.875000 -0.075000 0.000000
0.875000 -0.050000 0.000000
0.875000 -0.025000 0.000000
0.875000 0.000000 0.000000
0.900000 -0.075000 0.000000
0.900000 -0.050000 0.000000
0.900000 -0.025000 0.000000
0.900000 0.000000 0.000000
0.925000 -0.075000 0.000000
0.925000 -0.050000 0.000000
0.925000 -0.025000 0.000000
0.925000 0.000000 0.000000
0.950000 -0.075000 0.000000
0.950000 -0.050000 0.000000
0.950000 -0.025000 0.000000
0.950000 0.000000 0.000000
0.975000 -0.075000 0.000000
0.975000 -0.050000 0.000000
0.975000 -0.025000 0.000000
0.975000 0.000000 0.000000
1.000000 -0.075000 0.000000
1.000000 -0.050000 0.000000
1.000000 -0.025000 0.000000
1.000000 0.000000 0.000000
1.025000 -0.075000 0.000000
1.025000 -0.050000 0.000000
1.025000 -0.025000 0.000000
1.025000 0.000000 0.000000
1.025000 0.025000 0.000000
1.025000 0.050000 0.000000
1.025000 0.075000 0.000000
1.025000 0.100000 0.000000
1.025000 0.125000 0.000000
1.025000 0.150000 0.000000
1.025000 0.175000 0.000000
1.025000 0.200000 0.000000
1.025000 0.225000 0.000000
1.025000 0.250000 0.000000
1.025000 0.275000 0.000000
1.025000 0.300000 0.000000
1.025000 0.325000 0.000000
1.025000 0.350000 0.000000
1.025000 0.375000 0.000000
1.025000 0.400000 0.000000
1.025000 0.425000 0.000000
1.025000 0.450000 0.000000
1.025000 0.475000 0.000000
1.025000 0.500000 0.000000
1.025000 0.525000 0.000000
1.025000 0.550000 0.000000
1.025000 0.575000 0.000000
1.025000 0.600000 0.000000
1.050000 -0.075000 0.000000
1.050000 -0.050000 0.000000
1.050000 -0.025000 0.000000
1.050000 0.000000 0.000000
1.050000 0.025000 0.000000
1.050000 0.050000 0.000000
1.050000 0.075000 0.000000
1.050000 0.100000 0.000000
1.050000 0.125000 0.000000
1.050000 0.150000 0.000000
1.050000 0.175000 0.000000
1.050000 0.200000 0.000000
1.050000 0.225000 0.000000
1.050000 0.250000 0.000000
1.050000 0.275000 0.000000
1.050000 0.300000 0.000000
1.050000 0.325000 0.000000
1.050000 0.350000 0.000000
1.050000 0.375000 0.000000
1.050000 0.400000 0.000000
1.050000 0.425000 0.000000
1.050000 0.450000 0.000000
1.050000 0.475000 0.000000
1.050000 0.500000 0.000000
1.050000 0.525000 0.000000
1.050000 0.550000 0.000000
1.050000 0.575000 0.000000
1.050000 0.600000 0.000000
1.075000 -0.075000 0.000000
1.075000 -0.050000 0.000000
1.075000 -0.025000 0.000000
1.075000 0.000000 0.000000
1.075000 0.025000 0.000000
1.075000 0.050000 0.000000
1.075000 0.075000 0.000000
1.075000 0.100000 0.000000
1.075000 0.125000 0.000000
1.075000 0.150000 0.000000
1.075000 0.175000 0.000000
1.075000 0.200000 0.000000
1.075000 0.225000 0.000000
1.075000 0.250000 0.000000
1.075000 0.275000 0.000000
1.075000 0.300000 0.000000
1.075000 0.325000 0.000000
1.075000 0.350000 0.000000
1.075000 0.375000 0.000000
1.075000 0.400000 0.000000
1.075000 0.425000 0.000000
1.075000 0.450000 0.000000
1.075000 0.475000 0.000000
1.075000 0.500000 0.000000
1.075000 0.525000 0.000000
1.075000 0.550000 0.000000
1.075000 0.575000 0.000000
1.075000 0.600000 0.000000
1.100000 -0.075000 0.000000
1.100000 -0.050000 0.000000
1.100000 -0.025000 0.000000
1.100000 0.000000 0.000000
1.100000 0.025000 0.000000
1.100000 0.050000 0.000000
1.100000 0.075000 0.000000
1.100000 0.100000 0.000000
1.100000 0.125000 0.000000
1.100000 0.150000 0.000000
1.100000 0.175000 0.000000
1.100000 0.200000 0.000000
1.100000 0.225000 0.000000
1.100000 0.250000 0.000000
1.100000 0.275000 0.000000
1.100000 0.300000 0.000000
1.100000 0.325000 0.000000
1.100000 0.350000 0.000000
1.100000 0.375000 0.000000
1.100000 0.400000 0.000000
1.100000 0.425000 0.000000
1.100000 0.450000 0.000000
1.100000 0.475000 0.000000
1.100000 0.500000 0.000000
1.100000 0.525000 0.000000
1.100000 0.550000 0.000000
1.100000 0.575000 0.000000
1.100000 0.600000 0.000000
</DataArray>
</Points>
<PointData>
<DataArray NumberOfComponents='1' type='Int32' Name='ParticleType' format='ascii'>
3
3
3
3
3
3
3
3
3
3
3
3
3
3
3
3
3
3
3
3
3
3
3
3
3
3
2
2
3
3
3
3
3
3
3
3
3
3
3
3
3
3
3
3
3
3
3
3
3
3
3
3
3
3
2
2
3
3
2
2
2
2
2
2
2
2
2
2
2
2
2
2
2
2
2
2
2
2
2
2
2
2
2
2
3
3
2
2
2
2
2
2
2
2
2
2
2
2
2
2
2
2
2
2
2
2
2
2
2
2
2
2
3
3
2
2
0
0
0
0
0
0
0
0
0
0
0
0
0
0
0
0
0
0
0
0
3
3
2
2
0
0
0
0
0
0
0
0
0
0
0
0
0
0
0
0
0
0
0
0
3
3
2
2
0
0
0
0
0
0
0
0
0
0
0
0
0
0
0
0
0
0
0
0
3
3
2
2
0
0
0
0
0
0
0
0
0
0
0
0
0
0
0
0
0
0
0
0
3
3
2
2
0
0
0
0
0
0
0
0
0
0
0
0
0
0
0
0
0
0
0
0
3
3
2
2
0
0
0
0
0
0
0
0
0
0
0
0
0
0
0
0
0
0
0
0
3
3
2
2
0
0
0
0
0
0
0
0
0
0
0
0
0
0
0
0
0
0
0
0
3
3
2
2
0
0
0
0
0
0
0
0
0
0
0
0
0
0
0
0
0
0
0
0
3
3
2
2
0
0
0
0
0
0
0
0
0
0
0
0
0
0
0
0
0
0
0
0
3
3
2
2
0
0
0
0
0
0
0
0
0
0
0
0
0
0
0
0
0
0
0
0
3
3
2
2
3
3
2
2
3
3
2
2
3
3
2
2
3
3
2
2
3
3
2
2
3
3
2
2
3
3
2
2
3
3
2
2
3
3
2
2
3
3
2
2
3
3
2
2
3
3
2
2
3
3
2
2
3
3
2
2
3
3
2
2
3
3
2
2
3
3
2
2
3
3
2
2
3
3
2
2
3
3
2
2
3
3
2
2
3
3
2
2
3
3
2
2
3
3
2
2
3
3
2
2
3
3
2
2
3
3
2
2
3
3
2
2
3
3
2
2
3
3
2
2
2
2
2
2
2
2
2
2
2
2
2
2
2
2
2
2
2
2
2
2
2
2
2
2
3
3
2
2
2
2
2
2
2
2
2
2
2
2
2
2
2
2
2
2
2
2
2
2
2
2
2
2
3
3
3
3
3
3
3
3
3
3
3
3
3
3
3
3
3
3
3
3
3
3
3
3
3
3
2
2
3
3
3
3
3
3
3
3
3
3
3
3
3
3
3
3
3
3
3
3
3
3
3
3
3
3
2
2
</DataArray>
<DataArray NumberOfComponents='1' type='Float32' Name='Velocity' format='ascii'>
0.000000
0.000000
0.000000
0.000000
0.000000
0.000000
0.000000
0.000000
0.000000
0.000000
0.000000
0.000000
0.000000
0.000000
0.000000
0.000000
0.000000
0.000000
0.000000
0.000000
0.000000
0.000000
0.000000
0.000000
0.000000
0.000000
0.000000
0.000000
0.000000
0.000000
0.000000
0.000000
0.000000
0.000000
0.000000
0.000000
0.000000
0.000000
0.000000
0.000000
0.000000
0.000000
0.000000
0.000000
0.000000
0.000000
0.000000
0.000000
0.000000
0.000000
0.000000
0.000000
0.000000
0.000000
0.000000
0.000000
0.000000
0.000000
0.000000
0.000000
0.000000
0.000000
0.000000
0.000000
0.000000
0.000000
0.000000
0.000000
0.000000
0.000000
0.000000
0.000000
0.000000
0.000000
0.000000
0.000000
0.000000
0.000000
0.000000
0.000000
0.000000
0.000000
0.000000
0.000000
0.000000
0.000000
0.000000
0.000000
0.000000
0.000000
0.000000
0.000000
0.000000
0.000000
0.000000
0.000000
0.000000
0.000000
0.000000
0.000000
0.000000
0.000000
0.000000
0.000000
0.000000
0.000000
0.000000
0.000000
0.000000
0.000000
0.000000
0.000000
0.000000
0.000000
0.000000
0.000000
0.405814
0.255212
0.217870
0.262930
0.037725
0.099457
0.151558
0.184121
0.474160
0.184740
0.145022
0.392348
0.135597
0.286945
0.199968
0.435887
0.323692
0.183667
0.478953
0.416346
0.000000
0.000000
0.000000
0.000000
0.316348
0.127070
0.163882
0.179460
0.154303
0.165970
0.191017
0.338174
0.446187
0.490548
0.110030
0.125973
0.461285
0.440238
0.140285
0.198108
0.219227
0.408744
0.566736
0.046574
0.000000
0.000000
0.000000
0.000000
0.480015
0.314279
0.387006
0.141239
0.818512
0.249766
0.722946
0.267226
0.952516
0.530863
0.121766
0.079577
0.316830
0.456911
0.132400
0.161126
0.148551
0.372343
0.152274
0.360595
0.000000
0.000000
0.000000
0.000000
0.072771
0.722456
0.309643
0.290869
0.115860
0.248462
0.580783
0.200403
0.284976
0.434331
0.439227
0.650719
0.217012
0.056697
0.668678
0.023025
0.180485
0.028329
0.389726
0.611232
0.000000
0.000000
0.000000
0.000000
0.273267
0.793731
0.333053
0.248545
0.247718
0.186882
0.701468
0.477783
0.379874
0.471689
0.293174
0.861664
0.141117
0.709819
0.261705
0.902467
0.867743
0.150200
0.900862
0.314254
0.000000
0.000000
0.000000
0.000000
0.710855
0.061285
0.607399
0.275499
0.068212
0.509005
0.108007
0.149870
0.081041
0.825626
0.275842
0.431024
0.150989
0.068504
0.218910
0.203638
0.194516
0.500891
0.154814
0.577208
0.000000
0.000000
0.000000
0.000000
0.358495
0.682737
0.352309
0.454215
0.169184
0.489174
0.206370
0.277138
0.115099
0.046241
0.772728
0.363689
0.520012
0.020012
0.052800
0.110194
0.263251
0.543889
0.821097
0.440620
0.000000
0.000000
0.000000
0.000000
0.444668
0.368779
0.382330
0.115091
0.142877
0.406445
0.351842
0.248985
0.528195
0.710068
0.274336
0.573465
0.122957
0.419508
0.519739
0.337475
0.334799
0.510821
0.109641
0.339644
0.000000
0.000000
0.000000
0.000000
0.134510
0.358421
0.533678
1.101917
0.496209
0.951718
0.180234
0.346695
0.676981
0.283359
1.064707
0.546934
0.153950
0.176290
0.341298
0.408542
0.253952
0.284643
0.324122
0.074681
0.000000
0.000000
0.000000
0.000000
0.156281
0.358081
0.708125
0.305784
0.180776
0.602475
0.480323
0.402952
0.445453
0.614217
0.475520
0.705037
0.122792
0.106273
0.197342
0.166703
0.677000
0.158519
0.141668
0.666789
0.000000
0.000000
0.000000
0.000000
0.000000
0.000000
0.000000
0.000000
0.000000
0.000000
0.000000
0.000000
0.000000
0.000000
0.000000
0.000000
0.000000
0.000000
0.000000
0.000000
0.000000
0.000000
0.000000
0.000000
0.000000
0.000000
0.000000
0.000000
0.000000
0.000000
0.000000
0.000000
0.000000
0.000000
0.000000
0.000000
0.000000
0.000000
0.000000
0.000000
0.000000
0.000000
0.000000
0.000000
0.000000
0.000000
0.000000
0.000000
0.000000
0.000000
0.000000
0.000000
0.000000
0.000000
0.000000
0.000000
0.000000
0.000000
0.000000
0.000000
0.000000
0.000000
0.000000
0.000000
0.000000
0.000000
0.000000
0.000000
0.000000
0.000000
0.000000
0.000000
0.000000
0.000000
0.000000
0.000000
0.000000
0.000000
0.000000
0.000000
0.000000
0.000000
0.000000
0.000000
0.000000
0.000000
0.000000
0.000000
0.000000
0.000000
0.000000
0.000000
0.000000
0.000000
0.000000
0.000000
0.000000
0.000000
0.000000
0.000000
0.000000
0.000000
0.000000
0.000000
0.000000
0.000000
0.000000
0.000000
0.000000
0.000000
0.000000
0.000000
0.000000
0.000000
0.000000
0.000000
0.000000
0.000000
0.000000
0.000000
0.000000
0.000000
0.000000
0.000000
0.000000
0.000000
0.000000
0.000000
0.000000
0.000000
0.000000
0.000000
0.000000
0.000000
0.000000
0.000000
0.000000
0.000000
0.000000
0.000000
0.000000
0.000000
0.000000
0.000000
0.000000
0.000000
0.000000
0.000000
0.000000
0.000000
0.000000
0.000000
0.000000
0.000000
0.000000
0.000000
0.000000
0.000000
0.000000
0.000000
0.000000
0.000000
0.000000
0.000000
0.000000
0.000000
0.000000
0.000000
0.000000
0.000000
0.000000
0.000000
0.000000
0.000000
0.000000
0.000000
0.000000
0.000000
0.000000
0.000000
0.000000
0.000000
0.000000
0.000000
0.000000
0.000000
0.000000
0.000000
0.000000
0.000000
0.000000
0.000000
0.000000
0.000000
0.000000
0.000000
0.000000
0.000000
0.000000
0.000000
0.000000
0.000000
0.000000
0.000000
0.000000
0.000000
0.000000
0.000000
0.000000
0.000000
0.000000
0.000000
0.000000
0.000000
0.000000
0.000000
0.000000
0.000000
0.000000
0.000000
0.000000
0.000000
0.000000
0.000000
0.000000
0.000000
0.000000
0.000000
0.000000
0.000000
0.000000
0.000000
</DataArray>
<DataArray NumberOfComponents='1' type='Float32' Name='pressure' format='ascii'>
0.000000
0.000000
0.000000
0.000000
0.000000
0.000000
0.000000
0.000000
0.000000
0.000000
0.000000
0.000000
0.000000
0.000000
0.000000
0.000000
0.000000
0.000000
0.000000
0.000000
0.000000
0.000000
0.000000
0.000000
0.000000
0.000000
0.000000
0.000000
0.000000
0.000000
0.000000
0.000000
0.000000
0.000000
0.000000
0.000000
0.000000
0.000000
0.000000
0.000000
0.000000
0.000000
0.000000
0.000000
0.000000
0.000000
0.000000
0.000000
0.000000
0.000000
0.000000
0.000000
0.000000
0.000000
0.000000
0.000000
0.000000
0.000000
1450.769653
1664.936279
2528.710693
1807.216064
1362.049072
225.970840
0.000000
1047.035278
299.366241
1798.510254
1258.529053
3040.529297
825.245422
0.000000
0.000000
0.000000
0.000000
0.000000
0.000000
0.000000
0.000000
0.000000
0.000000
0.000000
0.000000
0.000000
0.000000
0.000000
1210.146362
1453.220337
2802.580566
752.512146
0.000000
0.000000
0.000000
737.050476
0.000000
0.000000
0.000000
611.716858
0.000000
0.000000
0.000000
0.000000
0.000000
0.000000
0.000000
0.000000
0.000000
0.000000
0.000000
0.000000
0.000000
0.000000
0.000000
0.000000
397.392120
250.425461
1652.036499
1174.661987
1020.613403
1627.669678
806.769958
306.703186
1860.425781
2206.968506
0.000000
0.000000
2309.797363
1413.403320
1959.229370
932.404297
407.277863
1059.683350
0.000000
1809.924194
0.000000
1231.421631
0.000000
0.000000
1132.665039
754.643921
0.000000
1319.479858
0.000000
1288.666748
1574.559204
89.639519
1087.311890
0.000000
2383.595215
0.000000
1401.693970
1776.978760
0.000000
371.369781
557.746033
929.475342
27.966188
0.000000
0.000000
901.239319
0.000000
0.000000
2097.837402
2074.061768
84.754654
944.928894
0.000000
1883.638062
0.000000
1434.711426
0.000000
0.000000
0.000000
0.000000
1136.290771
557.079773
1386.489624
0.000000
1314.347900
0.000000
0.000000
583.141846
3065.006104
161.947006
0.000000
0.000000
2817.049316
2192.032715
1208.857178
0.000000
0.000000
598.834106
2176.672363
1839.581421
0.000000
2740.707275
767.426819
0.000000
0.000000
0.000000
17.848547
925.158325
0.000000
2128.385742
0.000000
1200.491211
0.000000
0.000000
0.000000
0.000000
2275.449951
0.000000
0.000000
0.000000
0.000000
0.000000
0.000000
0.000000
0.000000
429.659546
0.000000
0.000000
0.000000
0.000000
0.000000
0.000000
1287.878418
0.000000
0.000000
1701.201294
0.000000
0.000000
0.000000
0.000000
2557.841553
1805.590942
1565.932129
514.606750
0.000000
1108.070801
619.345947
1075.360962
332.632599
401.347626
0.000000
0.000000
0.000000
1096.498657
0.000000
0.000000
0.000000
0.000000
491.395203
9.594419
2032.027100
1235.539429
0.000000
0.000000
2479.027100
2977.400879
971.708862
0.000000
0.000000
0.000000
0.000000
0.000000
277.626831
1487.503296
1395.855713
0.000000
247.687607
0.000000
0.000000
295.641052
0.000000
336.094147
1534.946289
0.000000
0.000000
0.000000
0.000000
0.000000
2690.032227
2651.808350
1071.635620
1213.864746
883.364868
591.664124
651.458862
1231.389893
0.000000
0.000000
0.000000
0.000000
0.000000
0.000000
2030.446777
0.000000
0.000000
0.000000
143.434265
0.000000
0.000000
0.000000
0.000000
0.000000
1791.641846
2077.932129
2152.527588
0.000000
0.000000
0.000000
0.000000
0.000000
0.000000
0.000000
651.664124
0.000000
0.000000
0.000000
642.376038
0.000000
0.000000
0.000000
0.000000
622.562256
0.000000
1543.950317
0.000000
0.000000
2007.365112
1652.581909
0.000000
0.000000
77.791199
198.193802
2130.836426
796.595032
0.000000
0.000000
0.000000
0.000000
120.532234
391.429901
1356.631226
0.000000
744.224976
1978.282349
1365.509277
1337.213745
517.139954
0.000000
0.000000
0.000000
2011.277588
1622.501587
0.000000
0.000000
2619.750732
3071.771973
0.000000
0.000000
2057.884277
983.839417
0.000000
0.000000
2597.433594
1612.223999
0.000000
0.000000
1986.541626
1411.005005
0.000000
0.000000
1535.888306
1187.942139
0.000000
0.000000
2257.751709
2352.040039
0.000000
0.000000
2019.405884
1763.083740
0.000000
0.000000
1189.072998
416.116028
0.000000
0.000000
646.605347
0.000000
0.000000
0.000000
1026.254028
1266.720215
0.000000
0.000000
1394.468018
1349.125488
0.000000
0.000000
1625.594971
1249.704712
0.000000
0.000000
42.230179
0.000000
0.000000
0.000000
215.760330
1279.026489
0.000000
0.000000
310.160278
1900.174072
0.000000
0.000000
199.533096
0.000000
0.000000
0.000000
0.000000
0.000000
0.000000
0.000000
610.330017
413.451416
0.000000
0.000000
0.000000
841.154541
0.000000
0.000000
965.435303
1337.255371
0.000000
0.000000
1464.132568
522.713440
0.000000
0.000000
1848.618530
1699.479126
0.000000
0.000000
238.815430
0.000000
0.000000
0.000000
0.000000
0.000000
0.000000
0.000000
1708.130371
557.215759
0.000000
0.000000
2544.370361
1222.867920
0.000000
0.000000
3304.083496
1012.927063
0.000000
0.000000
2653.786133
0.000000
0.000000
0.000000
3114.550537
1207.387329
0.000000
0.000000
877.148193
0.000000
0.000000
0.000000
0.000000
0.000000
0.000000
0.000000
0.000000
0.000000
0.000000
0.000000
0.000000
0.000000
0.000000
0.000000
0.000000
0.000000
0.000000
0.000000
0.000000
0.000000
0.000000
0.000000
0.000000
0.000000
0.000000
0.000000
543.358582
292.794495
273.177460
1500.671875
0.000000
0.000000
0.000000
0.000000
0.000000
0.000000
0.000000
0.000000
0.000000
0.000000
0.000000
0.000000
0.000000
0.000000
0.000000
0.000000
0.000000
0.000000
0.000000
0.000000
0.000000
0.000000
0.000000
0.000000
0.000000
0.000000
0.000000
0.000000
0.000000
0.000000
0.000000
0.000000
0.000000
0.000000
0.000000
0.000000
0.000000
0.000000
0.000000
0.000000
0.000000
0.000000
0.000000
0.000000
0.000000
0.000000
0.000000
0.000000
0.000000
0.000000
0.000000
0.000000
0.000000
0.000000
0.000000
0.000000
0.000000
0.000000
0.000000
0.000000
0.000000
0.000000
0.000000
0.000000
0.000000
0.000000
0.000000
0.000000
0.000000
0.000000
0.000000
0.000000
0.000000
0.000000
0.000000
0.000000
0.000000
0.000000
</DataArray>
</PointData>
<Cells>
<DataArray type='Int32' Name='connectivity' format='ascii'>
0
1
2
3
4
5
6
7
8
9
10
11
12
13
14
15
16
17
18
19
20
21
22
23
24
25
26
27
28
29
30
31
32
33
34
35
36
37
38
39
40
41
42
43
44
45
46
47
48
49
50
51
52
53
54
55
56
57
58
59
60
61
62
63
64
65
66
67
68
69
70
71
72
73
74
75
76
77
78
79
80
81
82
83
84
85
86
87
88
89
90
91
92
93
94
95
96
97
98
99
100
101
102
103
104
105
106
107
108
109
110
111
112
113
114
115
116
117
118
119
120
121
122
123
124
125
126
127
128
129
130
131
132
133
134
135
136
137
138
139
140
141
142
143
144
145
146
147
148
149
150
151
152
153
154
155
156
157
158
159
160
161
162
163
164
165
166
167
168
169
170
171
172
173
174
175
176
177
178
179
180
181
182
183
184
185
186
187
188
189
190
191
192
193
194
195
196
197
198
199
200
201
202
203
204
205
206
207
208
209
210
211
212
213
214
215
216
217
218
219
220
221
222
223
224
225
226
227
228
229
230
231
232
233
234
235
236
237
238
239
240
241
242
243
244
245
246
247
248
249
250
251
252
253
254
255
256
257
258
259
260
261
262
263
264
265
266
267
268
269
270
271
272
273
274
275
276
277
278
279
280
281
282
283
284
285
286
287
288
289
290
291
292
293
294
295
296
297
298
299
300
301
302
303
304
305
306
307
308
309
310
311
312
313
314