<?xml version='1.0' encoding='UTF-8'?>
<VTKFile xmlns='VTK' byte_order='LittleEndian' version='0.1' type='UnstructuredGrid'>
<UnstructuredGrid>
<Piece NumberOfCells='584' NumberOfPoints='584'>
<Points>
<DataArray NumberOfComponents='3' type='Float32' Name='Position' format='ascii'>
-0.075000 -0.075000 0.000000
-0.075000 -0.050000 0.000000
-0.075000 -0.025000 0.000000
-0.075000 0.000000 0.000000
-0.075000 0.025000 0.000000
-0.075000 0.050000 0.000000
-0.075000 0.075000 0.000000
-0.075000 0.100000 0.000000
-0.075000 0.125000 0.000000
-0.075000 0.150000 0.000000
-0.075000 0.175000 0.000000
-0.075000 0.200000 0.000000
-0.075000 0.225000 0.000000
-0.075000 0.250000 0.000000
-0.075000 0.275000 0.000000
-0.075000 0.300000 0.000000
-0.075000 0.325000 0.000000
-0.075000 0.350000 0.000000
-0.075000 0.375000 0.000000
-0.075000 0.400000 0.000000
-0.075000 0.425000 0.000000
-0.075000 0.450000 0.000000
-0.075000 0.475000 0.000000
-0.075000 0.500000 0.000000
-0.075000 0.525000 0.000000
-0.075000 0.550000 0.000000
-0.075000 0.575000 0.000000
-0.075000 0.600000 0.000000
-0.050000 -0.075000 0.000000
-0.050000 -0.050000 0.000000
-0.050000 -0.025000 0.000000
-0.050000 0.000000 0.000000
-0.050000 0.025000 0.000000
-0.050000 0.050000 0.000000
-0.050000 0.075000 0.000000
-0.050000 0.100000 0.000000
-0.050000 0.125000 0.000000
-0.050000 0.150000 0.000000
-0.050000 0.175000 0.000000
-0.050000 0.200000 0.000000
-0.050000 0.225000 0.000000
-0.050000 0.250000 0.000000
-0.050000 0.275000 0.000000
-0.050000 0.300000 0.000000
-0.050000 0.325000 0.000000
-0.050000 0.350000 0.000000
-0.050000 0.375000 0.000000
-0.050000 0.400000 0.000000
-0.050000 0.425000 0.000000
-0.050000 0.450000 0.000000
-0.050000 0.475000 0.000000
-0.050000 0.500000 0.000000
-0.050000 0.525000 0.000000
-0.050000 0.550000 0.000000
-0.050000 0.575000 0.000000
-0.050000 0.600000 0.000000
-0.025000 -0.075000 0.000000
-0.025000 -0.050000 0.000000
-0.025000 -0.025000 0.000000
-0.025000 0.000000 0.000000
-0.025000 0.025000 0.000000
-0.025000 0.050000 0.000000
-0.025000 0.075000 0.000000
-0.025000 0.100000 0.000000
-0.025000 0.125000 0.000000
-0.025000 0.150000 0.000000
-0.025000 0.175000 0.000000
-0.025000 0.200000 0.000000
-0.025000 0.225000 0.000000
-0.025000 0.250000 0.000000
-0.025000 0.275000 0.000000
-0.025000 0.300000 0.000000
-0.025000 0.325000 0.000000
-0.025000 0.350000 0.000000
-0.025000 0.375000 0.000000
-0.025000 0.400000 0.000000
-0.025000 0.425000 0.000000
-0.025000 0.450000 0.000000
-0.025000 0.475000 0.000000
-0.025000 0.500000 0.000000
-0.025000 0.525000 0.000000
-0.025000 0.550000 0.000000
-0.025000 0.575000 0.000000
-0.025000 0.600000 0.000000
0.000000 -0.075000 0.000000
0.000000 -0.050000 0.000000
0.000000 -0.025000 0.000000
0.000000 0.000000 0.000000
0.000000 0.025000 0.000000
0.000000 0.050000 0.000000
0.000000 0.075000 0.000000
0.000000 0.100000 0.000000
0.000000 0.125000 0.000000
0.000000 0.150000 0.000000
0.000000 0.175000 0.000000
0.000000 0.200000 0.000000
0.000000 0.225000 0.000000
0.000000 0.250000 0.000000
0.000000 0.275000 0.000000
0.000000 0.300000 0.000000
0.000000 0.325000 0.000000
0.000000 0.350000 0.000000
0.000000 0.375000 0.000000
0.000000 0.400000 0.000000
0.000000 0.425000 0.000000
0.000000 0.450000 0.000000
0.000000 0.475000 0.000000
0.000000 0.500000 0.000000
0.000000 0.525000 0.000000
0.000000 0.550000 0.000000
0.000000 0.575000 0.000000
0.000000 0.600000 0.000000
0.025000 -0.075000 0.000000
0.025000 -0.050000 0.000000
0.025000 -0.025000 0.000000
0.025000 0.000000 0.000000
0.245950 0.027248 0.000000
0.215404 0.021856 0.000000
0.195926 0.031184 0.000000
0.137575 0.027932 0.000000
0.333943 0.035815 0.000000
0.065125 0.023241 0.000000
0.418493 0.020381 0.000000
0.267871 0.022069 0.000000
0.163047 0.020250 0.000000
0.141724 0.051855 0.000000
0.213363 0.047549 0.000000
0.168123 0.044516 0.000000
0.113567 0.023380 0.000000
0.034022 0.022598 0.000000
0.021589 0.038324 0.000000
0.029442 0.074390 0.000000
0.091456 0.027490 0.000000
0.075715 0.051022 0.000000
0.054994 0.063590 0.000000
0.098755 0.052636 0.000000
0.050000 -0.075000 0.000000
0.050000 -0.050000 0.000000
0.050000 -0.025000 0.000000
0.050000 0.000000 0.000000
0.293571 0.035796 0.000000
0.430181 0.069314 0.000000
0.557164 0.046989 0.000000
0.514738 0.049757 0.000000
0.541462 0.074230 0.000000
0.586558 0.052074 0.000000
0.449689 0.039638 0.000000
0.692690 0.080587 0.000000
0.356290 0.027895 0.000000
0.351563 0.063096 0.000000
0.482247 0.062925 0.000000
0.398538 0.075070 0.000000
0.051962 0.045908 0.000000
0.393705 0.027842 0.000000
0.208699 0.066776 0.000000
0.248650 0.046881 0.000000
0.154722 0.063408 0.000000
0.245206 0.074859 0.000000
0.106101 0.071146 0.000000
0.120197 0.062494 0.000000
0.075000 -0.075000 0.000000
0.075000 -0.050000 0.000000
0.075000 -0.025000 0.000000
0.075000 0.000000 0.000000
0.313474 0.019057 0.000000
0.479434 0.040839 0.000000
0.494216 0.022180 0.000000
0.461083 0.022950 0.000000
0.745300 0.065675 0.000000
0.785095 0.027045 0.000000
0.809838 0.023457 0.000000
0.597141 0.065673 0.000000
0.745783 0.037336 0.000000
0.710444 0.022184 0.000000
0.541098 0.025864 0.000000
0.411923 0.072263 0.000000
0.404334 0.045199 0.000000
0.326054 0.070602 0.000000
0.295666 0.056208 0.000000
0.258715 0.065869 0.000000
0.276839 0.058302 0.000000
0.429748 0.047130 0.000000
0.360102 0.072866 0.000000
0.188938 0.056040 0.000000
0.100000 -0.075000 0.000000
0.100000 -0.050000 0.000000
0.100000 -0.025000 0.000000
0.100000 0.000000 0.000000
0.566928 0.022173 0.000000
0.519740 0.031973 0.000000
0.756748 0.021700 0.000000
0.913466 0.026468 0.000000
0.372225 0.031144 0.000000
0.871465 0.023635 0.000000
0.910872 0.068102 0.000000
0.836178 0.084570 0.000000
0.831005 0.028855 0.000000
0.850866 0.034484 0.000000
0.587680 0.034521 0.000000
0.622461 0.022140 0.000000
0.725207 0.071578 0.000000
0.769018 0.047448 0.000000
0.635756 0.067814 0.000000
0.319939 0.053324 0.000000
0.673485 0.043518 0.000000
0.705377 0.079596 0.000000
0.500217 0.065737 0.000000
0.462565 0.072588 0.000000
0.125000 -0.075000 0.000000
0.125000 -0.050000 0.000000
0.125000 -0.025000 0.000000
0.125000 0.000000 0.000000
0.923633 0.056722 0.000000
0.870174 0.074699 0.000000
1.002159 0.146411 0.000000
0.958641 0.026832 0.000000
0.985257 0.205197 0.000000
0.643325 0.030345 0.000000
0.912335 0.118095 0.000000
0.961267 0.170148 0.000000
0.933207 0.090750 0.000000
0.888191 0.079087 0.000000
0.932040 0.135217 0.000000
0.905582 0.155091 0.000000
0.830298 0.113078 0.000000
0.688553 0.054278 0.000000
0.618176 0.040999 0.000000
0.700327 0.035659 0.000000
0.905582 0.101060 0.000000
0.572030 0.112813 0.000000
0.799025 0.067927 0.000000
0.549511 0.064127 0.000000
0.150000 -0.075000 0.000000
0.150000 -0.050000 0.000000
0.150000 -0.025000 0.000000
0.150000 0.000000 0.000000
0.923370 0.210548 0.000000
1.001692 0.107011 0.000000
0.973873 0.315181 0.000000
0.864077 0.312309 0.000000
1.002185 0.081279 0.000000
0.870306 0.355298 0.000000
0.960730 0.118236 0.000000
0.881960 0.173783 0.000000
0.985243 0.116488 0.000000
0.960560 0.203850 0.000000
0.984523 0.046440 0.000000
0.891625 0.028494 0.000000
0.935232 0.026340 0.000000
0.949880 0.047873 0.000000
0.881875 0.051708 0.000000
0.813625 0.072774 0.000000
0.783111 0.057420 0.000000
0.850646 0.059453 0.000000
0.816978 0.049484 0.000000
0.671485 0.021510 0.000000
0.175000 -0.075000 0.000000
0.175000 -0.050000 0.000000
0.175000 -0.025000 0.000000
0.175000 0.000000 0.000000
0.596860 0.231768 0.000000
0.999840 0.170861 0.000000
0.997120 0.267853 0.000000
1.004476 0.210221 0.000000
0.981731 0.180597 0.000000
0.908200 0.326867 0.000000
0.985017 0.021255 0.000000
0.941196 0.231763 0.000000
0.891823 0.235651 0.000000
1.004358 0.038783 0.000000
0.945849 0.252544 0.000000
0.985026 0.238519 0.000000
0.838328 0.155704 0.000000
0.981508 0.140190 0.000000
0.948398 0.108675 0.000000
0.915079 0.227645 0.000000
0.967225 0.078219 0.000000
0.930634 0.153182 0.000000
0.891529 0.114626 0.000000
0.924547 0.176402 0.000000
0.200000 -0.075000 0.000000
0.200000 -0.050000 0.000000
0.200000 -0.025000 0.000000
0.200000 0.000000 0.000000
0.838209 0.746044 0.000000
0.910418 0.275409 0.000000
0.901092 0.421648 0.000000
0.995151 0.328207 0.000000
0.899016 0.355516 0.000000
0.922805 0.382737 0.000000
0.959367 0.430238 0.000000
0.977220 0.376626 0.000000
0.941701 0.316619 0.000000
0.848907 0.238299 0.000000
0.998216 0.362045 0.000000
0.983924 0.070077 0.000000
0.782551 0.220350 0.000000
0.881029 0.217050 0.000000
0.941878 0.201152 0.000000
0.917245 0.264498 0.000000
0.976809 0.284931 0.000000
0.898323 0.200083 0.000000
0.958536 0.153416 0.000000
0.946751 0.072536 0.000000
0.225000 -0.075000 0.000000
0.225000 -0.050000 0.000000
0.225000 -0.025000 0.000000
0.225000 0.000000 0.000000
0.908616 0.411244 0.000000
0.957642 1.297275 0.000000
0.942050 0.350210 0.000000
0.815956 0.253423 0.000000
0.616526 0.235089 0.000000
0.806000 0.335287 0.000000
0.928074 0.429803 0.000000
0.995991 0.436844 0.000000
0.958974 0.384099 0.000000
0.884512 0.369478 0.000000
0.985604 0.386170 0.000000
0.847388 0.346651 0.000000
0.632064 0.177633 0.000000
0.797123 0.147659 0.000000
0.897486 0.335828 0.000000
0.929820 0.331157 0.000000
0.821891 0.227506 0.000000
0.862924 0.228711 0.000000
0.875505 0.190229 0.000000
0.883420 0.149710 0.000000
0.250000 -0.075000 0.000000
0.250000 -0.050000 0.000000
0.250000 -0.025000 0.000000
0.250000 0.000000 0.000000
0.963402 1.039146 0.000000
0.814536 0.962024 0.000000
0.811204 0.452930 0.000000
0.883944 0.493624 0.000000
0.691410 1.080626 0.000000
0.914163 0.578431 0.000000
0.709635 0.916335 0.000000
0.789366 0.763174 0.000000
0.652065 0.356570 0.000000
0.940831 0.404648 0.000000
0.763224 0.183287 0.000000
0.822183 0.333455 0.000000
0.880229 0.386531 0.000000
0.649606 0.062071 0.000000
0.835656 0.289767 0.000000
0.855740 0.092109 0.000000
0.712144 0.296303 0.000000
0.970145 0.230931 0.000000
0.829282 0.249131 0.000000
0.984567 0.262704 0.000000
0.275000 -0.075000 0.000000
0.275000 -0.050000 0.000000
0.275000 -0.025000 0.000000
0.275000 0.000000 0.000000
0.300000 -0.075000 0.000000
0.300000 -0.050000 0.000000
0.300000 -0.025000 0.000000
0.300000 0.000000 0.000000
0.325000 -0.075000 0.000000
0.325000 -0.050000 0.000000
0.325000 -0.025000 0.000000
0.325000 0.000000 0.000000
0.350000 -0.075000 0.000000
0.350000 -0.050000 0.000000
0.350000 -0.025000 0.000000
0.350000 0.000000 0.000000
0.375000 -0.075000 0.000000
0.375000 -0.050000 0.000000
0.375000 -0.025000 0.000000
0.375000 0.000000 0.000000
0.400000 -0.075000 0.000000
0.400000 -0.050000 0.000000
0.400000 -0.025000 0.000000
0.400000 0.000000 0.000000
0.425000 -0.075000 0.000000
0.425000 -0.050000 0.000000
0.425000 -0.025000 0.000000
0.425000 0.000000 0.000000
0.450000 -0.075000 0.000000
0.450000 -0.050000 0.000000
0.450000 -0.025000 0.000000
0.450000 0.000000 0.000000
0.475000 -0.075000 0.000000
0.475000 -0.050000 0.000000
0.475000 -0.025000 0.000000
0.475000 0.000000 0.000000
0.500000 -0.075000 0.000000
0.500000 -0.050000 0.000000
0.500000 -0.025000 0.000000
0.500000 0.000000 0.000000
0.525000 -0.075000 0.000000
0.525000 -0.050000 0.000000
0.525000 -0.025000 0.000000
0.525000 0.000000 0.000000
0.550000 -0.075000 0.000000
0.550000 -0.050000 0.000000
0.550000 -0.025000 0.000000
0.550000 0.000000 0.000000
0.575000 -0.075000 0.000000
0.575000 -0.050000 0.000000
0.575000 -0.025000 0.000000
0.575000 0.000000 0.000000
0.600000 -0.075000 0.000000
0.600000 -0.050000 0.000000
0.600000 -0.025000 0.000000
0.600000 0.000000 0.000000
0.625000 -0.075000 0.000000
0.625000 -0.050000 0.000000
0.625000 -0.025000 0.000000
0.625000 0.000000 0.000000
0.650000 -0.075000 0.000000
0.650000 -0.050000 0.000000
0.650000 -0.025000 0.000000
0.650000 0.000000 0.000000
0.675000 -0.075000 0.000000
0.675000 -0.050000 0.000000
0.675000 -0.025000 0.000000
0.675000 0.000000 0.000000
0.700000 -0.075000 0.000000
0.700000 -0.050000 0.000000
0.700000 -0.025000 0.000000
0.700000 0.000000 0.000000
0.725000 -0.075000 0.000000
0.725000 -0.050000 0.000000
0.725000 -0.025000 0.000000
0.725000 0.000000 0.000000
0.750000 -0.075000 0.000000
0.750000 -0.050000 0.000000
0.750000 -0.025000 0.000000
0.750000 0.000000 0.000000
0.775000 -0.075000 0.000000
0.775000 -0.050000 0.000000
0.775000 -0.025000 0.000000
0.775000 0.000000 0.000000
0.800000 -0.075000 0.000000
0.800000 -0.050000 0.000000
0.800000 -0.025000 0.000000
0.800000 0.000000 0.000000
0.825000 -0.075000 0.000000
0.825000 -0.050000 0.000000
0.825000 -0.025000 0.000000
0.825000 0.000000 0.000000
0.850000 -0.075000 0.000000
0.850000 -0.050000 0.000000
0.850000 -0.025000 0.000000
0.850000 0.000000 0.000000
0.875000 -0.075000 0.000000
0.875000 -0.050000 0.000000
0.875000 -0.025000 0.000000
0.875000 0.000000 0.000000
0.900000 -0.075000 0.000000
0.900000 -0.050000 0.000000
0.900000 -0.025000 0.000000
0.900000 0.000000 0.000000
0.925000 -0.075000 0.000000
0.925000 -0.050000 0.000000
0.925000 -0.025000 0.000000
0.925000 0.000000 0.000000
0.950000 -0.075000 0.000000
0.950000 -0.050000 0.000000
0.950000 -0.025000 0.000000
0.950000 0.000000 0.000000
0.975000 -0.075000 0.000000
0.975000 -0.050000 0.000000
0.975000 -0.025000 0.000000
0.975000 0.000000 0.000000
1.000000 -0.075000 0.000000
1.000000 -0.050000 0.000000
1.000000 -0.025000 0.000000
1.000000 0.000000 0.000000
1.025000 -0.075000 0.000000
1.025000 -0.050000 0.000000
1.025000 -0.025000 0.000000
1.025000 0.000000 0.000000
1.025000 0.025000 0.000000
1.025000 0.050000 0.000000
1.025000 0.075000 0.000000
1.025000 0.100000 0.000000
1.025000 0.125000 0.000000
1.025000 0.150000 0.000000
1.025000 0.175000 0.000000
1.025000 0.200000 0.000000
1.025000 0.225000 0.000000
1.025000 0.250000 0.000000
1.025000 0.275000 0.000000
1.025000 0.300000 0.000000
1.025000 0.325000 0.000000
1.025000 0.350000 0.000000
1.025000 0.375000 0.000000
1.025000 0.400000 0.000000
1.025000 0.425000 0.000000
1.025000 0.450000 0.000000
1.025000 0.475000 0.000000
1.025000 0.500000 0.000000
1.025000 0.525000 0.000000
1.025000 0.550000 0.000000
1.025000 0.575000 0.000000
1.025000 0.600000 0.000000
1.050000 -0.075000 0.000000
1.050000 -0.050000 0.000000
1.050000 -0.025000 0.000000
1.050000 0.000000 0.000000
1.050000 0.025000 0.000000
1.050000 0.050000 0.000000
1.050000 0.075000 0.000000
1.050000 0.100000 0.000000
1.050000 0.125000 0.000000
1.050000 0.150000 0.000000
1.050000 0.175000 0.000000
1.050000 0.200000 0.000000
1.050000 0.225000 0.000000
1.050000 0.250000 0.000000
1.050000 0.275000 0.000000
1.050000 0.300000 0.000000
1.050000 0.325000 0.000000
1.050000 0.350000 0.000000
1.050000 0.375000 0.000000
1.050000 0.400000 0.000000
1.050000 0.425000 0.000000
1.050000 0.450000 0.000000
1.050000 0.475000 0.000000
1.050000 0.500000 0.000000
1.050000 0.525000 0.000000
1.050000 0.550000 0.000000
1.050000 0.575000 0.000000
1.050000 0.600000 0.000000
1.075000 -0.075000 0.000000
1.075000 -0.050000 0.000000
1.075000 -0.025000 0.000000
1.075000 0.000000 0.000000
1.075000 0.025000 0.000000
1.075000 0.050000 0.000000
1.075000 0.075000 0.000000
1.075000 0.100000 0.000000
1.075000 0.125000 0.000000
1.075000 0.150000 0.000000
1.075000 0.175000 0.000000
1.075000 0.200000 0.000000
1.075000 0.225000 0.000000
1.075000 0.250000 0.000000
1.075000 0.275000 0.000000
1.075000 0.300000 0.000000
1.075000 0.325000 0.000000
1.075000 0.350000 0.000000
1.075000 0.375000 0.000000
1.075000 0.400000 0.000000
1.075000 0.425000 0.000000
1.075000 0.450000 0.000000
1.075000 0.475000 0.000000
1.075000 0.500000 0.000000
1.075000 0.525000 0.000000
1.075000 0.550000 0.000000
1.075000 0.575000 0.000000
1.075000 0.600000 0.000000
1.100000 -0.075000 0.000000
1.100000 -0.050000 0.000000
1.100000 -0.025000 0.000000
1.100000 0.000000 0.000000
1.100000 0.025000 0.000000
1.100000 0.050000 0.000000
1.100000 0.075000 0.000000
1.100000 0.100000 0.000000
1.100000 0.125000 0.000000
1.100000 0.150000 0.000000
1.100000 0.175000 0.000000
1.100000 0.200000 0.000000
1.100000 0.225000 0.000000
1.100000 0.250000 0.000000
1.100000 0.275000 0.000000
1.100000 0.300000 0.000000
1.100000 0.325000 0.000000
1.100000 0.350000 0.000000
1.100000 0.375000 0.000000
1.100000 0.400000 0.000000
1.100000 0.425000 0.000000
1.100000 0.450000 0.000000
1.100000 0.475000 0.000000
1.100000 0.500000 0.000000
1.100000 0.525000 0.000000
1.100000 0.550000 0.000000
1.100000 0.575000 0.000000
1.100000 0.600000 0.000000
</DataArray>
</Points>
<PointData>
<DataArray NumberOfComponents='1' type='Int32' Name='ParticleType' format='ascii'>
3
3
3
3
3
3
3
3
3
3
3
3
3
3
3
3
3
3
3
3
3
3
3
3
3
3
2
2
3
3
3
3
3
3
3
3
3
3
3
3
3
3
3
3
3
3
3
3
3
3
3
3
3
3
2
2
3
3
2
2
2
2
2
2
2
2
2
2
2
2
2
2
2
2
2
2
2
2
2
2
2
2
2
2
3
3
2
2
2
2
2
2
2
2
2
2
2
2
2
2
2
2
2
2
2
2
2
2
2
2
2
2
3
3
2
2
0
0
0
0
0
0
0
0
0
0
0
0
0
0
0
0
0
0
0
0
3
3
2
2
0
0
0
0
0
0
0
0
0
0
0
0
0
0
0
0
0
0
0
0
3
3
2
2
0
0
0
0
0
0
0
0
0
0
0
0
0
0
0
0
0
0
0
0
3
3
2
2
0
0
0
0
0
0
0
0
0
0
0
0
0
0
0
0
0
0
0
0
3
3
2
2
0
0
0
0
0
0
0
0
0
0
0
0
0
0
0
0
0
0
0
0
3
3
2
2
0
0
0
0
0
0
0
0
0
0
0
0
0
0
0
0
0
0
0
0
3
3
2
2
0
0
0
0
0
0
0
0
0
0
0
0
0
0
0
0
0
0
0
0
3
3
2
2
0
0
0
0
0
0
0
0
0
0
0
0
0
0
0
0
0
0
0
0
3
3
2
2
0
0
0
0
0
0
0
0
0
0
0
0
0
0
0
0
0
0
0
0
3
3
2
2
0
0
0
0
0
0
0
0
0
0
0
0
0
0
0
0
0
0
0
0
3
3
2
2
3
3
2
2
3
3
2
2
3
3
2
2
3
3
2
2
3
3
2
2
3
3
2
2
3
3
2
2
3
3
2
2
3
3
2
2
3
3
2
2
3
3
2
2
3
3
2
2
3
3
2
2
3
3
2
2
3
3
2
2
3
3
2
2
3
3
2
2
3
3
2
2
3
3
2
2
3
3
2
2
3
3
2
2
3
3
2
2
3
3
2
2
3
3
2
2
3
3
2
2
3
3
2
2
3
3
2
2
3
3
2
2
3
3
2
2
3
3
2
2
2
2
2
2
2
2
2
2
2
2
2
2
2
2
2
2
2
2
2
2
2
2
2
2
3
3
2
2
2
2
2
2
2
2
2
2
2
2
2
2
2
2
2
2
2
2
2
2
2
2
2
2
3
3
3
3
3
3
3
3
3
3
3
3
3
3
3
3
3
3
3
3
3
3
3
3
3
3
2
2
3
3
3
3
3
3
3
3
3
3
3
3
3
3
3
3
3
3
3
3
3
3
3
3
3
3
2
2
</DataArray>
<DataArray NumberOfComponents='1' type='Float32' Name='Velocity' format='ascii'>
0.000000
0.000000
0.000000
0.000000
0.000000
0.000000
0.000000
0.000000
0.000000
0.000000
0.000000
0.000000
0.000000
0.000000
0.000000
0.000000
0.000000
0.000000
0.000000
0.000000
0.000000
0.000000
0.000000
0.000000
0.000000
0.000000
0.000000
0.000000
0.000000
0.000000
0.000000
0.000000
0.000000
0.000000
0.000000
0.000000
0.000000
0.000000
0.000000
0.000000
0.000000
0.000000
0.000000
0.000000
0.000000
0.000000
0.000000
0.000000
0.000000
0.000000
0.000000
0.000000
0.000000
0.000000
0.000000
0.000000
0.000000
0.000000
0.000000
0.000000
0.000000
0.000000
0.000000
0.000000
0.000000
0.000000
0.000000
0.000000
0.000000
0.000000
0.000000
0.000000
0.000000
0.000000
0.000000
0.000000
0.000000
0.000000
0.000000
0.000000
0.000000
0.000000
0.000000
0.000000
0.000000
0.000000
0.000000
0.000000
0.000000
0.000000
0.000000
0.000000
0.000000
0.000000
0.000000
0.000000
0.000000
0.000000
0.000000
0.000000
0.000000
0.000000
0.000000
0.000000
0.000000
0.000000
0.000000
0.000000
0.000000
0.000000
0.000000
0.000000
0.000000
0.000000
0.000000
0.000000
0.105324
0.186926
0.319997
0.287956
0.356697
0.113109
0.325355
0.102030
0.350944
0.449730
0.356746
0.175554
0.324506
0.188755
0.104932
0.090704
0.283501
0.126596
0.184467
0.399000
0.000000
0.000000
0.000000
0.000000
0.329107
0.981312
1.067971
0.809804
1.075147
0.957248
0.905972
1.378651
0.418371
0.335165
0.792816
0.688484
0.082193
0.520303
0.280403
0.369434
0.292110
0.647173
0.191831
0.121415
0.000000
0.000000
0.000000
0.000000
0.251977
0.809857
0.767841
0.551112
1.519490
0.891301
0.696249
0.993682
0.656138
0.890939
0.654889
1.268843
0.214057
0.173097
0.467338
0.500558
0.453578
0.769276
0.572566
0.143676
0.000000
0.000000
0.000000
0.000000
0.916234
0.677111
1.037167
0.434635
0.533551
0.789081
0.752021
0.812581
0.762496
0.759823
0.740901
1.083227
1.667648
0.847207
1.074553
0.964599
1.189259
1.397643
0.660837
0.689943
0.000000
0.000000
0.000000
0.000000
0.702608
0.848923
0.494309
0.133341
0.188956
0.852470
0.636095
0.530740
0.750380
0.841707
0.939783
0.654810
1.010547
1.161481
1.200684
0.852295
0.922197
0.394555
0.722480
1.082549
0.000000
0.000000
0.000000
0.000000
0.574702
0.071176
0.618665
0.990420
0.391755
0.913595
0.151796
0.416171
0.510370
0.324727
0.235560
0.276126
0.059128
0.085486
0.757242
0.831463
1.017386
0.668214
1.310803
0.904868
0.000000
0.000000
0.000000
0.000000
1.878189
0.082025
0.302803
0.231850
0.790957
0.723932
0.074986
0.501148
0.181220
0.118493
0.335971
0.205177
0.764374
0.105864
0.214343
0.251056
0.517718
0.210137
0.374967
0.692842
0.000000
0.000000
0.000000
0.000000
0.784367
0.789068
0.860660
0.629542
0.817230
0.979534
0.597255
0.641880
0.675603
1.160657
0.576732
0.149765
1.623807
0.642705
0.506992
0.470928
0.276554
0.563858
0.513257
0.382189
0.000000
0.000000
0.000000
0.000000
0.720871
0.336067
0.665113
1.815450
1.695415
1.609172
1.161650
0.641512
0.729032
1.095625
0.731416
1.234988
1.894318
1.845641
0.720793
0.860926
1.239079
0.756820
0.532733
0.604200
0.000000
0.000000
0.000000
0.000000
0.416888
0.535475
1.336101
1.138798
0.725524
1.052752
0.772336
0.924695
1.743623
1.200401
1.778604
1.403491
1.043282
1.176867
1.374920
0.329639
1.436540
0.419777
0.497607
0.293564
0.000000
0.000000
0.000000
0.000000
0.000000
0.000000
0.000000
0.000000
0.000000
0.000000
0.000000
0.000000
0.000000
0.000000
0.000000
0.000000
0.000000
0.000000
0.000000
0.000000
0.000000
0.000000
0.000000
0.000000
0.000000
0.000000
0.000000
0.000000
0.000000
0.000000
0.000000
0.000000
0.000000
0.000000
0.000000
0.000000
0.000000
0.000000
0.000000
0.000000
0.000000
0.000000
0.000000
0.000000
0.000000
0.000000
0.000000
0.000000
0.000000
0.000000
0.000000
0.000000
0.000000
0.000000
0.000000
0.000000
0.000000
0.000000
0.000000
0.000000
0.000000
0.000000
0.000000
0.000000
0.000000
0.000000
0.000000
0.000000
0.000000
0.000000
0.000000
0.000000
0.000000
0.000000
0.000000
0.000000
0.000000
0.000000
0.000000
0.000000
0.000000
0.000000
0.000000
0.000000
0.000000
0.000000
0.000000
0.000000
0.000000
0.000000
0.000000
0.000000
0.000000
0.000000
0.000000
0.000000
0.000000
0.000000
0.000000
0.000000
0.000000
0.000000
0.000000
0.000000
0.000000
0.000000
0.000000
0.000000
0.000000
0.000000
0.000000
0.000000
0.000000
0.000000
0.000000
0.000000
0.000000
0.000000
0.000000
0.000000
0.000000
0.000000
0.000000
0.000000
0.000000
0.000000
0.000000
0.000000
0.000000
0.000000
0.000000
0.000000
0.000000
0.000000
0.000000
0.000000
0.000000
0.000000
0.000000
0.000000
0.000000
0.000000
0.000000
0.000000
0.000000
0.000000
0.000000
0.000000
0.000000
0.000000
0.000000
0.000000
0.000000
0.000000
0.000000
0.000000
0.000000
0.000000
0.000000
0.000000
0.000000
0.000000
0.000000
0.000000
0.000000
0.000000
0.000000
0.000000
0.000000
0.000000
0.000000
0.000000
0.000000
0.000000
0.000000
0.000000
0.000000
0.000000
0.000000
0.000000
0.000000
0.000000
0.000000
0.000000
0.000000
0.000000
0.000000
0.000000
0.000000
0.000000
0.000000
0.000000
0.000000
0.000000
0.000000
0.000000
0.000000
0.000000
0.000000
0.000000
0.000000
0.000000
0.000000
0.000000
0.000000
0.000000
0.000000
0.000000
0.000000
0.000000
0.000000
0.000000
0.000000
0.000000
0.000000
0.000000
0.000000
0.000000
0.000000
0.000000
0.000000
0.000000
0.000000
0.000000
0.000000
0.000000
0.000000
0.000000
0.000000
0.000000
0.000000
0.000000
</DataArray>
<DataArray NumberOfComponents='1' type='Float32' Name='pressure' format='ascii'>
0.000000
0.000000
0.000000
0.000000
0.000000
0.000000
0.000000
0.000000
0.000000
0.000000
0.000000
0.000000
0.000000
0.000000
0.000000
0.000000
0.000000
0.000000
0.000000
0.000000
0.000000
0.000000
0.000000
0.000000
0.000000
0.000000
0.000000
0.000000
0.000000
0.000000
0.000000
0.000000
0.000000
0.000000
0.000000
0.000000
0.000000
0.000000
0.000000
0.000000
0.000000
0.000000
0.000000
0.000000
0.000000
0.000000
0.000000
0.000000
0.000000
0.000000
0.000000
0.000000
0.000000
0.000000
0.000000
0.000000
0.000000
0.000000
370.310730
280.672150
629.242615
499.902374
0.000000
0.000000
0.000000
0.000000
0.000000
0.000000
0.000000
0.000000
0.000000
0.000000
0.000000
0.000000
0.000000
0.000000
0.000000
0.000000
0.000000
0.000000
0.000000
0.000000
0.000000
0.000000
0.000000
0.000000
426.782288
172.209808
0.000000
0.000000
0.000000
0.000000
0.000000
0.000000
0.000000
0.000000
0.000000
0.000000
0.000000
0.000000
0.000000
0.000000
0.000000
0.000000
0.000000
0.000000
0.000000
0.000000
0.000000
0.000000
0.000000
0.000000
0.000000
0.000000
1008.105408
487.461334
0.000000
0.000000
476.747559
0.000000
0.000000
136.082169
1586.444214
0.000000
268.029694
861.778198
0.000000
0.000000
0.000000
717.624329
0.000000
0.000000
357.132324
0.000000
0.000000
238.568222
0.000000
0.000000
1017.924683
0.000000
0.000000
0.000000
1038.015259
0.000000
0.000000
0.000000
0.000000
0.000000
758.441956
0.000000
0.000000
0.000000
0.000000
1278.246338
0.000000
55.256229
0.000000
0.000000
0.000000
0.000000
0.000000
0.000000
751.226196
0.000000
203.420990
2340.861084
815.782104
784.840820
0.000000
0.000000
1693.129395
0.000000
0.000000
0.000000
0.000000
0.000000
0.000000
0.000000
0.000000
0.000000
0.000000
2596.060791
0.000000
0.000000
0.000000
0.000000
623.443481
704.581665
0.000000
2283.498047
1990.413086
1317.453003
539.769775
3014.527344
432.867126
0.000000
1531.855103
173.135529
0.000000
0.000000
0.000000
1216.635498
0.000000
1793.357178
0.000000
0.000000
0.000000
0.000000
0.000000
0.000000
1086.077148
1146.395142
2097.551514
1577.512573
146.612457
938.620911
809.190857
0.000000
0.000000
1198.776367
0.000000
0.000000
0.000000
0.000000
0.000000
0.000000
0.000000
963.025085
515.859131
0.000000
0.000000
205.916916
0.000000
0.000000
2055.340088
1606.549927
2613.859619
652.695251
0.000000
0.000000
0.000000
0.000000
213.666611
0.000000
0.000000
1023.880066
985.600830
1980.870361
2127.842285
734.419739
0.000000
0.000000
950.441589
0.000000
678.332031
653.746155
0.000000
0.000000
1783.316406
0.000000
0.000000
0.000000
0.000000
0.000000
968.240234
0.000000
1911.812378
0.000000
0.000000
2533.198486
0.000000
0.000000
0.000000
0.000000
765.275269
0.000000
0.000000
0.000000
0.000000
0.000000
0.000000
0.000000
472.589905
0.000000
0.000000
0.000000
0.000000
0.000000
0.000000
0.000000
0.000000
0.000000
0.000000
0.000000
0.000000
1048.141479
0.000000
0.000000
1202.390869
0.000000
0.000000
0.000000
517.581116
1149.496948
0.000000
0.000000
873.703247
0.000000
0.000000
0.000000
0.000000
0.000000
0.000000
0.000000
0.000000
0.000000
0.000000
0.000000
0.000000
0.000000
0.000000
0.000000
625.335205
0.000000
0.000000
0.000000
0.000000
0.000000
0.000000
0.000000
339.340881
304.293335
0.000000
0.000000
0.000000
0.000000
0.000000
0.000000
0.000000
0.000000
0.000000
0.000000
0.000000
0.000000
0.000000
0.000000
0.000000
0.000000
0.000000
0.000000
0.000000
0.000000
0.000000
0.000000
1604.510864
37.779037
0.000000
0.000000
2514.912598
406.438354
0.000000
0.000000
2617.569336
840.227966
0.000000
0.000000
0.000000
0.000000
0.000000
0.000000
121.778931
0.000000
0.000000
0.000000
1887.784912
2028.369995
0.000000
0.000000
3394.959229
2837.913574
0.000000
0.000000
1951.295044
0.000000
0.000000
0.000000
1791.613525
1254.302002
0.000000
0.000000
1593.622437
379.096191
0.000000
0.000000
0.000000
0.000000
0.000000
0.000000
0.000000
0.000000
0.000000
0.000000
205.019104
0.000000
0.000000
0.000000
0.000000
0.000000
0.000000
0.000000
1158.100586
484.627380
0.000000
0.000000
378.516144
0.000000
0.000000
0.000000
2386.162842
2584.310547
0.000000
0.000000
1883.322144
931.795593
0.000000
0.000000
1376.078369
0.000000
0.000000
0.000000
1951.845215
403.603516
0.000000
0.000000
786.300110
813.528564
0.000000
0.000000
652.788208
247.395309
0.000000
0.000000
32.114384
0.000000
0.000000
0.000000
0.000000
0.000000
0.000000
0.000000
1175.996704
1696.619751
0.000000
0.000000
127.212593
1505.193237
0.000000
0.000000
115.749840
867.153198
0.000000
0.000000
247.577194
1451.590210
0.000000
0.000000
1931.532837
1922.699341
0.000000
0.000000
1142.416992
0.000000
0.000000
0.000000
329.936066
0.000000
114.469879
917.455627
1094.305542
1359.977783
0.000000
0.000000
0.000000
0.000000
0.000000
0.000000
0.000000
0.000000
0.000000
0.000000
0.000000
0.000000
0.000000
0.000000
0.000000
0.000000
0.000000
0.000000
0.000000
0.000000
0.000000
0.000000
240.358841
457.008911
1720.228271
2360.094238
1867.927979
1455.621704
0.000000
466.924072
0.000000
1006.291321
490.748688
0.000000
0.000000
0.000000
0.000000
0.000000
0.000000
0.000000
0.000000
0.000000
0.000000
0.000000
0.000000
0.000000
0.000000
0.000000
0.000000
0.000000
0.000000
0.000000
0.000000
0.000000
0.000000
0.000000
0.000000
0.000000
0.000000
0.000000
0.000000
0.000000
0.000000
0.000000
0.000000
0.000000
0.000000
0.000000
0.000000
0.000000
0.000000
0.000000
0.000000
0.000000
0.000000
0.000000
0.000000
0.000000
0.000000
0.000000
0.000000
0.000000
0.000000
0.000000
0.000000
0.000000
0.000000
0.000000
0.000000
0.000000
0.000000
0.000000
0.000000
0.000000
0.000000
0.000000
0.000000
0.000000
0.000000
0.000000
0.000000
0.000000
0.000000
0.000000
</DataArray>
</PointData>
<Cells>
<DataArray type='Int32' Name='connectivity' format='ascii'>
0
1
2
3
4
5
6
7
8
9
10
11
12
13
14
15
16
17
18
19
20
21
22
23
24
25
26
27
28
29
30
31
32
33
34
35
36
37
38
39
40
41
42
43
44
45
46
47
48
49
50
51
52
53
54
55
56
57
58
59
60
61
62
63
64
65
66
67
68
69
70
71
72
73
74
75
76
77
78
79
80
81
82
83
84
85
86
87
88
89
90
91
92
93
94
95
96
97
98
99
100
101
102
103
104
105
106
107
108
109
110
111
112
113
114
115
116
117
118
119
120
121
122
123
124
125
126
127
128
129
130
131
132
133
134
135
136
137
138
139
140
141
142
143
144
145
146
147
148
149
150
151
152
153
154
155
156
157
158
159
160
161
162
163
164
165
166
167
168
169
170
171
172
173
174
175
176
177
178
179
180
181
182
183
184
185
186
187
188
189
190
191
192
193
194
195
196
197
198
199
200
201
202
203
204
205
206
207
208
209
210
211
212
213
214
215
216
217
218
219
220
221
222
223
224
225
226
227
228
229
230
231
232
233
234
235
236
237
238
239
240
241
242
243
244
245
246
247
248
249
250
251
252
253
254
255
256
257
258
259
260
261
262
263
264
265
266
267
268
269
270
271
272
273
274
275
276
277
278
279
280
281
282
283
284
285
286
287
288
289
290
291
292
293
294
295
296
297
298
299
300
301
302
303
304
305
306
307
308
309
310
311
312
313
314
315
316
317
318
319
320
321
322
323
324
325
326
327
328
329
330
331
332
333
334
335
336
337
338
339
340
341
342
343
344
345
346
347
348
349
350
351
352
353
354