<?xml version='1.0' encoding='UTF-8'?>
<VTKFile xmlns='VTK' byte_order='LittleEndian' version='0.1' type='UnstructuredGrid'>
<UnstructuredGrid>
<Piece NumberOfCells='584' NumberOfPoints='584'>
<Points>
<DataArray NumberOfComponents='3' type='Float32' Name='Position' format='ascii'>
-0.075000 -0.075000 0.000000
-0.075000 -0.050000 0.000000
-0.075000 -0.025000 0.000000
-0.075000 0.000000 0.000000
-0.075000 0.025000 0.000000
-0.075000 0.050000 0.000000
-0.075000 0.075000 0.000000
-0.075000 0.100000 0.000000
-0.075000 0.125000 0.000000
-0.075000 0.150000 0.000000
-0.075000 0.175000 0.000000
-0.075000 0.200000 0.000000
-0.075000 0.225000 0.000000
-0.075000 0.250000 0.000000
-0.075000 0.275000 0.000000
-0.075000 0.300000 0.000000
-0.075000 0.325000 0.000000
-0.075000 0.350000 0.000000
-0.075000 0.375000 0.000000
-0.075000 0.400000 0.000000
-0.075000 0.425000 0.000000
-0.075000 0.450000 0.000000
-0.075000 0.475000 0.000000
-0.075000 0.500000 0.000000
-0.075000 0.525000 0.000000
-0.075000 0.550000 0.000000
-0.075000 0.575000 0.000000
-0.075000 0.600000 0.000000
-0.050000 -0.075000 0.000000
-0.050000 -0.050000 0.000000
-0.050000 -0.025000 0.000000
-0.050000 0.000000 0.000000
-0.050000 0.025000 0.000000
-0.050000 0.050000 0.000000
-0.050000 0.075000 0.000000
-0.050000 0.100000 0.000000
-0.050000 0.125000 0.000000
-0.050000 0.150000 0.000000
-0.050000 0.175000 0.000000
-0.050000 0.200000 0.000000
-0.050000 0.225000 0.000000
-0.050000 0.250000 0.000000
-0.050000 0.275000 0.000000
-0.050000 0.300000 0.000000
-0.050000 0.325000 0.000000
-0.050000 0.350000 0.000000
-0.050000 0.375000 0.000000
-0.050000 0.400000 0.000000
-0.050000 0.425000 0.000000
-0.050000 0.450000 0.000000
-0.050000 0.475000 0.000000
-0.050000 0.500000 0.000000
-0.050000 0.525000 0.000000
-0.050000 0.550000 0.000000
-0.050000 0.575000 0.000000
-0.050000 0.600000 0.000000
-0.025000 -0.075000 0.000000
-0.025000 -0.050000 0.000000
-0.025000 -0.025000 0.000000
-0.025000 0.000000 0.000000
-0.025000 0.025000 0.000000
-0.025000 0.050000 0.000000
-0.025000 0.075000 0.000000
-0.025000 0.100000 0.000000
-0.025000 0.125000 0.000000
-0.025000 0.150000 0.000000
-0.025000 0.175000 0.000000
-0.025000 0.200000 0.000000
-0.025000 0.225000 0.000000
-0.025000 0.250000 0.000000
-0.025000 0.275000 0.000000
-0.025000 0.300000 0.000000
-0.025000 0.325000 0.000000
-0.025000 0.350000 0.000000
-0.025000 0.375000 0.000000
-0.025000 0.400000 0.000000
-0.025000 0.425000 0.000000
-0.025000 0.450000 0.000000
-0.025000 0.475000 0.000000
-0.025000 0.500000 0.000000
-0.025000 0.525000 0.000000
-0.025000 0.550000 0.000000
-0.025000 0.575000 0.000000
-0.025000 0.600000 0.000000
0.000000 -0.075000 0.000000
0.000000 -0.050000 0.000000
0.000000 -0.025000 0.000000
0.000000 0.000000 0.000000
0.000000 0.025000 0.000000
0.000000 0.050000 0.000000
0.000000 0.075000 0.000000
0.000000 0.100000 0.000000
0.000000 0.125000 0.000000
0.000000 0.150000 0.000000
0.000000 0.175000 0.000000
0.000000 0.200000 0.000000
0.000000 0.225000 0.000000
0.000000 0.250000 0.000000
0.000000 0.275000 0.000000
0.000000 0.300000 0.000000
0.000000 0.325000 0.000000
0.000000 0.350000 0.000000
0.000000 0.375000 0.000000
0.000000 0.400000 0.000000
0.000000 0.425000 0.000000
0.000000 0.450000 0.000000
0.000000 0.475000 0.000000
0.000000 0.500000 0.000000
0.000000 0.525000 0.000000
0.000000 0.550000 0.000000
0.000000 0.575000 0.000000
0.000000 0.600000 0.000000
0.025000 -0.075000 0.000000
0.025000 -0.050000 0.000000
0.025000 -0.025000 0.000000
0.025000 0.000000 0.000000
0.122308 0.054227 0.000000
0.190892 0.114823 0.000000
0.134288 0.019615 0.000000
0.175443 0.024048 0.000000
0.236324 0.038805 0.000000
0.099038 0.106827 0.000000
0.299411 0.022094 0.000000
0.197172 0.027136 0.000000
0.171088 0.049458 0.000000
0.031309 0.253686 0.000000
0.218214 0.025053 0.000000
0.053029 0.181111 0.000000
0.108287 0.032428 0.000000
0.069715 0.052981 0.000000
0.112254 0.125151 0.000000
0.048281 0.033378 0.000000
0.038844 0.201656 0.000000
0.090642 0.032139 0.000000
0.076489 0.187565 0.000000
0.089700 0.061810 0.000000
0.050000 -0.075000 0.000000
0.050000 -0.050000 0.000000
0.050000 -0.025000 0.000000
0.050000 0.000000 0.000000
0.135560 0.199836 0.000000
0.075674 0.144639 0.000000
0.069939 0.212715 0.000000
0.024832 0.024009 0.000000
0.029057 0.156624 0.000000
0.438004 0.058463 0.000000
0.167057 0.104612 0.000000
0.588979 0.059369 0.000000
0.139086 0.156054 0.000000
0.230261 0.166173 0.000000
0.075919 0.102901 0.000000
0.229681 0.088301 0.000000
0.033424 0.270768 0.000000
0.137424 0.181814 0.000000
0.064601 0.076419 0.000000
0.022034 0.071303 0.000000
0.179536 0.080546 0.000000
0.204008 0.080626 0.000000
0.065324 0.316329 0.000000
0.044666 0.072293 0.000000
0.075000 -0.075000 0.000000
0.075000 -0.050000 0.000000
0.075000 -0.025000 0.000000
0.075000 0.000000 0.000000
0.115078 0.156800 0.000000
0.156803 0.085700 0.000000
0.385403 0.041947 0.000000
0.324424 0.025286 0.000000
0.471494 0.114597 0.000000
0.671127 0.024726 0.000000
0.691861 0.044088 0.000000
0.036276 0.143041 0.000000
0.418423 0.112045 0.000000
0.659892 0.040717 0.000000
0.440571 0.022400 0.000000
0.091764 0.149476 0.000000
0.194639 0.058971 0.000000
0.207961 0.113366 0.000000
0.240033 0.067442 0.000000
0.053153 0.110202 0.000000
0.144617 0.109834 0.000000
0.029779 0.047170 0.000000
0.151663 0.059243 0.000000
0.125677 0.073328 0.000000
0.100000 -0.075000 0.000000
0.100000 -0.050000 0.000000
0.100000 -0.025000 0.000000
0.100000 0.000000 0.000000
0.487612 0.026262 0.000000
0.369259 0.138283 0.000000
0.491577 0.056884 0.000000
0.819036 0.024686 0.000000
0.217680 0.060733 0.000000
0.751371 0.025119 0.000000
0.656497 0.090598 0.000000
0.259151 0.051223 0.000000
0.704426 0.022762 0.000000
0.718290 0.047104 0.000000
0.459847 0.032176 0.000000
0.335464 0.118127 0.000000
0.553059 0.038917 0.000000
0.613883 0.027201 0.000000
0.114205 0.193052 0.000000
0.253527 0.020958 0.000000
0.533145 0.021674 0.000000
0.270074 0.073621 0.000000
0.360851 0.076488 0.000000
0.232704 0.116995 0.000000
0.125000 -0.075000 0.000000
0.125000 -0.050000 0.000000
0.125000 -0.025000 0.000000
0.125000 0.000000 0.000000
0.735473 0.081506 0.000000
0.722772 0.163018 0.000000
0.992020 0.074340 0.000000
0.836071 0.032558 0.000000
0.589103 0.075177 0.000000
0.589310 0.026515 0.000000
0.224517 0.137678 0.000000
0.519432 0.067414 0.000000
0.787324 0.088010 0.000000
0.764874 0.062343 0.000000
0.882777 0.047960 0.000000
0.548952 0.058367 0.000000
0.504966 0.027448 0.000000
0.501626 0.086128 0.000000
0.409332 0.023777 0.000000
0.492310 0.103192 0.000000
0.331711 0.139941 0.000000
0.120874 0.094941 0.000000
0.478294 0.072400 0.000000
0.018987 0.188098 0.000000
0.150000 -0.075000 0.000000
0.150000 -0.050000 0.000000
0.150000 -0.025000 0.000000
0.150000 0.000000 0.000000
0.248171 0.108398 0.000000
0.960899 0.027849 0.000000
0.773738 0.099622 0.000000
0.290803 0.050215 0.000000
0.886318 0.022595 0.000000
0.147905 0.036398 0.000000
0.920056 0.042766 0.000000
0.438932 0.078070 0.000000
0.953560 0.054039 0.000000
0.625744 0.126265 0.000000
0.881663 0.089269 0.000000
0.730940 0.026970 0.000000
0.846482 0.061261 0.000000
0.828271 0.086456 0.000000
0.791147 0.021369 0.000000
0.632733 0.055943 0.000000
0.637561 0.021019 0.000000
0.673837 0.056398 0.000000
0.692377 0.076925 0.000000
0.280527 0.112670 0.000000
0.175000 -0.075000 0.000000
0.175000 -0.050000 0.000000
0.175000 -0.025000 0.000000
0.175000 0.000000 0.000000
0.058679 0.164279 0.000000
0.656434 0.103224 0.000000
0.908605 0.077654 0.000000
0.850877 0.081711 0.000000
0.983562 0.027659 0.000000
0.126163 0.262940 0.000000
0.855283 0.025572 0.000000
0.335687 0.051166 0.000000
0.377166 0.024138 0.000000
0.908376 0.025707 0.000000
0.571592 0.089605 0.000000
0.765761 0.082033 0.000000
0.443825 0.109300 0.000000
0.940703 0.024563 0.000000
0.990581 0.061619 0.000000
0.419497 0.039909 0.000000
1.001369 0.025716 0.000000
0.497513 0.125491 0.000000
0.193202 0.145776 0.000000
0.439489 0.130537 0.000000
0.200000 -0.075000 0.000000
0.200000 -0.050000 0.000000
0.200000 -0.025000 0.000000
0.200000 0.000000 0.000000
0.381352 0.087729 0.000000
0.098081 0.082524 0.000000
0.309710 0.086233 0.000000
0.808083 0.055130 0.000000
0.357523 0.047002 0.000000
0.317393 0.127636 0.000000
0.614576 0.048929 0.000000
0.953403 0.071319 0.000000
0.424238 0.128694 0.000000
0.026377 0.224672 0.000000
0.813551 0.076048 0.000000
0.714811 0.079613 0.000000
0.067187 0.022115 0.000000
0.463848 0.051979 0.000000
0.624332 0.087316 0.000000
0.066631 0.237369 0.000000
0.734977 0.060846 0.000000
0.388838 0.140882 0.000000
0.898539 0.066971 0.000000
0.726838 0.110746 0.000000
0.225000 -0.075000 0.000000
0.225000 -0.050000 0.000000
0.225000 -0.025000 0.000000
0.225000 0.000000 0.000000
0.291171 0.083469 0.000000
0.863454 0.052020 0.000000
0.593419 0.099581 0.000000
0.178524 0.144347 0.000000
0.048936 0.224017 0.000000
0.084358 0.271799 0.000000
0.458994 0.088786 0.000000
0.934809 0.062852 0.000000
0.639048 0.073908 0.000000
0.104874 0.181594 0.000000
0.695067 0.092504 0.000000
0.061049 0.388221 0.000000
0.346905 0.026622 0.000000
0.414033 0.076404 0.000000
0.063368 0.125639 0.000000
0.265668 0.183748 0.000000
0.526267 0.046429 0.000000
0.033450 0.097769 0.000000
0.263813 0.096985 0.000000
0.310652 0.057139 0.000000
0.250000 -0.075000 0.000000
0.250000 -0.050000 0.000000
0.250000 -0.025000 0.000000
0.250000 0.000000 0.000000
0.771889 0.035468 0.000000
0.381196 0.128119 0.000000
0.292283 0.134526 0.000000
0.333304 0.100697 0.000000
0.277094 0.033774 0.000000
0.403076 0.090967 0.000000
0.157255 0.139310 0.000000
0.270200 0.155793 0.000000
0.284192 0.145662 0.000000
0.529425 0.085507 0.000000
0.248954 0.158186 0.000000
0.037203 0.299900 0.000000
0.136508 0.130678 0.000000
0.570788 0.026630 0.000000
0.391376 0.061928 0.000000
0.329947 0.076895 0.000000
0.363425 0.094423 0.000000
0.787663 0.051016 0.000000
0.020164 0.115524 0.000000
0.556371 0.087973 0.000000
0.275000 -0.075000 0.000000
0.275000 -0.050000 0.000000
0.275000 -0.025000 0.000000
0.275000 0.000000 0.000000
0.300000 -0.075000 0.000000
0.300000 -0.050000 0.000000
0.300000 -0.025000 0.000000
0.300000 0.000000 0.000000
0.325000 -0.075000 0.000000
0.325000 -0.050000 0.000000
0.325000 -0.025000 0.000000
0.325000 0.000000 0.000000
0.350000 -0.075000 0.000000
0.350000 -0.050000 0.000000
0.350000 -0.025000 0.000000
0.350000 0.000000 0.000000
0.375000 -0.075000 0.000000
0.375000 -0.050000 0.000000
0.375000 -0.025000 0.000000
0.375000 0.000000 0.000000
0.400000 -0.075000 0.000000
0.400000 -0.050000 0.000000
0.400000 -0.025000 0.000000
0.400000 0.000000 0.000000
0.425000 -0.075000 0.000000
0.425000 -0.050000 0.000000
0.425000 -0.025000 0.000000
0.425000 0.000000 0.000000
0.450000 -0.075000 0.000000
0.450000 -0.050000 0.000000
0.450000 -0.025000 0.000000
0.450000 0.000000 0.000000
0.475000 -0.075000 0.000000
0.475000 -0.050000 0.000000
0.475000 -0.025000 0.000000
0.475000 0.000000 0.000000
0.500000 -0.075000 0.000000
0.500000 -0.050000 0.000000
0.500000 -0.025000 0.000000
0.500000 0.000000 0.000000
0.525000 -0.075000 0.000000
0.525000 -0.050000 0.000000
0.525000 -0.025000 0.000000
0.525000 0.000000 0.000000
0.550000 -0.075000 0.000000
0.550000 -0.050000 0.000000
0.550000 -0.025000 0.000000
0.550000 0.000000 0.000000
0.575000 -0.075000 0.000000
0.575000 -0.050000 0.000000
0.575000 -0.025000 0.000000
0.575000 0.000000 0.000000
0.600000 -0.075000 0.000000
0.600000 -0.050000 0.000000
0.600000 -0.025000 0.000000
0.600000 0.000000 0.000000
0.625000 -0.075000 0.000000
0.625000 -0.050000 0.000000
0.625000 -0.025000 0.000000
0.625000 0.000000 0.000000
0.650000 -0.075000 0.000000
0.650000 -0.050000 0.000000
0.650000 -0.025000 0.000000
0.650000 0.000000 0.000000
0.675000 -0.075000 0.000000
0.675000 -0.050000 0.000000
0.675000 -0.025000 0.000000
0.675000 0.000000 0.000000
0.700000 -0.075000 0.000000
0.700000 -0.050000 0.000000
0.700000 -0.025000 0.000000
0.700000 0.000000 0.000000
0.725000 -0.075000 0.000000
0.725000 -0.050000 0.000000
0.725000 -0.025000 0.000000
0.725000 0.000000 0.000000
0.750000 -0.075000 0.000000
0.750000 -0.050000 0.000000
0.750000 -0.025000 0.000000
0.750000 0.000000 0.000000
0.775000 -0.075000 0.000000
0.775000 -0.050000 0.000000
0.775000 -0.025000 0.000000
0.775000 0.000000 0.000000
0.800000 -0.075000 0.000000
0.800000 -0.050000 0.000000
0.800000 -0.025000 0.000000
0.800000 0.000000 0.000000
0.825000 -0.075000 0.000000
0.825000 -0.050000 0.000000
0.825000 -0.025000 0.000000
0.825000 0.000000 0.000000
0.850000 -0.075000 0.000000
0.850000 -0.050000 0.000000
0.850000 -0.025000 0.000000
0.850000 0.000000 0.000000
0.875000 -0.075000 0.000000
0.875000 -0.050000 0.000000
0.875000 -0.025000 0.000000
0.875000 0.000000 0.000000
0.900000 -0.075000 0.000000
0.900000 -0.050000 0.000000
0.900000 -0.025000 0.000000
0.900000 0.000000 0.000000
0.925000 -0.075000 0.000000
0.925000 -0.050000 0.000000
0.925000 -0.025000 0.000000
0.925000 0.000000 0.000000
0.950000 -0.075000 0.000000
0.950000 -0.050000 0.000000
0.950000 -0.025000 0.000000
0.950000 0.000000 0.000000
0.975000 -0.075000 0.000000
0.975000 -0.050000 0.000000
0.975000 -0.025000 0.000000
0.975000 0.000000 0.000000
1.000000 -0.075000 0.000000
1.000000 -0.050000 0.000000
1.000000 -0.025000 0.000000
1.000000 0.000000 0.000000
1.025000 -0.075000 0.000000
1.025000 -0.050000 0.000000
1.025000 -0.025000 0.000000
1.025000 0.000000 0.000000
1.025000 0.025000 0.000000
1.025000 0.050000 0.000000
1.025000 0.075000 0.000000
1.025000 0.100000 0.000000
1.025000 0.125000 0.000000
1.025000 0.150000 0.000000
1.025000 0.175000 0.000000
1.025000 0.200000 0.000000
1.025000 0.225000 0.000000
1.025000 0.250000 0.000000
1.025000 0.275000 0.000000
1.025000 0.300000 0.000000
1.025000 0.325000 0.000000
1.025000 0.350000 0.000000
1.025000 0.375000 0.000000
1.025000 0.400000 0.000000
1.025000 0.425000 0.000000
1.025000 0.450000 0.000000
1.025000 0.475000 0.000000
1.025000 0.500000 0.000000
1.025000 0.525000 0.000000
1.025000 0.550000 0.000000
1.025000 0.575000 0.000000
1.025000 0.600000 0.000000
1.050000 -0.075000 0.000000
1.050000 -0.050000 0.000000
1.050000 -0.025000 0.000000
1.050000 0.000000 0.000000
1.050000 0.025000 0.000000
1.050000 0.050000 0.000000
1.050000 0.075000 0.000000
1.050000 0.100000 0.000000
1.050000 0.125000 0.000000
1.050000 0.150000 0.000000
1.050000 0.175000 0.000000
1.050000 0.200000 0.000000
1.050000 0.225000 0.000000
1.050000 0.250000 0.000000
1.050000 0.275000 0.000000
1.050000 0.300000 0.000000
1.050000 0.325000 0.000000
1.050000 0.350000 0.000000
1.050000 0.375000 0.000000
1.050000 0.400000 0.000000
1.050000 0.425000 0.000000
1.050000 0.450000 0.000000
1.050000 0.475000 0.000000
1.050000 0.500000 0.000000
1.050000 0.525000 0.000000
1.050000 0.550000 0.000000
1.050000 0.575000 0.000000
1.050000 0.600000 0.000000
1.075000 -0.075000 0.000000
1.075000 -0.050000 0.000000
1.075000 -0.025000 0.000000
1.075000 0.000000 0.000000
1.075000 0.025000 0.000000
1.075000 0.050000 0.000000
1.075000 0.075000 0.000000
1.075000 0.100000 0.000000
1.075000 0.125000 0.000000
1.075000 0.150000 0.000000
1.075000 0.175000 0.000000
1.075000 0.200000 0.000000
1.075000 0.225000 0.000000
1.075000 0.250000 0.000000
1.075000 0.275000 0.000000
1.075000 0.300000 0.000000
1.075000 0.325000 0.000000
1.075000 0.350000 0.000000
1.075000 0.375000 0.000000
1.075000 0.400000 0.000000
1.075000 0.425000 0.000000
1.075000 0.450000 0.000000
1.075000 0.475000 0.000000
1.075000 0.500000 0.000000
1.075000 0.525000 0.000000
1.075000 0.550000 0.000000
1.075000 0.575000 0.000000
1.075000 0.600000 0.000000
1.100000 -0.075000 0.000000
1.100000 -0.050000 0.000000
1.100000 -0.025000 0.000000
1.100000 0.000000 0.000000
1.100000 0.025000 0.000000
1.100000 0.050000 0.000000
1.100000 0.075000 0.000000
1.100000 0.100000 0.000000
1.100000 0.125000 0.000000
1.100000 0.150000 0.000000
1.100000 0.175000 0.000000
1.100000 0.200000 0.000000
1.100000 0.225000 0.000000
1.100000 0.250000 0.000000
1.100000 0.275000 0.000000
1.100000 0.300000 0.000000
1.100000 0.325000 0.000000
1.100000 0.350000 0.000000
1.100000 0.375000 0.000000
1.100000 0.400000 0.000000
1.100000 0.425000 0.000000
1.100000 0.450000 0.000000
1.100000 0.475000 0.000000
1.100000 0.500000 0.000000
1.100000 0.525000 0.000000
1.100000 0.550000 0.000000
1.100000 0.575000 0.000000
1.100000 0.600000 0.000000
</DataArray>
</Points>
<PointData>
<DataArray NumberOfComponents='1' type='Int32' Name='ParticleType' format='ascii'>
3
3
3
3
3
3
3
3
3
3
3
3
3
3
3
3
3
3
3
3
3
3
3
3
3
3
2
2
3
3
3
3
3
3
3
3
3
3
3
3
3
3
3
3
3
3
3
3
3
3
3
3
3
3
2
2
3
3
2
2
2
2
2
2
2
2
2
2
2
2
2
2
2
2
2
2
2
2
2
2
2
2
2
2
3
3
2
2
2
2
2
2
2
2
2
2
2
2
2
2
2
2
2
2
2
2
2
2
2
2
2
2
3
3
2
2
0
0
0
0
0
0
0
0
0
0
0
0
0
0
0
0
0
0
0
0
3
3
2
2
0
0
0
0
0
0
0
0
0
0
0
0
0
0
0
0
0
0
0
0
3
3
2
2
0
0
0
0
0
0
0
0
0
0
0
0
0
0
0
0
0
0
0
0
3
3
2
2
0
0
0
0
0
0
0
0
0
0
0
0
0
0
0
0
0
0
0
0
3
3
2
2
0
0
0
0
0
0
0
0
0
0
0
0
0
0
0
0
0
0
0
0
3
3
2
2
0
0
0
0
0
0
0
0
0
0
0
0
0
0
0
0
0
0
0
0
3
3
2
2
0
0
0
0
0
0
0
0
0
0
0
0
0
0
0
0
0
0
0
0
3
3
2
2
0
0
0
0
0
0
0
0
0
0
0
0
0
0
0
0
0
0
0
0
3
3
2
2
0
0
0
0
0
0
0
0
0
0
0
0
0
0
0
0
0
0
0
0
3
3
2
2
0
0
0
0
0
0
0
0
0
0
0
0
0
0
0
0
0
0
0
0
3
3
2
2
3
3
2
2
3
3
2
2
3
3
2
2
3
3
2
2
3
3
2
2
3
3
2
2
3
3
2
2
3
3
2
2
3
3
2
2
3
3
2
2
3
3
2
2
3
3
2
2
3
3
2
2
3
3
2
2
3
3
2
2
3
3
2
2
3
3
2
2
3
3
2
2
3
3
2
2
3
3
2
2
3
3
2
2
3
3
2
2
3
3
2
2
3
3
2
2
3
3
2
2
3
3
2
2
3
3
2
2
3
3
2
2
3
3
2
2
3
3
2
2
2
2
2
2
2
2
2
2
2
2
2
2
2
2
2
2
2
2
2
2
2
2
2
2
3
3
2
2
2
2
2
2
2
2
2
2
2
2
2
2
2
2
2
2
2
2
2
2
2
2
2
2
3
3
3
3
3
3
3
3
3
3
3
3
3
3
3
3
3
3
3
3
3
3
3
3
3
3
2
2
3
3
3
3
3
3
3
3
3
3
3
3
3
3
3
3
3
3
3
3
3
3
3
3
3
3
2
2
</DataArray>
<DataArray NumberOfComponents='1' type='Float32' Name='Velocity' format='ascii'>
0.000000
0.000000
0.000000
0.000000
0.000000
0.000000
0.000000
0.000000
0.000000
0.000000
0.000000
0.000000
0.000000
0.000000
0.000000
0.000000
0.000000
0.000000
0.000000
0.000000
0.000000
0.000000
0.000000
0.000000
0.000000
0.000000
0.000000
0.000000
0.000000
0.000000
0.000000
0.000000
0.000000
0.000000
0.000000
0.000000
0.000000
0.000000
0.000000
0.000000
0.000000
0.000000
0.000000
0.000000
0.000000
0.000000
0.000000
0.000000
0.000000
0.000000
0.000000
0.000000
0.000000
0.000000
0.000000
0.000000
0.000000
0.000000
0.000000
0.000000
0.000000
0.000000
0.000000
0.000000
0.000000
0.000000
0.000000
0.000000
0.000000
0.000000
0.000000
0.000000
0.000000
0.000000
0.000000
0.000000
0.000000
0.000000
0.000000
0.000000
0.000000
0.000000
0.000000
0.000000
0.000000
0.000000
0.000000
0.000000
0.000000
0.000000
0.000000
0.000000
0.000000
0.000000
0.000000
0.000000
0.000000
0.000000
0.000000
0.000000
0.000000
0.000000
0.000000
0.000000
0.000000
0.000000
0.000000
0.000000
0.000000
0.000000
0.000000
0.000000
0.000000
0.000000
0.000000
0.000000
0.199427
0.798426
0.025124
0.075231
0.427370
0.210755
0.235855
0.214520
0.401132
0.488237
0.382623
0.201589
0.175065
0.343754
0.477763
0.863636
0.107396
0.122007
0.616762
0.434981
0.000000
0.000000
0.000000
0.000000
0.516081
0.184470
1.726655
0.112211
0.157102
0.403859
0.498323
0.377939
0.459456
0.609124
0.415204
0.665995
0.761391
0.202980
0.254423
0.460334
0.358633
0.135070
0.335769
0.256836
0.000000
0.000000
0.000000
0.000000
0.570209
0.181213
0.302135
0.178733
0.906475
0.438621
0.263791
0.202785
0.944393
0.080538
0.231885
0.529918
0.046176
0.618281
0.504366
0.600535
0.454795
0.333456
0.162165
0.078501
0.000000
0.000000
0.000000
0.000000
0.329718
0.974375
0.250062
0.226232
0.325882
0.566315
0.751135
0.243788
0.270994
0.492925
0.528693
0.598705
0.582040
0.328374
0.587146
0.528443
0.091926
0.339999
0.455043
0.783701
0.000000
0.000000
0.000000
0.000000
0.523423
0.848924
0.147055
0.247658
0.735800
0.391187
1.235773
0.752423
0.189639
0.090389
0.505640
0.618331
0.391381
0.751319
0.194014
0.695011
0.906381
0.075752
0.568162
0.123226
0.000000
0.000000
0.000000
0.000000
0.724420
0.021632
0.301341
0.637182
0.063699
0.196794
0.278719
0.609145
0.359200
1.617626
0.677245
0.331289
0.229711
0.503998
0.425823
0.568206
0.117897
0.369159
0.311945
0.973491
0.000000
0.000000
0.000000
0.000000
0.171097
0.667736
0.638270
0.601063
0.214616
0.504375
0.136281
0.639776
0.403618
0.171463
0.832278
0.097302
1.203727
0.213111
0.300479
0.454085
0.106051
0.453697
0.542037
0.687507
0.000000
0.000000
0.000000
0.000000
0.526769
0.361882
0.582521
0.370367
0.462936
0.796014
0.316728
0.177672
0.640059
0.040336
1.045440
0.351794
0.369891
0.279473
0.858787
0.499963
0.454617
0.793458
0.571960
0.409373
0.000000
0.000000
0.000000
0.000000
0.418410
0.569672
0.494362
0.739506
0.757057
0.511836
0.572535
0.057446
0.359572
0.378725
0.448497
0.837353
0.350935
0.499808
0.292713
0.805684
0.454709
0.271664
0.781579
0.346025
0.000000
0.000000
0.000000
0.000000
0.424911
0.938362
0.840065
0.766785
0.249573
0.635627
0.144663
0.507895
0.734086
0.825657
0.996836
0.093326
0.114632
0.302057
0.650903
0.533702
0.641617
0.373852
0.258560
1.007923
0.000000
0.000000
0.000000
0.000000
0.000000
0.000000
0.000000
0.000000
0.000000
0.000000
0.000000
0.000000
0.000000
0.000000
0.000000
0.000000
0.000000
0.000000
0.000000
0.000000
0.000000
0.000000
0.000000
0.000000
0.000000
0.000000
0.000000
0.000000
0.000000
0.000000
0.000000
0.000000
0.000000
0.000000
0.000000
0.000000
0.000000
0.000000
0.000000
0.000000
0.000000
0.000000
0.000000
0.000000
0.000000
0.000000
0.000000
0.000000
0.000000
0.000000
0.000000
0.000000
0.000000
0.000000
0.000000
0.000000
0.000000
0.000000
0.000000
0.000000
0.000000
0.000000
0.000000
0.000000
0.000000
0.000000
0.000000
0.000000
0.000000
0.000000
0.000000
0.000000
0.000000
0.000000
0.000000
0.000000
0.000000
0.000000
0.000000
0.000000
0.000000
0.000000
0.000000
0.000000
0.000000
0.000000
0.000000
0.000000
0.000000
0.000000
0.000000
0.000000
0.000000
0.000000
0.000000
0.000000
0.000000
0.000000
0.000000
0.000000
0.000000
0.000000
0.000000
0.000000
0.000000
0.000000
0.000000
0.000000
0.000000
0.000000
0.000000
0.000000
0.000000
0.000000
0.000000
0.000000
0.000000
0.000000
0.000000
0.000000
0.000000
0.000000
0.000000
0.000000
0.000000
0.000000
0.000000
0.000000
0.000000
0.000000
0.000000
0.000000
0.000000
0.000000
0.000000
0.000000
0.000000
0.000000
0.000000
0.000000
0.000000
0.000000
0.000000
0.000000
0.000000
0.000000
0.000000
0.000000
0.000000
0.000000
0.000000
0.000000
0.000000
0.000000
0.000000
0.000000
0.000000
0.000000
0.000000
0.000000
0.000000
0.000000
0.000000
0.000000
0.000000
0.000000
0.000000
0.000000
0.000000
0.000000
0.000000
0.000000
0.000000
0.000000
0.000000
0.000000
0.000000
0.000000
0.000000
0.000000
0.000000
0.000000
0.000000
0.000000
0.000000
0.000000
0.000000
0.000000
0.000000
0.000000
0.000000
0.000000
0.000000
0.000000
0.000000
0.000000
0.000000
0.000000
0.000000
0.000000
0.000000
0.000000
0.000000
0.000000
0.000000
0.000000
0.000000
0.000000
0.000000
0.000000
0.000000
0.000000
0.000000
0.000000
0.000000
0.000000
0.000000
0.000000
0.000000
0.000000
0.000000
0.000000
0.000000
0.000000
0.000000
0.000000
0.000000
0.000000
0.000000
0.000000
0.000000
0.000000
</DataArray>
<DataArray NumberOfComponents='1' type='Float32' Name='pressure' format='ascii'>
0.000000
0.000000
0.000000
0.000000
0.000000
0.000000
0.000000
0.000000
0.000000
0.000000
0.000000
0.000000
0.000000
0.000000
0.000000
0.000000
0.000000
0.000000
0.000000
0.000000
0.000000
0.000000
0.000000
0.000000
0.000000
0.000000
0.000000
0.000000
0.000000
0.000000
0.000000
0.000000
0.000000
0.000000
0.000000
0.000000
0.000000
0.000000
0.000000
0.000000
0.000000
0.000000
0.000000
0.000000
0.000000
0.000000
0.000000
0.000000
0.000000
0.000000
0.000000
0.000000
0.000000
0.000000
0.000000
0.000000
0.000000
0.000000
2641.948975
2560.958740
2478.231689
1905.825684
3257.072510
2519.931152
2195.010498
0.000000
1454.496338
1598.132080
0.000000
0.000000
0.000000
0.000000
0.000000
0.000000
0.000000
0.000000
0.000000
0.000000
0.000000
0.000000
0.000000
0.000000
0.000000
0.000000
0.000000
0.000000
2599.933594
2957.708984
2326.363770
1158.233398
3762.803223
816.838684
0.000000
0.000000
0.000000
0.000000
0.000000
0.000000
0.000000
0.000000
0.000000
0.000000
0.000000
0.000000
0.000000
0.000000
0.000000
0.000000
0.000000
0.000000
0.000000
0.000000
0.000000
0.000000
2691.654297
2941.482910
0.000000
271.492096
3228.800293
987.985657
672.553955
260.144226
0.000000
889.010132
893.347351
0.000000
1297.745728
0.000000
395.166107
0.000000
0.000000
3235.106445
0.000000
1420.516602
0.000000
2055.463135
0.000000
0.000000
1891.121216
509.754944
0.000000
1962.042603
0.000000
2725.016846
0.000000
0.000000
0.000000
0.000000
0.000000
0.000000
0.000000
452.604553
0.000000
0.000000
1190.128418
2776.529541
552.067017
347.335388
0.000000
1706.301147
0.000000
0.000000
2372.412109
916.765320
0.000000
851.892761
0.000000
0.000000
0.000000
341.706909
337.447174
0.000000
126.218803
144.858215
585.388306
0.000000
1421.258667
939.399719
1009.774719
734.160645
0.000000
3030.996582
1780.490845
1138.265259
0.000000
0.000000
1046.094238
0.000000
3.382201
0.000000
0.000000
0.000000
1902.635132
601.992737
0.000000
184.711807
0.000000
21.083555
142.252838
35.041950
463.586945
1253.569946
0.000000
1061.567871
486.345642
563.525391
0.000000
214.431763
0.000000
0.000000
3782.967773
2818.474609
0.000000
0.000000
0.000000
733.812927
437.066467
494.419891
0.000000
1159.023193
0.000000
754.082520
66.689140
0.000000
301.879303
0.000000
200.929077
0.000000
0.000000
1729.611328
859.589050
0.000000
0.000000
0.000000
3228.895264
1043.352661
969.611633
296.147949
0.000000
1113.625977
775.762634
1620.257812
150.766663
489.567902
379.336365
0.000000
0.000000
1298.285278
410.252625
0.000000
1381.722412
1501.609741
0.000000
0.000000
77.628761
0.000000
0.000000
0.000000
2355.839600
1672.493652
0.000000
0.000000
0.000000
0.000000
0.000000
0.000000
222.118393
0.000000
0.000000
0.000000
0.000000
1452.539795
0.000000
482.626099
0.000000
0.000000
84.864952
0.000000
0.000000
0.000000
0.000000
0.000000
1266.270874
2039.903320
0.000000
910.202881
452.263397
0.000000
0.000000
0.000000
844.414429
0.000000
0.000000
0.000000
0.000000
239.578873
2541.666748
122.884155
0.000000
0.000000
18.855822
0.000000
0.000000
0.000000
0.000000
0.000000
1931.377441
2307.511719
0.000000
1079.839478
0.000000
0.000000
0.000000
0.000000
0.000000
0.000000
0.000000
0.000000
0.000000
0.000000
161.171097
0.000000
1117.235229
0.000000
311.999115
343.576691
481.205444
0.000000
0.000000
0.000000
3445.971191
3436.593506
588.086426
0.000000
0.000000
0.000000
2078.462646
0.000000
0.000000
0.000000
0.000000
0.000000
0.000000
0.000000
918.776794
1257.338135
0.000000
0.000000
0.000000
0.000000
0.000000
0.000000
0.000000
0.000000
1428.227417
0.000000
0.000000
0.000000
1896.974609
1690.711792
0.000000
0.000000
0.000000
267.464722
0.000000
0.000000
0.000000
0.000000
0.000000
0.000000
0.000000
0.000000
0.000000
0.000000
0.000000
0.000000
0.000000
0.000000
287.565338
470.771973
0.000000
0.000000
218.281235
0.000000
0.000000
0.000000
0.000000
0.000000
0.000000
0.000000
0.000000
0.000000
0.000000
0.000000
394.536072
394.106903
0.000000
0.000000
0.000000
0.000000
0.000000
0.000000
0.000000
0.000000
0.000000
0.000000
0.000000
554.313660
0.000000
0.000000
1690.434692
1346.288574
0.000000
0.000000
1949.882690
1535.642822
0.000000
0.000000
1080.912842
22.105778
0.000000
0.000000
1557.106079
857.721863
0.000000
0.000000
255.219330
1139.541260
0.000000
0.000000
766.954468
506.923950
0.000000
0.000000
1345.886475
0.000000
0.000000
0.000000
2228.195068
1926.429321
0.000000
0.000000
1107.094849
2141.000244
0.000000
0.000000
385.175537
0.000000
0.000000
0.000000
698.516724
0.000000
0.000000
0.000000
575.107361
901.839355
0.000000
0.000000
0.000000
0.000000
0.000000
0.000000
0.000000
0.000000
0.000000
0.000000
0.000000
569.086609
0.000000
0.000000
101.648857
1795.590210
0.000000
0.000000
504.652405
1246.987793
0.000000
0.000000
0.000000
0.000000
0.000000
0.000000
0.000000
0.000000
0.000000
0.000000
0.000000
0.000000
0.000000
0.000000
0.000000
0.000000
0.000000
0.000000
0.000000
0.000000
0.000000
0.000000
0.000000
0.000000
0.000000
0.000000
495.209747
342.949921
309.981720
0.000000
0.000000
0.000000
0.000000
0.000000
0.000000
0.000000
0.000000
0.000000
0.000000
0.000000
0.000000
0.000000
0.000000
0.000000
0.000000
0.000000
0.000000
0.000000
0.000000
0.000000
0.000000
0.000000
0.000000
0.000000
0.000000
0.000000
0.000000
0.000000
0.000000
0.000000
0.000000
0.000000
0.000000
0.000000
0.000000
0.000000
0.000000
0.000000
0.000000
0.000000
0.000000
0.000000
0.000000
0.000000
0.000000
0.000000
0.000000
0.000000
0.000000
0.000000
0.000000
0.000000
0.000000
0.000000
0.000000
0.000000
0.000000
0.000000
0.000000
0.000000
0.000000
0.000000
0.000000
0.000000
0.000000
0.000000
0.000000
0.000000
0.000000
0.000000
0.000000
0.000000
0.000000
0.000000
0.000000
0.000000
0.000000
0.000000
</DataArray>
</PointData>
<Cells>
<DataArray type='Int32' Name='connectivity' format='ascii'>
0
1
2
3
4
5
6
7
8
9
10
11
12
13
14
15
16
17
18
19
20
21
22
23
24
25
26
27
28
29
30
31
32
33
34
35
36
37
38
39
40
41
42
43
44
45
46
47
48
49
50
51
52
53
54
55
56
57
58
59
60
61
62
63
64
65
66
67
68
69
70
71
72
73
74
75
76
77
78
79
80
81
82
83
84
85
86
87
88
89
90
91
92
93
94
95
96
97
98
99
100
101
102
103
104
105
106
107
108
109
110
111
112
113
114
115
116
117
118
119
120
121
122
123
124
125
126
127
128
129
130
131
132
133
134
135
136
137
138
139
140
141
142
143
144
145
146
147
148
149
150
151
152
153
154
155
156
157
158
159
160
161
162
163
164
165
166
167
168
169
170
171
172
173
174
175
176
177
178
179
180
181
182
183
184
185
186
187
188
189
190
191
192
193
194
195
196
197
198
199
200
201
202
203
204
205
206
207
208
209
210
211
212
213
214
215
216
217
218
219
220
221
222
223
224
225
226
227
228
229
230
231
232
233
234
235
236
237
238
239
240
241
242
243
244
245
246
247
248
249
250
251
252
253
254
255
256
257
258
259
260
261
262
263
264
265
266
267
268
269
270
271
272
273
274
275
276
277
278
279
280
281
282
283
284
285
286
287
288
289
290
291
292
293
294
295
296
297
298
299
300
301
302
303
304
305
306
307
308
309
310
311
312
313
314
315
316
317
318
319
320
321
322
323
324
325
326
327
328
329
330
331
332
333
334
335
336
337