<?xml version='1.0' encoding='UTF-8'?>
<VTKFile xmlns='VTK' byte_order='LittleEndian' version='0.1' type='UnstructuredGrid'>
<UnstructuredGrid>
<Piece NumberOfCells='584' NumberOfPoints='584'>
<Points>
<DataArray NumberOfComponents='3' type='Float32' Name='Position' format='ascii'>
-0.075000 -0.075000 0.000000
-0.075000 -0.050000 0.000000
-0.075000 -0.025000 0.000000
-0.075000 0.000000 0.000000
-0.075000 0.025000 0.000000
-0.075000 0.050000 0.000000
-0.075000 0.075000 0.000000
-0.075000 0.100000 0.000000
-0.075000 0.125000 0.000000
-0.075000 0.150000 0.000000
-0.075000 0.175000 0.000000
-0.075000 0.200000 0.000000
-0.075000 0.225000 0.000000
-0.075000 0.250000 0.000000
-0.075000 0.275000 0.000000
-0.075000 0.300000 0.000000
-0.075000 0.325000 0.000000
-0.075000 0.350000 0.000000
-0.075000 0.375000 0.000000
-0.075000 0.400000 0.000000
-0.075000 0.425000 0.000000
-0.075000 0.450000 0.000000
-0.075000 0.475000 0.000000
-0.075000 0.500000 0.000000
-0.075000 0.525000 0.000000
-0.075000 0.550000 0.000000
-0.075000 0.575000 0.000000
-0.075000 0.600000 0.000000
-0.050000 -0.075000 0.000000
-0.050000 -0.050000 0.000000
-0.050000 -0.025000 0.000000
-0.050000 0.000000 0.000000
-0.050000 0.025000 0.000000
-0.050000 0.050000 0.000000
-0.050000 0.075000 0.000000
-0.050000 0.100000 0.000000
-0.050000 0.125000 0.000000
-0.050000 0.150000 0.000000
-0.050000 0.175000 0.000000
-0.050000 0.200000 0.000000
-0.050000 0.225000 0.000000
-0.050000 0.250000 0.000000
-0.050000 0.275000 0.000000
-0.050000 0.300000 0.000000
-0.050000 0.325000 0.000000
-0.050000 0.350000 0.000000
-0.050000 0.375000 0.000000
-0.050000 0.400000 0.000000
-0.050000 0.425000 0.000000
-0.050000 0.450000 0.000000
-0.050000 0.475000 0.000000
-0.050000 0.500000 0.000000
-0.050000 0.525000 0.000000
-0.050000 0.550000 0.000000
-0.050000 0.575000 0.000000
-0.050000 0.600000 0.000000
-0.025000 -0.075000 0.000000
-0.025000 -0.050000 0.000000
-0.025000 -0.025000 0.000000
-0.025000 0.000000 0.000000
-0.025000 0.025000 0.000000
-0.025000 0.050000 0.000000
-0.025000 0.075000 0.000000
-0.025000 0.100000 0.000000
-0.025000 0.125000 0.000000
-0.025000 0.150000 0.000000
-0.025000 0.175000 0.000000
-0.025000 0.200000 0.000000
-0.025000 0.225000 0.000000
-0.025000 0.250000 0.000000
-0.025000 0.275000 0.000000
-0.025000 0.300000 0.000000
-0.025000 0.325000 0.000000
-0.025000 0.350000 0.000000
-0.025000 0.375000 0.000000
-0.025000 0.400000 0.000000
-0.025000 0.425000 0.000000
-0.025000 0.450000 0.000000
-0.025000 0.475000 0.000000
-0.025000 0.500000 0.000000
-0.025000 0.525000 0.000000
-0.025000 0.550000 0.000000
-0.025000 0.575000 0.000000
-0.025000 0.600000 0.000000
0.000000 -0.075000 0.000000
0.000000 -0.050000 0.000000
0.000000 -0.025000 0.000000
0.000000 0.000000 0.000000
0.000000 0.025000 0.000000
0.000000 0.050000 0.000000
0.000000 0.075000 0.000000
0.000000 0.100000 0.000000
0.000000 0.125000 0.000000
0.000000 0.150000 0.000000
0.000000 0.175000 0.000000
0.000000 0.200000 0.000000
0.000000 0.225000 0.000000
0.000000 0.250000 0.000000
0.000000 0.275000 0.000000
0.000000 0.300000 0.000000
0.000000 0.325000 0.000000
0.000000 0.350000 0.000000
0.000000 0.375000 0.000000
0.000000 0.400000 0.000000
0.000000 0.425000 0.000000
0.000000 0.450000 0.000000
0.000000 0.475000 0.000000
0.000000 0.500000 0.000000
0.000000 0.525000 0.000000
0.000000 0.550000 0.000000
0.000000 0.575000 0.000000
0.000000 0.600000 0.000000
0.025000 -0.075000 0.000000
0.025000 -0.050000 0.000000
0.025000 -0.025000 0.000000
0.025000 0.000000 0.000000
0.282940 0.077151 0.000000
0.159260 0.125698 0.000000
0.268039 0.052050 0.000000
0.246939 0.023423 0.000000
0.291718 0.051933 0.000000
0.194264 0.055436 0.000000
0.370831 0.025514 0.000000
0.294821 0.096538 0.000000
0.228710 0.111099 0.000000
0.160017 0.162319 0.000000
0.274356 0.025845 0.000000
0.175077 0.065414 0.000000
0.222171 0.025892 0.000000
0.196895 0.023911 0.000000
0.153182 0.089133 0.000000
0.102819 0.038695 0.000000
0.026128 0.139724 0.000000
0.122300 0.023917 0.000000
0.054148 0.085677 0.000000
0.252555 0.070663 0.000000
0.050000 -0.075000 0.000000
0.050000 -0.050000 0.000000
0.050000 -0.025000 0.000000
0.050000 0.000000 0.000000
0.114272 0.174178 0.000000
0.148770 0.068034 0.000000
0.090332 0.114018 0.000000
0.049117 0.022861 0.000000
0.025642 0.076701 0.000000
0.455041 0.071778 0.000000
0.252854 0.131025 0.000000
0.612407 0.020809 0.000000
0.107165 0.101736 0.000000
0.277039 0.183660 0.000000
0.176370 0.027620 0.000000
0.271114 0.144852 0.000000
0.034169 0.155514 0.000000
0.319541 0.195944 0.000000
0.217480 0.049693 0.000000
0.053579 0.044474 0.000000
0.263877 0.096729 0.000000
0.322473 0.091055 0.000000
0.090837 0.144067 0.000000
0.128325 0.047574 0.000000
0.075000 -0.075000 0.000000
0.075000 -0.050000 0.000000
0.075000 -0.025000 0.000000
0.075000 0.000000 0.000000
0.199818 0.078771 0.000000
0.179787 0.126616 0.000000
0.436741 0.131110 0.000000
0.391645 0.023863 0.000000
0.443658 0.146375 0.000000
0.546800 0.124449 0.000000
0.546305 0.103568 0.000000
0.086520 0.065846 0.000000
0.352054 0.081725 0.000000
0.588226 0.044813 0.000000
0.471973 0.027765 0.000000
0.115884 0.067141 0.000000
0.269904 0.115522 0.000000
0.263552 0.167052 0.000000
0.336083 0.059850 0.000000
0.078577 0.045311 0.000000
0.174959 0.100143 0.000000
0.050484 0.066155 0.000000
0.197170 0.102602 0.000000
0.244709 0.047717 0.000000
0.100000 -0.075000 0.000000
0.100000 -0.050000 0.000000
0.100000 -0.025000 0.000000
0.100000 0.000000 0.000000
0.515432 0.033329 0.000000
0.377934 0.206242 0.000000
0.486625 0.131413 0.000000
0.781079 0.020953 0.000000
0.312679 0.071484 0.000000
0.718360 0.029458 0.000000
0.555185 0.063129 0.000000
0.311112 0.040326 0.000000
0.669341 0.028062 0.000000
0.683442 0.054489 0.000000
0.493579 0.022841 0.000000
0.343998 0.105134 0.000000
0.501741 0.115841 0.000000
0.643390 0.068004 0.000000
0.067348 0.124750 0.000000
0.298957 0.023483 0.000000
0.519981 0.066170 0.000000
0.342835 0.042090 0.000000
0.372105 0.097192 0.000000
0.140190 0.153212 0.000000
0.125000 -0.075000 0.000000
0.125000 -0.050000 0.000000
0.125000 -0.025000 0.000000
0.125000 0.000000 0.000000
0.698699 0.060996 0.000000
0.597028 0.074619 0.000000
0.983584 0.074170 0.000000
0.846481 0.025930 0.000000
0.524507 0.101323 0.000000
0.631927 0.037972 0.000000
0.063737 0.149310 0.000000
0.481087 0.070224 0.000000
0.785270 0.069018 0.000000
0.736289 0.057105 0.000000
0.841548 0.070789 0.000000
0.501802 0.057183 0.000000
0.531484 0.047840 0.000000
0.386817 0.139524 0.000000
0.442938 0.022215 0.000000
0.405032 0.161182 0.000000
0.214880 0.156861 0.000000
0.221993 0.074195 0.000000
0.413059 0.149280 0.000000
0.059947 0.105420 0.000000
0.150000 -0.075000 0.000000
0.150000 -0.050000 0.000000
0.150000 -0.025000 0.000000
0.150000 0.000000 0.000000
0.173910 0.170178 0.000000
0.961843 0.027479 0.000000
0.662484 0.065289 0.000000
0.366660 0.052740 0.000000
0.896394 0.023924 0.000000
0.238800 0.093084 0.000000
0.904752 0.058898 0.000000
0.437233 0.183261 0.000000
0.962020 0.053422 0.000000
0.492754 0.174469 0.000000
0.939946 0.022836 0.000000
0.690956 0.022759 0.000000
0.872991 0.068373 0.000000
0.811461 0.057674 0.000000
0.765255 0.036407 0.000000
0.579340 0.078926 0.000000
0.649476 0.027407 0.000000
0.583427 0.107986 0.000000
0.615057 0.082983 0.000000
0.331591 0.123193 0.000000
0.175000 -0.075000 0.000000
0.175000 -0.050000 0.000000
0.175000 -0.025000 0.000000
0.175000 0.000000 0.000000
0.129341 0.093013 0.000000
0.514114 0.148316 0.000000
0.888477 0.046277 0.000000
0.773250 0.051819 0.000000
0.988095 0.022205 0.000000
0.139046 0.114504 0.000000
0.869384 0.024617 0.000000
0.413473 0.048568 0.000000
0.444041 0.049488 0.000000
0.919135 0.032258 0.000000
0.503714 0.089770 0.000000
0.744285 0.084536 0.000000
0.413393 0.095087 0.000000
0.932345 0.056061 0.000000
0.981254 0.051118 0.000000
0.470119 0.049999 0.000000
1.004755 0.038520 0.000000
0.483673 0.097289 0.000000
0.111850 0.132562 0.000000
0.388402 0.111753 0.000000
0.200000 -0.075000 0.000000
0.200000 -0.050000 0.000000
0.200000 -0.025000 0.000000
0.200000 0.000000 0.000000
0.365993 0.128157 0.000000
0.150868 0.023774 0.000000
0.308161 0.111286 0.000000
0.820947 0.023349 0.000000
0.438828 0.101217 0.000000
0.362587 0.174612 0.000000
0.609854 0.043118 0.000000
0.967113 0.079161 0.000000
0.369619 0.158412 0.000000
0.096204 0.082390 0.000000
0.804325 0.038063 0.000000
0.628713 0.078305 0.000000
0.086199 0.020897 0.000000
0.446783 0.190918 0.000000
0.538628 0.021166 0.000000
0.217613 0.143805 0.000000
0.715462 0.051566 0.000000
0.395413 0.200149 0.000000
0.858030 0.054466 0.000000
0.670761 0.086617 0.000000
0.225000 -0.075000 0.000000
0.225000 -0.050000 0.000000
0.225000 -0.025000 0.000000
0.225000 0.000000 0.000000
0.404573 0.074115 0.000000
0.834978 0.050733 0.000000
0.519535 0.160316 0.000000
0.315542 0.171793 0.000000
0.049417 0.160724 0.000000
0.085187 0.165319 0.000000
0.463716 0.158322 0.000000
0.917585 0.071502 0.000000
0.564413 0.040374 0.000000
0.022623 0.101778 0.000000
0.556647 0.080842 0.000000
0.210983 0.183284 0.000000
0.421615 0.026340 0.000000
0.457721 0.104216 0.000000
0.155469 0.046365 0.000000
0.211149 0.121013 0.000000
0.532250 0.127670 0.000000
0.024739 0.025968 0.000000
0.297182 0.138417 0.000000
0.392370 0.050767 0.000000
0.250000 -0.075000 0.000000
0.250000 -0.050000 0.000000
0.250000 -0.025000 0.000000
0.250000 0.000000 0.000000
0.737765 0.020982 0.000000
0.398220 0.185423 0.000000
0.308569 0.188215 0.000000
0.376496 0.074247 0.000000
0.337859 0.020087 0.000000
0.335551 0.162160 0.000000
0.120821 0.149116 0.000000
0.365726 0.202164 0.000000
0.309372 0.147570 0.000000
0.466238 0.127654 0.000000
0.252136 0.154464 0.000000
0.037985 0.115646 0.000000
0.176367 0.149419 0.000000
0.572495 0.022638 0.000000
0.409933 0.115056 0.000000
0.434565 0.072666 0.000000
0.347450 0.140656 0.000000
0.749036 0.069677 0.000000
0.023935 0.051012 0.000000
0.481970 0.163095 0.000000
0.275000 -0.075000 0.000000
0.275000 -0.050000 0.000000
0.275000 -0.025000 0.000000
0.275000 0.000000 0.000000
0.300000 -0.075000 0.000000
0.300000 -0.050000 0.000000
0.300000 -0.025000 0.000000
0.300000 0.000000 0.000000
0.325000 -0.075000 0.000000
0.325000 -0.050000 0.000000
0.325000 -0.025000 0.000000
0.325000 0.000000 0.000000
0.350000 -0.075000 0.000000
0.350000 -0.050000 0.000000
0.350000 -0.025000 0.000000
0.350000 0.000000 0.000000
0.375000 -0.075000 0.000000
0.375000 -0.050000 0.000000
0.375000 -0.025000 0.000000
0.375000 0.000000 0.000000
0.400000 -0.075000 0.000000
0.400000 -0.050000 0.000000
0.400000 -0.025000 0.000000
0.400000 0.000000 0.000000
0.425000 -0.075000 0.000000
0.425000 -0.050000 0.000000
0.425000 -0.025000 0.000000
0.425000 0.000000 0.000000
0.450000 -0.075000 0.000000
0.450000 -0.050000 0.000000
0.450000 -0.025000 0.000000
0.450000 0.000000 0.000000
0.475000 -0.075000 0.000000
0.475000 -0.050000 0.000000
0.475000 -0.025000 0.000000
0.475000 0.000000 0.000000
0.500000 -0.075000 0.000000
0.500000 -0.050000 0.000000
0.500000 -0.025000 0.000000
0.500000 0.000000 0.000000
0.525000 -0.075000 0.000000
0.525000 -0.050000 0.000000
0.525000 -0.025000 0.000000
0.525000 0.000000 0.000000
0.550000 -0.075000 0.000000
0.550000 -0.050000 0.000000
0.550000 -0.025000 0.000000
0.550000 0.000000 0.000000
0.575000 -0.075000 0.000000
0.575000 -0.050000 0.000000
0.575000 -0.025000 0.000000
0.575000 0.000000 0.000000
0.600000 -0.075000 0.000000
0.600000 -0.050000 0.000000
0.600000 -0.025000 0.000000
0.600000 0.000000 0.000000
0.625000 -0.075000 0.000000
0.625000 -0.050000 0.000000
0.625000 -0.025000 0.000000
0.625000 0.000000 0.000000
0.650000 -0.075000 0.000000
0.650000 -0.050000 0.000000
0.650000 -0.025000 0.000000
0.650000 0.000000 0.000000
0.675000 -0.075000 0.000000
0.675000 -0.050000 0.000000
0.675000 -0.025000 0.000000
0.675000 0.000000 0.000000
0.700000 -0.075000 0.000000
0.700000 -0.050000 0.000000
0.700000 -0.025000 0.000000
0.700000 0.000000 0.000000
0.725000 -0.075000 0.000000
0.725000 -0.050000 0.000000
0.725000 -0.025000 0.000000
0.725000 0.000000 0.000000
0.750000 -0.075000 0.000000
0.750000 -0.050000 0.000000
0.750000 -0.025000 0.000000
0.750000 0.000000 0.000000
0.775000 -0.075000 0.000000
0.775000 -0.050000 0.000000
0.775000 -0.025000 0.000000
0.775000 0.000000 0.000000
0.800000 -0.075000 0.000000
0.800000 -0.050000 0.000000
0.800000 -0.025000 0.000000
0.800000 0.000000 0.000000
0.825000 -0.075000 0.000000
0.825000 -0.050000 0.000000
0.825000 -0.025000 0.000000
0.825000 0.000000 0.000000
0.850000 -0.075000 0.000000
0.850000 -0.050000 0.000000
0.850000 -0.025000 0.000000
0.850000 0.000000 0.000000
0.875000 -0.075000 0.000000
0.875000 -0.050000 0.000000
0.875000 -0.025000 0.000000
0.875000 0.000000 0.000000
0.900000 -0.075000 0.000000
0.900000 -0.050000 0.000000
0.900000 -0.025000 0.000000
0.900000 0.000000 0.000000
0.925000 -0.075000 0.000000
0.925000 -0.050000 0.000000
0.925000 -0.025000 0.000000
0.925000 0.000000 0.000000
0.950000 -0.075000 0.000000
0.950000 -0.050000 0.000000
0.950000 -0.025000 0.000000
0.950000 0.000000 0.000000
0.975000 -0.075000 0.000000
0.975000 -0.050000 0.000000
0.975000 -0.025000 0.000000
0.975000 0.000000 0.000000
1.000000 -0.075000 0.000000
1.000000 -0.050000 0.000000
1.000000 -0.025000 0.000000
1.000000 0.000000 0.000000
1.025000 -0.075000 0.000000
1.025000 -0.050000 0.000000
1.025000 -0.025000 0.000000
1.025000 0.000000 0.000000
1.025000 0.025000 0.000000
1.025000 0.050000 0.000000
1.025000 0.075000 0.000000
1.025000 0.100000 0.000000
1.025000 0.125000 0.000000
1.025000 0.150000 0.000000
1.025000 0.175000 0.000000
1.025000 0.200000 0.000000
1.025000 0.225000 0.000000
1.025000 0.250000 0.000000
1.025000 0.275000 0.000000
1.025000 0.300000 0.000000
1.025000 0.325000 0.000000
1.025000 0.350000 0.000000
1.025000 0.375000 0.000000
1.025000 0.400000 0.000000
1.025000 0.425000 0.000000
1.025000 0.450000 0.000000
1.025000 0.475000 0.000000
1.025000 0.500000 0.000000
1.025000 0.525000 0.000000
1.025000 0.550000 0.000000
1.025000 0.575000 0.000000
1.025000 0.600000 0.000000
1.050000 -0.075000 0.000000
1.050000 -0.050000 0.000000
1.050000 -0.025000 0.000000
1.050000 0.000000 0.000000
1.050000 0.025000 0.000000
1.050000 0.050000 0.000000
1.050000 0.075000 0.000000
1.050000 0.100000 0.000000
1.050000 0.125000 0.000000
1.050000 0.150000 0.000000
1.050000 0.175000 0.000000
1.050000 0.200000 0.000000
1.050000 0.225000 0.000000
1.050000 0.250000 0.000000
1.050000 0.275000 0.000000
1.050000 0.300000 0.000000
1.050000 0.325000 0.000000
1.050000 0.350000 0.000000
1.050000 0.375000 0.000000
1.050000 0.400000 0.000000
1.050000 0.425000 0.000000
1.050000 0.450000 0.000000
1.050000 0.475000 0.000000
1.050000 0.500000 0.000000
1.050000 0.525000 0.000000
1.050000 0.550000 0.000000
1.050000 0.575000 0.000000
1.050000 0.600000 0.000000
1.075000 -0.075000 0.000000
1.075000 -0.050000 0.000000
1.075000 -0.025000 0.000000
1.075000 0.000000 0.000000
1.075000 0.025000 0.000000
1.075000 0.050000 0.000000
1.075000 0.075000 0.000000
1.075000 0.100000 0.000000
1.075000 0.125000 0.000000
1.075000 0.150000 0.000000
1.075000 0.175000 0.000000
1.075000 0.200000 0.000000
1.075000 0.225000 0.000000
1.075000 0.250000 0.000000
1.075000 0.275000 0.000000
1.075000 0.300000 0.000000
1.075000 0.325000 0.000000
1.075000 0.350000 0.000000
1.075000 0.375000 0.000000
1.075000 0.400000 0.000000
1.075000 0.425000 0.000000
1.075000 0.450000 0.000000
1.075000 0.475000 0.000000
1.075000 0.500000 0.000000
1.075000 0.525000 0.000000
1.075000 0.550000 0.000000
1.075000 0.575000 0.000000
1.075000 0.600000 0.000000
1.100000 -0.075000 0.000000
1.100000 -0.050000 0.000000
1.100000 -0.025000 0.000000
1.100000 0.000000 0.000000
1.100000 0.025000 0.000000
1.100000 0.050000 0.000000
1.100000 0.075000 0.000000
1.100000 0.100000 0.000000
1.100000 0.125000 0.000000
1.100000 0.150000 0.000000
1.100000 0.175000 0.000000
1.100000 0.200000 0.000000
1.100000 0.225000 0.000000
1.100000 0.250000 0.000000
1.100000 0.275000 0.000000
1.100000 0.300000 0.000000
1.100000 0.325000 0.000000
1.100000 0.350000 0.000000
1.100000 0.375000 0.000000
1.100000 0.400000 0.000000
1.100000 0.425000 0.000000
1.100000 0.450000 0.000000
1.100000 0.475000 0.000000
1.100000 0.500000 0.000000
1.100000 0.525000 0.000000
1.100000 0.550000 0.000000
1.100000 0.575000 0.000000
1.100000 0.600000 0.000000
</DataArray>
</Points>
<PointData>
<DataArray NumberOfComponents='1' type='Int32' Name='ParticleType' format='ascii'>
3
3
3
3
3
3
3
3
3
3
3
3
3
3
3
3
3
3
3
3
3
3
3
3
3
3
2
2
3
3
3
3
3
3
3
3
3
3
3
3
3
3
3
3
3
3
3
3
3
3
3
3
3
3
2
2
3
3
2
2
2
2
2
2
2
2
2
2
2
2
2
2
2
2
2
2
2
2
2
2
2
2
2
2
3
3
2
2
2
2
2
2
2
2
2
2
2
2
2
2
2
2
2
2
2
2
2
2
2
2
2
2
3
3
2
2
0
0
0
0
0
0
0
0
0
0
0
0
0
0
0
0
0
0
0
0
3
3
2
2
0
0
0
0
0
0
0
0
0
0
0
0
0
0
0
0
0
0
0
0
3
3
2
2
0
0
0
0
0
0
0
0
0
0
0
0
0
0
0
0
0
0
0
0
3
3
2
2
0
0
0
0
0
0
0
0
0
0
0
0
0
0
0
0
0
0
0
0
3
3
2
2
0
0
0
0
0
0
0
0
0
0
0
0
0
0
0
0
0
0
0
0
3
3
2
2
0
0
0
0
0
0
0
0
0
0
0
0
0
0
0
0
0
0
0
0
3
3
2
2
0
0
0
0
0
0
0
0
0
0
0
0
0
0
0
0
0
0
0
0
3
3
2
2
0
0
0
0
0
0
0
0
0
0
0
0
0
0
0
0
0
0
0
0
3
3
2
2
0
0
0
0
0
0
0
0
0
0
0
0
0
0
0
0
0
0
0
0
3
3
2
2
0
0
0
0
0
0
0
0
0
0
0
0
0
0
0
0
0
0
0
0
3
3
2
2
3
3
2
2
3
3
2
2
3
3
2
2
3
3
2
2
3
3
2
2
3
3
2
2
3
3
2
2
3
3
2
2
3
3
2
2
3
3
2
2
3
3
2
2
3
3
2
2
3
3
2
2
3
3
2
2
3
3
2
2
3
3
2
2
3
3
2
2
3
3
2
2
3
3
2
2
3
3
2
2
3
3
2
2
3
3
2
2
3
3
2
2
3
3
2
2
3
3
2
2
3
3
2
2
3
3
2
2
3
3
2
2
3
3
2
2
3
3
2
2
2
2
2
2
2
2
2
2
2
2
2
2
2
2
2
2
2
2
2
2
2
2
2
2
3
3
2
2
2
2
2
2
2
2
2
2
2
2
2
2
2
2
2
2
2
2
2
2
2
2
2
2
3
3
3
3
3
3
3
3
3
3
3
3
3
3
3
3
3
3
3
3
3
3
3
3
3
3
2
2
3
3
3
3
3
3
3
3
3
3
3
3
3
3
3
3
3
3
3
3
3
3
3
3
3
3
2
2
</DataArray>
<DataArray NumberOfComponents='1' type='Float32' Name='Velocity' format='ascii'>
0.000000
0.000000
0.000000
0.000000
0.000000
0.000000
0.000000
0.000000
0.000000
0.000000
0.000000
0.000000
0.000000
0.000000
0.000000
0.000000
0.000000
0.000000
0.000000
0.000000
0.000000
0.000000
0.000000
0.000000
0.000000
0.000000
0.000000
0.000000
0.000000
0.000000
0.000000
0.000000
0.000000
0.000000
0.000000
0.000000
0.000000
0.000000
0.000000
0.000000
0.000000
0.000000
0.000000
0.000000
0.000000
0.000000
0.000000
0.000000
0.000000
0.000000
0.000000
0.000000
0.000000
0.000000
0.000000
0.000000
0.000000
0.000000
0.000000
0.000000
0.000000
0.000000
0.000000
0.000000
0.000000
0.000000
0.000000
0.000000
0.000000
0.000000
0.000000
0.000000
0.000000
0.000000
0.000000
0.000000
0.000000
0.000000
0.000000
0.000000
0.000000
0.000000
0.000000
0.000000
0.000000
0.000000
0.000000
0.000000
0.000000
0.000000
0.000000
0.000000
0.000000
0.000000
0.000000
0.000000
0.000000
0.000000
0.000000
0.000000
0.000000
0.000000
0.000000
0.000000
0.000000
0.000000
0.000000
0.000000
0.000000
0.000000
0.000000
0.000000
0.000000
0.000000
0.000000
0.000000
0.810710
0.192116
0.388286
0.365607
0.365647
0.562723
0.428537
0.652879
0.389470
0.702783
0.248349
0.564959
0.604936
0.402781
0.507539
0.235200
0.106612
0.413317
0.189173
0.428539
0.000000
0.000000
0.000000
0.000000
0.296904
0.491047
0.427229
0.168447
0.060496
0.819406
0.370799
0.199849
0.338278
0.908128
0.546831
0.215796
0.153346
1.054892
0.449556
0.095466
0.225665
0.705712
0.767533
0.328967
0.000000
0.000000
0.000000
0.000000
0.344449
0.092070
0.687370
0.320234
0.680622
0.370302
0.674283
0.119098
0.701207
0.359346
0.606889
0.304856
0.330347
0.130139
0.326164
0.385367
0.372699
0.129681
0.104245
0.484019
0.000000
0.000000
0.000000
0.000000
0.516472
0.231804
0.710298
0.168361
0.248737
0.286298
0.256679
0.415194
0.277816
0.569803
0.412548
0.498772
0.608667
0.570271
0.311869
0.410704
0.330562
0.600227
0.505491
0.929152
0.000000
0.000000
0.000000
0.000000
0.453595
0.221319
0.129500
0.338097
0.410124
0.529440
0.450087
0.694172
0.088129
0.373915
0.369088
0.593642
0.546539
0.397613
0.388341
0.448469
0.314284
0.520810
0.411165
0.196879
0.000000
0.000000
0.000000
0.000000
0.397482
0.291211
0.541420
0.436830
0.069478
0.506611
0.176694
0.278574
0.152009
0.591665
0.151318
0.250205
0.455874
0.216872
0.193051
0.359043
0.338996
0.272304
0.263078
0.556114
0.000000
0.000000
0.000000
0.000000
0.486232
0.446906
0.286998
0.299030
0.213160
0.574601
0.096283
0.503883
0.507981
0.294791
0.682510
0.065278
0.725420
0.245542
0.161326
0.821155
0.111039
0.527159
0.214209
0.617041
0.000000
0.000000
0.000000
0.000000
0.582297
0.433896
0.191345
0.152998
0.584588
0.384781
0.530951
0.222276
0.745371
0.087274
0.132087
0.307529
0.166794
0.206547
0.477159
0.478907
0.080732
0.594523
0.187965
0.345102
0.000000
0.000000
0.000000
0.000000
0.569730
0.152475
0.386253
0.415313
0.089877
0.750163
0.724296
0.412514
0.614857
0.341710
0.281512
0.547207
0.386027
0.497855
0.568014
0.348149
0.651888
0.183650
0.164728
0.647883
0.000000
0.000000
0.000000
0.000000
0.157683
0.446005
0.614256
0.763384
0.301917
0.879736
0.040325
0.460644
0.571096
0.420418
0.416030
0.772836
0.276902
0.328454
0.411493
0.976712
0.494162
0.079640
0.340779
0.455906
0.000000
0.000000
0.000000
0.000000
0.000000
0.000000
0.000000
0.000000
0.000000
0.000000
0.000000
0.000000
0.000000
0.000000
0.000000
0.000000
0.000000
0.000000
0.000000
0.000000
0.000000
0.000000
0.000000
0.000000
0.000000
0.000000
0.000000
0.000000
0.000000
0.000000
0.000000
0.000000
0.000000
0.000000
0.000000
0.000000
0.000000
0.000000
0.000000
0.000000
0.000000
0.000000
0.000000
0.000000
0.000000
0.000000
0.000000
0.000000
0.000000
0.000000
0.000000
0.000000
0.000000
0.000000
0.000000
0.000000
0.000000
0.000000
0.000000
0.000000
0.000000
0.000000
0.000000
0.000000
0.000000
0.000000
0.000000
0.000000
0.000000
0.000000
0.000000
0.000000
0.000000
0.000000
0.000000
0.000000
0.000000
0.000000
0.000000
0.000000
0.000000
0.000000
0.000000
0.000000
0.000000
0.000000
0.000000
0.000000
0.000000
0.000000
0.000000
0.000000
0.000000
0.000000
0.000000
0.000000
0.000000
0.000000
0.000000
0.000000
0.000000
0.000000
0.000000
0.000000
0.000000
0.000000
0.000000
0.000000
0.000000
0.000000
0.000000
0.000000
0.000000
0.000000
0.000000
0.000000
0.000000
0.000000
0.000000
0.000000
0.000000
0.000000
0.000000
0.000000
0.000000
0.000000
0.000000
0.000000
0.000000
0.000000
0.000000
0.000000
0.000000
0.000000
0.000000
0.000000
0.000000
0.000000
0.000000
0.000000
0.000000
0.000000
0.000000
0.000000
0.000000
0.000000
0.000000
0.000000
0.000000
0.000000
0.000000
0.000000
0.000000
0.000000
0.000000
0.000000
0.000000
0.000000
0.000000
0.000000
0.000000
0.000000
0.000000
0.000000
0.000000
0.000000
0.000000
0.000000
0.000000
0.000000
0.000000
0.000000
0.000000
0.000000
0.000000
0.000000
0.000000
0.000000
0.000000
0.000000
0.000000
0.000000
0.000000
0.000000
0.000000
0.000000
0.000000
0.000000
0.000000
0.000000
0.000000
0.000000
0.000000
0.000000
0.000000
0.000000
0.000000
0.000000
0.000000
0.000000
0.000000
0.000000
0.000000
0.000000
0.000000
0.000000
0.000000
0.000000
0.000000
0.000000
0.000000
0.000000
0.000000
0.000000
0.000000
0.000000
0.000000
0.000000
0.000000
0.000000
0.000000
0.000000
0.000000
0.000000
0.000000
0.000000
0.000000
0.000000
0.000000
0.000000
0.000000
0.000000
</DataArray>
<DataArray NumberOfComponents='1' type='Float32' Name='pressure' format='ascii'>
0.000000
0.000000
0.000000
0.000000
0.000000
0.000000
0.000000
0.000000
0.000000
0.000000
0.000000
0.000000
0.000000
0.000000
0.000000
0.000000
0.000000
0.000000
0.000000
0.000000
0.000000
0.000000
0.000000
0.000000
0.000000
0.000000
0.000000
0.000000
0.000000
0.000000
0.000000
0.000000
0.000000
0.000000
0.000000
0.000000
0.000000
0.000000
0.000000
0.000000
0.000000
0.000000
0.000000
0.000000
0.000000
0.000000
0.000000
0.000000
0.000000
0.000000
0.000000
0.000000
0.000000
0.000000
0.000000
0.000000
0.000000
0.000000
3689.154297
3691.839355
3739.277100
3792.196533
2837.738525
2971.689453
172.668594
0.000000
0.000000
0.000000
0.000000
0.000000
0.000000
0.000000
0.000000
0.000000
0.000000
0.000000
0.000000
0.000000
0.000000
0.000000
0.000000
0.000000
0.000000
0.000000
0.000000
0.000000
3730.185791
3470.767334
4057.748291
3538.010010
3021.232910
3412.678711
0.000000
0.000000
0.000000
0.000000
0.000000
0.000000
0.000000
0.000000
0.000000
0.000000
0.000000
0.000000
0.000000
0.000000
0.000000
0.000000
0.000000
0.000000
0.000000
0.000000
0.000000
0.000000
3598.189209
3727.268066
1098.816772
724.718689
1813.239380
1171.062012
895.913879
1551.074463
20.734545
1538.464966
294.285645
0.000000
428.496735
489.366272
1358.336182
1921.999146
1908.218262
3060.690918
774.148865
1990.437988
2731.873291
497.462982
0.000000
0.000000
4757.213867
4380.678711
0.000000
1926.835693
0.000000
3147.147461
3257.769043
1463.468384
837.633667
1406.942261
1879.963135
0.000000
1134.351807
849.824890
0.000000
0.000000
1843.176270
3523.337158
542.801941
1319.113892
342.148315
1324.550781
0.000000
0.000000
4890.782715
2894.104980
578.329651
1195.111328
0.000000
877.766907
906.094543
0.000000
0.000000
2357.242188
0.000000
0.000000
0.000000
1388.874023
611.294861
0.000000
520.379822
2173.449219
254.047729
3274.971436
1626.021973
1235.471924
0.000000
0.000000
4390.848633
3131.505615
519.635193
0.000000
276.933441
0.000000
221.859131
1186.409302
1061.612305
1055.268555
321.132782
826.882996
0.000000
967.808350
0.000000
0.000000
2675.006348
1734.889038
0.000000
1070.000244
884.984375
0.000000
0.000000
0.000000
3601.853271
3208.579834
0.000000
1408.090454
0.000000
489.861938
0.000000
0.000000
1442.453247
0.000000
0.000000
42.092270
0.000000
945.550171
0.000000
0.000000
965.737244
98.897423
0.000000
343.257843
0.000000
2413.188232
0.000000
0.000000
3125.209229
2818.955078
0.000000
0.000000
0.000000
469.904083
0.000000
1094.119751
0.000000
0.000000
0.000000
0.000000
0.000000
521.616455
0.000000
0.000000
465.808472
0.000000
1522.179810
0.000000
0.000000
0.000000
0.000000
0.000000
1567.172852
2085.027100
559.317505
0.000000
145.394424
100.173325
0.000000
0.000000
0.000000
890.733826
0.000000
0.000000
0.000000
0.000000
0.000000
0.000000
0.000000
0.000000
0.000000
175.778839
1663.728760
0.000000
0.000000
0.000000
2402.812256
2507.178955
88.247177
2181.411621
1406.403809
0.000000
0.000000
0.000000
842.787964
0.000000
0.000000
1332.959839
0.000000
602.467773
3317.893066
0.000000
0.000000
422.290833
45.191444
0.000000
0.000000
0.000000
0.000000
0.000000
1667.221436
2028.380371
0.000000
161.948212
0.000000
484.169159
0.000000
0.000000
0.000000
0.000000
868.612793
3672.564209
217.982330
0.000000
81.306938
0.000000
2666.204590
0.000000
560.637878
3766.656738
0.000000
888.305725
0.000000
0.000000
2275.945068
2232.260986
0.000000
0.000000
0.000000
576.088013
562.987976
0.000000
166.321320
0.000000
687.300842
51.844669
0.000000
2199.972412
71.342506
683.774475
0.000000
376.107574
0.000000
0.000000
2639.010010
0.000000
0.000000
0.000000
1459.336304
508.959442
0.000000
0.000000
2411.965576
1985.085083
0.000000
0.000000
3107.242432
1170.995728
0.000000
0.000000
3057.965820
1836.623169
0.000000
0.000000
1658.015015
771.866760
0.000000
0.000000
1584.897095
1188.248291
0.000000
0.000000
1609.996826
1461.978760
0.000000
0.000000
2072.849609
2040.028076
0.000000
0.000000
671.080322
10.643016
0.000000
0.000000
1613.633911
1116.456055
0.000000
0.000000
1866.607544
0.000000
0.000000
0.000000
2400.677002
1629.747925
0.000000
0.000000
2422.658203
1657.772217
0.000000
0.000000
2248.550781
0.000000
0.000000
0.000000
1823.028320
547.809753
0.000000
0.000000
0.000000
0.000000
0.000000
0.000000
735.038879
800.716125
0.000000
0.000000
1646.516846
1144.427002
0.000000
0.000000
2179.518066
1446.091675
0.000000
0.000000
2040.497314
602.364624
0.000000
0.000000
1953.699341
612.279968
0.000000
0.000000
184.449814
0.000000
0.000000
0.000000
284.312103
0.000000
0.000000
0.000000
0.000000
0.000000
0.000000
0.000000
27.352186
411.058289
0.000000
0.000000
430.112488
301.857605
0.000000
0.000000
149.342529
0.000000
0.000000
0.000000
529.709290
1135.675659
0.000000
0.000000
189.942184
0.000000
0.000000
0.000000
0.000000
0.000000
0.000000
0.000000
0.000000
0.000000
0.000000
0.000000
0.000000
0.000000
0.000000
0.000000
0.000000
0.000000
0.000000
0.000000
0.000000
0.000000
0.000000
0.000000
0.000000
0.000000
0.000000
0.000000
0.000000
0.000000
0.000000
0.000000
0.000000
0.000000
0.000000
0.000000
0.000000
0.000000
528.644165
829.039917
0.000000
0.000000
0.000000
0.000000
0.000000
0.000000
0.000000
0.000000
0.000000
0.000000
0.000000
0.000000
0.000000
0.000000
0.000000
0.000000
0.000000
0.000000
0.000000
0.000000
0.000000
0.000000
0.000000
0.000000
0.000000
0.000000
0.000000
0.000000
0.000000
0.000000
0.000000
0.000000
0.000000
0.000000
0.000000
0.000000
0.000000
0.000000
0.000000
0.000000
0.000000
0.000000
0.000000
0.000000
0.000000
0.000000
0.000000
0.000000
0.000000
0.000000
0.000000
0.000000
0.000000
0.000000
0.000000
0.000000
0.000000
0.000000
0.000000
0.000000
0.000000
0.000000
0.000000
0.000000
0.000000
0.000000
0.000000
0.000000
0.000000
0.000000
0.000000
0.000000
0.000000
0.000000
0.000000
0.000000
0.000000
0.000000
</DataArray>
</PointData>
<Cells>
<DataArray type='Int32' Name='connectivity' format='ascii'>
0
1
2
3
4
5
6
7
8
9
10
11
12
13
14
15
16
17
18
19
20
21
22
23
24
25
26
27
28
29
30
31
32
33
34
35
36
37
38
39
40
41
42
43
44
45
46
47
48
49
50
51
52
53
54
55
56
57
58
59
60
61
62
63
64
65
66
67
68
69
70
71
72
73
74
75
76
77
78
79
80
81
82
83
84
85
86
87
88
89
90
91
92
93
94
95
96
97
98
99
100
101
102
103
104
105
106
107
108
109
110
111
112
113
114
115
116
117
118
119
120
121
122
123
124
125
126
127
128
129
130
131
132
133
134
135
136
137
138
139
140
141
142
143
144
145
146
147
148
149
150
151
152
153
154
155
156
157
158
159
160
161
162
163
164
165
166
167
168
169
170
171
172
173
174
175
176
177
178
179
180
181
182
183
184
185
186
187
188
189
190
191
192
193
194
195
196
197
198
199
200
201
202
203
204
205
206
207
208
209
210
211
212
213
214
215
216
217
218
219
220
221
222
223
224
225
226
227
228
229
230
231
232
233
234
235
236
237
238
239
240
241
242
243
244
245
246
247
248
249
250
251
252
253
254
255
256
257
258
259
260
261
262
263
264
265
266
267
268
269
270
271
272
273
274
275
276
277
278
279
280
281
282
283
284
285
286
287
288
289
290
291
292
293
294
295
296
297
298
299
300
301
302
303
304
305
306
307
308
309
310
311
312
313
314
315