<?xml version='1.0' encoding='UTF-8'?>
<VTKFile xmlns='VTK' byte_order='LittleEndian' version='0.1' type='UnstructuredGrid'>
<UnstructuredGrid>
<Piece NumberOfCells='584' NumberOfPoints='584'>
<Points>
<DataArray NumberOfComponents='3' type='Float32' Name='Position' format='ascii'>
-0.075000 -0.075000 0.000000
-0.075000 -0.050000 0.000000
-0.075000 -0.025000 0.000000
-0.075000 0.000000 0.000000
-0.075000 0.025000 0.000000
-0.075000 0.050000 0.000000
-0.075000 0.075000 0.000000
-0.075000 0.100000 0.000000
-0.075000 0.125000 0.000000
-0.075000 0.150000 0.000000
-0.075000 0.175000 0.000000
-0.075000 0.200000 0.000000
-0.075000 0.225000 0.000000
-0.075000 0.250000 0.000000
-0.075000 0.275000 0.000000
-0.075000 0.300000 0.000000
-0.075000 0.325000 0.000000
-0.075000 0.350000 0.000000
-0.075000 0.375000 0.000000
-0.075000 0.400000 0.000000
-0.075000 0.425000 0.000000
-0.075000 0.450000 0.000000
-0.075000 0.475000 0.000000
-0.075000 0.500000 0.000000
-0.075000 0.525000 0.000000
-0.075000 0.550000 0.000000
-0.075000 0.575000 0.000000
-0.075000 0.600000 0.000000
-0.050000 -0.075000 0.000000
-0.050000 -0.050000 0.000000
-0.050000 -0.025000 0.000000
-0.050000 0.000000 0.000000
-0.050000 0.025000 0.000000
-0.050000 0.050000 0.000000
-0.050000 0.075000 0.000000
-0.050000 0.100000 0.000000
-0.050000 0.125000 0.000000
-0.050000 0.150000 0.000000
-0.050000 0.175000 0.000000
-0.050000 0.200000 0.000000
-0.050000 0.225000 0.000000
-0.050000 0.250000 0.000000
-0.050000 0.275000 0.000000
-0.050000 0.300000 0.000000
-0.050000 0.325000 0.000000
-0.050000 0.350000 0.000000
-0.050000 0.375000 0.000000
-0.050000 0.400000 0.000000
-0.050000 0.425000 0.000000
-0.050000 0.450000 0.000000
-0.050000 0.475000 0.000000
-0.050000 0.500000 0.000000
-0.050000 0.525000 0.000000
-0.050000 0.550000 0.000000
-0.050000 0.575000 0.000000
-0.050000 0.600000 0.000000
-0.025000 -0.075000 0.000000
-0.025000 -0.050000 0.000000
-0.025000 -0.025000 0.000000
-0.025000 0.000000 0.000000
-0.025000 0.025000 0.000000
-0.025000 0.050000 0.000000
-0.025000 0.075000 0.000000
-0.025000 0.100000 0.000000
-0.025000 0.125000 0.000000
-0.025000 0.150000 0.000000
-0.025000 0.175000 0.000000
-0.025000 0.200000 0.000000
-0.025000 0.225000 0.000000
-0.025000 0.250000 0.000000
-0.025000 0.275000 0.000000
-0.025000 0.300000 0.000000
-0.025000 0.325000 0.000000
-0.025000 0.350000 0.000000
-0.025000 0.375000 0.000000
-0.025000 0.400000 0.000000
-0.025000 0.425000 0.000000
-0.025000 0.450000 0.000000
-0.025000 0.475000 0.000000
-0.025000 0.500000 0.000000
-0.025000 0.525000 0.000000
-0.025000 0.550000 0.000000
-0.025000 0.575000 0.000000
-0.025000 0.600000 0.000000
0.000000 -0.075000 0.000000
0.000000 -0.050000 0.000000
0.000000 -0.025000 0.000000
0.000000 0.000000 0.000000
0.000000 0.025000 0.000000
0.000000 0.050000 0.000000
0.000000 0.075000 0.000000
0.000000 0.100000 0.000000
0.000000 0.125000 0.000000
0.000000 0.150000 0.000000
0.000000 0.175000 0.000000
0.000000 0.200000 0.000000
0.000000 0.225000 0.000000
0.000000 0.250000 0.000000
0.000000 0.275000 0.000000
0.000000 0.300000 0.000000
0.000000 0.325000 0.000000
0.000000 0.350000 0.000000
0.000000 0.375000 0.000000
0.000000 0.400000 0.000000
0.000000 0.425000 0.000000
0.000000 0.450000 0.000000
0.000000 0.475000 0.000000
0.000000 0.500000 0.000000
0.000000 0.525000 0.000000
0.000000 0.550000 0.000000
0.000000 0.575000 0.000000
0.000000 0.600000 0.000000
0.025000 -0.075000 0.000000
0.025000 -0.050000 0.000000
0.025000 -0.025000 0.000000
0.025000 0.000000 0.000000
0.212269 0.060448 0.000000
0.137524 0.153561 0.000000
0.194006 0.042418 0.000000
0.204810 0.026511 0.000000
0.228871 0.046227 0.000000
0.131317 0.078042 0.000000
0.312387 0.023324 0.000000
0.221120 0.082287 0.000000
0.177360 0.113037 0.000000
0.158302 0.222051 0.000000
0.231772 0.022329 0.000000
0.107143 0.108914 0.000000
0.169556 0.021311 0.000000
0.129822 0.022375 0.000000
0.140877 0.124954 0.000000
0.072704 0.045653 0.000000
0.019547 0.151638 0.000000
0.088950 0.023559 0.000000
0.032277 0.111979 0.000000
0.179919 0.067028 0.000000
0.050000 -0.075000 0.000000
0.050000 -0.050000 0.000000
0.050000 -0.025000 0.000000
0.050000 0.000000 0.000000
0.095843 0.182777 0.000000
0.088894 0.123883 0.000000
0.077282 0.169681 0.000000
0.024454 0.022950 0.000000
0.023828 0.096120 0.000000
0.420474 0.066684 0.000000
0.205526 0.130864 0.000000
0.567505 0.029572 0.000000
0.097238 0.146165 0.000000
0.212837 0.233763 0.000000
0.118384 0.061717 0.000000
0.231575 0.134511 0.000000
0.019610 0.197294 0.000000
0.207989 0.258469 0.000000
0.138801 0.042199 0.000000
0.047797 0.044148 0.000000
0.202724 0.109085 0.000000
0.252537 0.096206 0.000000
0.104673 0.221617 0.000000
0.091773 0.057174 0.000000
0.075000 -0.075000 0.000000
0.075000 -0.050000 0.000000
0.075000 -0.025000 0.000000
0.075000 0.000000 0.000000
0.127687 0.101579 0.000000
0.165664 0.133827 0.000000
0.393289 0.070227 0.000000
0.340283 0.023257 0.000000
0.392230 0.103641 0.000000
0.596294 0.090035 0.000000
0.570505 0.098436 0.000000
0.056374 0.106452 0.000000
0.291636 0.114293 0.000000
0.556162 0.056907 0.000000
0.423534 0.023679 0.000000
0.086056 0.100249 0.000000
0.226959 0.103731 0.000000
0.235763 0.163247 0.000000
0.268815 0.083149 0.000000
0.065114 0.084816 0.000000
0.153581 0.108074 0.000000
0.055610 0.067180 0.000000
0.166901 0.082931 0.000000
0.162367 0.039421 0.000000
0.100000 -0.075000 0.000000
0.100000 -0.050000 0.000000
0.100000 -0.025000 0.000000
0.100000 0.000000 0.000000
0.468270 0.024063 0.000000
0.305180 0.197599 0.000000
0.477968 0.085496 0.000000
0.778876 0.023571 0.000000
0.244973 0.066854 0.000000
0.711453 0.021379 0.000000
0.536599 0.079655 0.000000
0.259113 0.051899 0.000000
0.650683 0.023705 0.000000
0.655199 0.051735 0.000000
0.449657 0.030047 0.000000
0.296606 0.137447 0.000000
0.491023 0.062988 0.000000
0.611364 0.044147 0.000000
0.067255 0.195066 0.000000
0.258554 0.026750 0.000000
0.505552 0.042783 0.000000
0.283481 0.064826 0.000000
0.311407 0.101950 0.000000
0.135921 0.212506 0.000000
0.125000 -0.075000 0.000000
0.125000 -0.050000 0.000000
0.125000 -0.025000 0.000000
0.125000 0.000000 0.000000
0.679686 0.043392 0.000000
0.613119 0.062353 0.000000
0.982238 0.066636 0.000000
0.833862 0.027671 0.000000
0.511628 0.076170 0.000000
0.599211 0.021485 0.000000
0.108615 0.209686 0.000000
0.430710 0.044968 0.000000
0.769615 0.079552 0.000000
0.729737 0.061071 0.000000
0.828975 0.066206 0.000000
0.473000 0.053385 0.000000
0.495975 0.023572 0.000000
0.345817 0.145263 0.000000
0.389703 0.023962 0.000000
0.368872 0.128582 0.000000
0.214277 0.178222 0.000000
0.153024 0.065273 0.000000
0.384151 0.125914 0.000000
0.067578 0.149729 0.000000
0.150000 -0.075000 0.000000
0.150000 -0.050000 0.000000
0.150000 -0.025000 0.000000
0.150000 0.000000 0.000000
0.171303 0.186213 0.000000
0.963892 0.023935 0.000000
0.650565 0.072647 0.000000
0.294059 0.041388 0.000000
0.884073 0.027237 0.000000
0.195313 0.086453 0.000000
0.898014 0.057213 0.000000
0.430228 0.123047 0.000000
0.948228 0.068389 0.000000
0.457640 0.118101 0.000000
0.925190 0.028930 0.000000
0.679320 0.026124 0.000000
0.845265 0.074785 0.000000
0.803566 0.089216 0.000000
0.755841 0.024474 0.000000
0.580700 0.066719 0.000000
0.631683 0.026015 0.000000
0.611960 0.092587 0.000000
0.629311 0.084334 0.000000
0.259654 0.160473 0.000000
0.175000 -0.075000 0.000000
0.175000 -0.050000 0.000000
0.175000 -0.025000 0.000000
0.175000 0.000000 0.000000
0.117997 0.139683 0.000000
0.521687 0.094490 0.000000
0.869559 0.053883 0.000000
0.776897 0.060977 0.000000
0.999645 0.024984 0.000000
0.155978 0.183992 0.000000
0.861335 0.021785 0.000000
0.350777 0.048801 0.000000
0.377565 0.055131 0.000000
0.907803 0.025861 0.000000
0.458207 0.068893 0.000000
0.740805 0.069426 0.000000
0.334522 0.099537 0.000000
0.943698 0.029699 0.000000
0.979754 0.037946 0.000000
0.403264 0.040623 0.000000
1.000005 0.050479 0.000000
0.440405 0.081374 0.000000
0.119615 0.168118 0.000000
0.353665 0.112813 0.000000
0.200000 -0.075000 0.000000
0.200000 -0.050000 0.000000
0.200000 -0.025000 0.000000
0.200000 0.000000 0.000000
0.325695 0.131174 0.000000
0.108310 0.033628 0.000000
0.268075 0.114345 0.000000
0.806818 0.024419 0.000000
0.361229 0.070682 0.000000
0.288846 0.181850 0.000000
0.586886 0.041858 0.000000
0.975687 0.077374 0.000000
0.330627 0.149269 0.000000
0.058567 0.126658 0.000000
0.788545 0.049236 0.000000
0.649447 0.088613 0.000000
0.058471 0.021967 0.000000
0.432251 0.143487 0.000000
0.522562 0.029017 0.000000
0.185362 0.214652 0.000000
0.697336 0.064340 0.000000
0.340397 0.182758 0.000000
0.843637 0.046608 0.000000
0.684313 0.069382 0.000000
0.225000 -0.075000 0.000000
0.225000 -0.050000 0.000000
0.225000 -0.025000 0.000000
0.225000 0.000000 0.000000
0.314259 0.063281 0.000000
0.811627 0.045171 0.000000
0.513738 0.111537 0.000000
0.233226 0.248196 0.000000
0.043654 0.185569 0.000000
0.082430 0.221641 0.000000
0.405651 0.120248 0.000000
0.878626 0.067217 0.000000
0.537015 0.052379 0.000000
0.037002 0.145909 0.000000
0.559306 0.083702 0.000000
0.188214 0.260419 0.000000
0.366378 0.026179 0.000000
0.411699 0.086813 0.000000
0.098559 0.077645 0.000000
0.196691 0.171394 0.000000
0.489528 0.106043 0.000000
0.024215 0.049297 0.000000
0.247610 0.128322 0.000000
0.326782 0.045247 0.000000
0.250000 -0.075000 0.000000
0.250000 -0.050000 0.000000
0.250000 -0.025000 0.000000
0.250000 0.000000 0.000000
0.725960 0.031192 0.000000
0.317499 0.193327 0.000000
0.212922 0.208089 0.000000
0.297455 0.084166 0.000000
0.280429 0.025146 0.000000
0.305517 0.163681 0.000000
0.135347 0.176486 0.000000
0.261345 0.177150 0.000000
0.250960 0.194366 0.000000
0.443534 0.100801 0.000000
0.198191 0.152007 0.000000
0.050004 0.165739 0.000000
0.173961 0.150495 0.000000
0.545529 0.021966 0.000000
0.368222 0.090427 0.000000
0.331935 0.078888 0.000000
0.278592 0.140026 0.000000
0.746321 0.046582 0.000000
0.027948 0.072121 0.000000
0.480811 0.119509 0.000000
0.275000 -0.075000 0.000000
0.275000 -0.050000 0.000000
0.275000 -0.025000 0.000000
0.275000 0.000000 0.000000
0.300000 -0.075000 0.000000
0.300000 -0.050000 0.000000
0.300000 -0.025000 0.000000
0.300000 0.000000 0.000000
0.325000 -0.075000 0.000000
0.325000 -0.050000 0.000000
0.325000 -0.025000 0.000000
0.325000 0.000000 0.000000
0.350000 -0.075000 0.000000
0.350000 -0.050000 0.000000
0.350000 -0.025000 0.000000
0.350000 0.000000 0.000000
0.375000 -0.075000 0.000000
0.375000 -0.050000 0.000000
0.375000 -0.025000 0.000000
0.375000 0.000000 0.000000
0.400000 -0.075000 0.000000
0.400000 -0.050000 0.000000
0.400000 -0.025000 0.000000
0.400000 0.000000 0.000000
0.425000 -0.075000 0.000000
0.425000 -0.050000 0.000000
0.425000 -0.025000 0.000000
0.425000 0.000000 0.000000
0.450000 -0.075000 0.000000
0.450000 -0.050000 0.000000
0.450000 -0.025000 0.000000
0.450000 0.000000 0.000000
0.475000 -0.075000 0.000000
0.475000 -0.050000 0.000000
0.475000 -0.025000 0.000000
0.475000 0.000000 0.000000
0.500000 -0.075000 0.000000
0.500000 -0.050000 0.000000
0.500000 -0.025000 0.000000
0.500000 0.000000 0.000000
0.525000 -0.075000 0.000000
0.525000 -0.050000 0.000000
0.525000 -0.025000 0.000000
0.525000 0.000000 0.000000
0.550000 -0.075000 0.000000
0.550000 -0.050000 0.000000
0.550000 -0.025000 0.000000
0.550000 0.000000 0.000000
0.575000 -0.075000 0.000000
0.575000 -0.050000 0.000000
0.575000 -0.025000 0.000000
0.575000 0.000000 0.000000
0.600000 -0.075000 0.000000
0.600000 -0.050000 0.000000
0.600000 -0.025000 0.000000
0.600000 0.000000 0.000000
0.625000 -0.075000 0.000000
0.625000 -0.050000 0.000000
0.625000 -0.025000 0.000000
0.625000 0.000000 0.000000
0.650000 -0.075000 0.000000
0.650000 -0.050000 0.000000
0.650000 -0.025000 0.000000
0.650000 0.000000 0.000000
0.675000 -0.075000 0.000000
0.675000 -0.050000 0.000000
0.675000 -0.025000 0.000000
0.675000 0.000000 0.000000
0.700000 -0.075000 0.000000
0.700000 -0.050000 0.000000
0.700000 -0.025000 0.000000
0.700000 0.000000 0.000000
0.725000 -0.075000 0.000000
0.725000 -0.050000 0.000000
0.725000 -0.025000 0.000000
0.725000 0.000000 0.000000
0.750000 -0.075000 0.000000
0.750000 -0.050000 0.000000
0.750000 -0.025000 0.000000
0.750000 0.000000 0.000000
0.775000 -0.075000 0.000000
0.775000 -0.050000 0.000000
0.775000 -0.025000 0.000000
0.775000 0.000000 0.000000
0.800000 -0.075000 0.000000
0.800000 -0.050000 0.000000
0.800000 -0.025000 0.000000
0.800000 0.000000 0.000000
0.825000 -0.075000 0.000000
0.825000 -0.050000 0.000000
0.825000 -0.025000 0.000000
0.825000 0.000000 0.000000
0.850000 -0.075000 0.000000
0.850000 -0.050000 0.000000
0.850000 -0.025000 0.000000
0.850000 0.000000 0.000000
0.875000 -0.075000 0.000000
0.875000 -0.050000 0.000000
0.875000 -0.025000 0.000000
0.875000 0.000000 0.000000
0.900000 -0.075000 0.000000
0.900000 -0.050000 0.000000
0.900000 -0.025000 0.000000
0.900000 0.000000 0.000000
0.925000 -0.075000 0.000000
0.925000 -0.050000 0.000000
0.925000 -0.025000 0.000000
0.925000 0.000000 0.000000
0.950000 -0.075000 0.000000
0.950000 -0.050000 0.000000
0.950000 -0.025000 0.000000
0.950000 0.000000 0.000000
0.975000 -0.075000 0.000000
0.975000 -0.050000 0.000000
0.975000 -0.025000 0.000000
0.975000 0.000000 0.000000
1.000000 -0.075000 0.000000
1.000000 -0.050000 0.000000
1.000000 -0.025000 0.000000
1.000000 0.000000 0.000000
1.025000 -0.075000 0.000000
1.025000 -0.050000 0.000000
1.025000 -0.025000 0.000000
1.025000 0.000000 0.000000
1.025000 0.025000 0.000000
1.025000 0.050000 0.000000
1.025000 0.075000 0.000000
1.025000 0.100000 0.000000
1.025000 0.125000 0.000000
1.025000 0.150000 0.000000
1.025000 0.175000 0.000000
1.025000 0.200000 0.000000
1.025000 0.225000 0.000000
1.025000 0.250000 0.000000
1.025000 0.275000 0.000000
1.025000 0.300000 0.000000
1.025000 0.325000 0.000000
1.025000 0.350000 0.000000
1.025000 0.375000 0.000000
1.025000 0.400000 0.000000
1.025000 0.425000 0.000000
1.025000 0.450000 0.000000
1.025000 0.475000 0.000000
1.025000 0.500000 0.000000
1.025000 0.525000 0.000000
1.025000 0.550000 0.000000
1.025000 0.575000 0.000000
1.025000 0.600000 0.000000
1.050000 -0.075000 0.000000
1.050000 -0.050000 0.000000
1.050000 -0.025000 0.000000
1.050000 0.000000 0.000000
1.050000 0.025000 0.000000
1.050000 0.050000 0.000000
1.050000 0.075000 0.000000
1.050000 0.100000 0.000000
1.050000 0.125000 0.000000
1.050000 0.150000 0.000000
1.050000 0.175000 0.000000
1.050000 0.200000 0.000000
1.050000 0.225000 0.000000
1.050000 0.250000 0.000000
1.050000 0.275000 0.000000
1.050000 0.300000 0.000000
1.050000 0.325000 0.000000
1.050000 0.350000 0.000000
1.050000 0.375000 0.000000
1.050000 0.400000 0.000000
1.050000 0.425000 0.000000
1.050000 0.450000 0.000000
1.050000 0.475000 0.000000
1.050000 0.500000 0.000000
1.050000 0.525000 0.000000
1.050000 0.550000 0.000000
1.050000 0.575000 0.000000
1.050000 0.600000 0.000000
1.075000 -0.075000 0.000000
1.075000 -0.050000 0.000000
1.075000 -0.025000 0.000000
1.075000 0.000000 0.000000
1.075000 0.025000 0.000000
1.075000 0.050000 0.000000
1.075000 0.075000 0.000000
1.075000 0.100000 0.000000
1.075000 0.125000 0.000000
1.075000 0.150000 0.000000
1.075000 0.175000 0.000000
1.075000 0.200000 0.000000
1.075000 0.225000 0.000000
1.075000 0.250000 0.000000
1.075000 0.275000 0.000000
1.075000 0.300000 0.000000
1.075000 0.325000 0.000000
1.075000 0.350000 0.000000
1.075000 0.375000 0.000000
1.075000 0.400000 0.000000
1.075000 0.425000 0.000000
1.075000 0.450000 0.000000
1.075000 0.475000 0.000000
1.075000 0.500000 0.000000
1.075000 0.525000 0.000000
1.075000 0.550000 0.000000
1.075000 0.575000 0.000000
1.075000 0.600000 0.000000
1.100000 -0.075000 0.000000
1.100000 -0.050000 0.000000
1.100000 -0.025000 0.000000
1.100000 0.000000 0.000000
1.100000 0.025000 0.000000
1.100000 0.050000 0.000000
1.100000 0.075000 0.000000
1.100000 0.100000 0.000000
1.100000 0.125000 0.000000
1.100000 0.150000 0.000000
1.100000 0.175000 0.000000
1.100000 0.200000 0.000000
1.100000 0.225000 0.000000
1.100000 0.250000 0.000000
1.100000 0.275000 0.000000
1.100000 0.300000 0.000000
1.100000 0.325000 0.000000
1.100000 0.350000 0.000000
1.100000 0.375000 0.000000
1.100000 0.400000 0.000000
1.100000 0.425000 0.000000
1.100000 0.450000 0.000000
1.100000 0.475000 0.000000
1.100000 0.500000 0.000000
1.100000 0.525000 0.000000
1.100000 0.550000 0.000000
1.100000 0.575000 0.000000
1.100000 0.600000 0.000000
</DataArray>
</Points>
<PointData>
<DataArray NumberOfComponents='1' type='Int32' Name='ParticleType' format='ascii'>
3
3
3
3
3
3
3
3
3
3
3
3
3
3
3
3
3
3
3
3
3
3
3
3
3
3
2
2
3
3
3
3
3
3
3
3
3
3
3
3
3
3
3
3
3
3
3
3
3
3
3
3
3
3
2
2
3
3
2
2
2
2
2
2
2
2
2
2
2
2
2
2
2
2
2
2
2
2
2
2
2
2
2
2
3
3
2
2
2
2
2
2
2
2
2
2
2
2
2
2
2
2
2
2
2
2
2
2
2
2
2
2
3
3
2
2
0
0
0
0
0
0
0
0
0
0
0
0
0
0
0
0
0
0
0
0
3
3
2
2
0
0
0
0
0
0
0
0
0
0
0
0
0
0
0
0
0
0
0
0
3
3
2
2
0
0
0
0
0
0
0
0
0
0
0
0
0
0
0
0
0
0
0
0
3
3
2
2
0
0
0
0
0
0
0
0
0
0
0
0
0
0
0
0
0
0
0
0
3
3
2
2
0
0
0
0
0
0
0
0
0
0
0
0
0
0
0
0
0
0
0
0
3
3
2
2
0
0
0
0
0
0
0
0
0
0
0
0
0
0
0
0
0
0
0
0
3
3
2
2
0
0
0
0
0
0
0
0
0
0
0
0
0
0
0
0
0
0
0
0
3
3
2
2
0
0
0
0
0
0
0
0
0
0
0
0
0
0
0
0
0
0
0
0
3
3
2
2
0
0
0
0
0
0
0
0
0
0
0
0
0
0
0
0
0
0
0
0
3
3
2
2
0
0
0
0
0
0
0
0
0
0
0
0
0
0
0
0
0
0
0
0
3
3
2
2
3
3
2
2
3
3
2
2
3
3
2
2
3
3
2
2
3
3
2
2
3
3
2
2
3
3
2
2
3
3
2
2
3
3
2
2
3
3
2
2
3
3
2
2
3
3
2
2
3
3
2
2
3
3
2
2
3
3
2
2
3
3
2
2
3
3
2
2
3
3
2
2
3
3
2
2
3
3
2
2
3
3
2
2
3
3
2
2
3
3
2
2
3
3
2
2
3
3
2
2
3
3
2
2
3
3
2
2
3
3
2
2
3
3
2
2
3
3
2
2
2
2
2
2
2
2
2
2
2
2
2
2
2
2
2
2
2
2
2
2
2
2
2
2
3
3
2
2
2
2
2
2
2
2
2
2
2
2
2
2
2
2
2
2
2
2
2
2
2
2
2
2
3
3
3
3
3
3
3
3
3
3
3
3
3
3
3
3
3
3
3
3
3
3
3
3
3
3
2
2
3
3
3
3
3
3
3
3
3
3
3
3
3
3
3
3
3
3
3
3
3
3
3
3
3
3
2
2
</DataArray>
<DataArray NumberOfComponents='1' type='Float32' Name='Velocity' format='ascii'>
0.000000
0.000000
0.000000
0.000000
0.000000
0.000000
0.000000
0.000000
0.000000
0.000000
0.000000
0.000000
0.000000
0.000000
0.000000
0.000000
0.000000
0.000000
0.000000
0.000000
0.000000
0.000000
0.000000
0.000000
0.000000
0.000000
0.000000
0.000000
0.000000
0.000000
0.000000
0.000000
0.000000
0.000000
0.000000
0.000000
0.000000
0.000000
0.000000
0.000000
0.000000
0.000000
0.000000
0.000000
0.000000
0.000000
0.000000
0.000000
0.000000
0.000000
0.000000
0.000000
0.000000
0.000000
0.000000
0.000000
0.000000
0.000000
0.000000
0.000000
0.000000
0.000000
0.000000
0.000000
0.000000
0.000000
0.000000
0.000000
0.000000
0.000000
0.000000
0.000000
0.000000
0.000000
0.000000
0.000000
0.000000
0.000000
0.000000
0.000000
0.000000
0.000000
0.000000
0.000000
0.000000
0.000000
0.000000
0.000000
0.000000
0.000000
0.000000
0.000000
0.000000
0.000000
0.000000
0.000000
0.000000
0.000000
0.000000
0.000000
0.000000
0.000000
0.000000
0.000000
0.000000
0.000000
0.000000
0.000000
0.000000
0.000000
0.000000
0.000000
0.000000
0.000000
0.000000
0.000000
0.548772
0.165853
0.583086
0.412798
0.494780
0.403315
0.342664
0.674192
0.389824
0.733046
0.214150
0.628044
0.353425
0.453388
0.350483
0.204868
0.141750
0.304938
0.337915
0.353800
0.000000
0.000000
0.000000
0.000000
0.319526
0.802947
0.221690
0.108303
0.322889
0.175139
0.210651
0.297823
0.365315
0.422762
0.644080
0.520414
0.735094
0.723077
0.460587
0.164652
0.329377
0.418477
0.330283
0.074212
0.000000
0.000000
0.000000
0.000000
0.654078
0.371790
0.516258
0.270816
0.328347
0.666728
0.603094
0.195293
0.130963
0.253583
0.326019
0.217162
0.348209
0.318251
0.373922
0.410253
0.182607
0.200867
0.590131
0.745834
0.000000
0.000000
0.000000
0.000000
0.382804
0.616697
0.628664
0.093894
0.115293
0.201601
0.345801
0.583746
0.093304
0.191242
0.080532
0.424794
0.284362
0.049971
0.461437
0.405758
0.449299
0.353246
0.213163
0.185361
0.000000
0.000000
0.000000
0.000000
0.082899
0.424352
0.127381
0.204238
0.133754
0.136347
0.369493
0.303025
0.244536
0.120280
0.183378
0.267367
0.260740
0.209279
0.201715
0.256674
0.211921
0.555551
0.075037
0.262578
0.000000
0.000000
0.000000
0.000000
0.089794
0.116178
0.275943
0.594574
0.186225
0.059392
0.055195
0.614476
0.105923
0.298943
0.283866
0.057036
0.313936
0.092728
0.221301
0.368034
0.182296
0.256773
0.635316
0.427331
0.000000
0.000000
0.000000
0.000000
0.143898
0.068440
0.246766
0.205744
0.261829
0.313211
0.114613
0.391044
0.289510
0.204854
0.129846
0.228077
0.381361
0.111676
0.140758
0.176013
0.186609
0.267154
0.414983
0.275464
0.000000
0.000000
0.000000
0.000000
0.148956
0.438580
0.289553
0.323055
0.363162
0.773851
0.102076
0.195043
0.215139
0.858026
0.128945
0.547170
0.271160
0.662513
0.319746
0.407377
0.093205
0.724877
0.044382
0.328431
0.000000
0.000000
0.000000
0.000000
0.365688
0.105738
0.210687
0.711127
0.416694
0.164414
0.470353
0.080108
0.353594
0.397963
0.284651
1.784088
0.537936
0.301551
0.685082
0.403663
0.062131
0.432333
0.349766
0.370531
0.000000
0.000000
0.000000
0.000000
0.070823
0.440646
0.362643
0.399794
0.321182
0.489067
0.432753
0.306534
0.424435
0.141014
0.583960
0.599915
0.247778
0.176752
0.548790
0.553469
0.363912
0.126085
0.150830
0.214986
0.000000
0.000000
0.000000
0.000000
0.000000
0.000000
0.000000
0.000000
0.000000
0.000000
0.000000
0.000000
0.000000
0.000000
0.000000
0.000000
0.000000
0.000000
0.000000
0.000000
0.000000
0.000000
0.000000
0.000000
0.000000
0.000000
0.000000
0.000000
0.000000
0.000000
0.000000
0.000000
0.000000
0.000000
0.000000
0.000000
0.000000
0.000000
0.000000
0.000000
0.000000
0.000000
0.000000
0.000000
0.000000
0.000000
0.000000
0.000000
0.000000
0.000000
0.000000
0.000000
0.000000
0.000000
0.000000
0.000000
0.000000
0.000000
0.000000
0.000000
0.000000
0.000000
0.000000
0.000000
0.000000
0.000000
0.000000
0.000000
0.000000
0.000000
0.000000
0.000000
0.000000
0.000000
0.000000
0.000000
0.000000
0.000000
0.000000
0.000000
0.000000
0.000000
0.000000
0.000000
0.000000
0.000000
0.000000
0.000000
0.000000
0.000000
0.000000
0.000000
0.000000
0.000000
0.000000
0.000000
0.000000
0.000000
0.000000
0.000000
0.000000
0.000000
0.000000
0.000000
0.000000
0.000000
0.000000
0.000000
0.000000
0.000000
0.000000
0.000000
0.000000
0.000000
0.000000
0.000000
0.000000
0.000000
0.000000
0.000000
0.000000
0.000000
0.000000
0.000000
0.000000
0.000000
0.000000
0.000000
0.000000
0.000000
0.000000
0.000000
0.000000
0.000000
0.000000
0.000000
0.000000
0.000000
0.000000
0.000000
0.000000
0.000000
0.000000
0.000000
0.000000
0.000000
0.000000
0.000000
0.000000
0.000000
0.000000
0.000000
0.000000
0.000000
0.000000
0.000000
0.000000
0.000000
0.000000
0.000000
0.000000
0.000000
0.000000
0.000000
0.000000
0.000000
0.000000
0.000000
0.000000
0.000000
0.000000
0.000000
0.000000
0.000000
0.000000
0.000000
0.000000
0.000000
0.000000
0.000000
0.000000
0.000000
0.000000
0.000000
0.000000
0.000000
0.000000
0.000000
0.000000
0.000000
0.000000
0.000000
0.000000
0.000000
0.000000
0.000000
0.000000
0.000000
0.000000
0.000000
0.000000
0.000000
0.000000
0.000000
0.000000
0.000000
0.000000
0.000000
0.000000
0.000000
0.000000
0.000000
0.000000
0.000000
0.000000
0.000000
0.000000
0.000000
0.000000
0.000000
0.000000
0.000000
0.000000
0.000000
0.000000
0.000000
0.000000
0.000000
0.000000
0.000000
0.000000
0.000000
</DataArray>
<DataArray NumberOfComponents='1' type='Float32' Name='pressure' format='ascii'>
0.000000
0.000000
0.000000
0.000000
0.000000
0.000000
0.000000
0.000000
0.000000
0.000000
0.000000
0.000000
0.000000
0.000000
0.000000
0.000000
0.000000
0.000000
0.000000
0.000000
0.000000
0.000000
0.000000
0.000000
0.000000
0.000000
0.000000
0.000000
0.000000
0.000000
0.000000
0.000000
0.000000
0.000000
0.000000
0.000000
0.000000
0.000000
0.000000
0.000000
0.000000
0.000000
0.000000
0.000000
0.000000
0.000000
0.000000
0.000000
0.000000
0.000000
0.000000
0.000000
0.000000
0.000000
0.000000
0.000000
0.000000
0.000000
4074.300293
3839.365234
3416.452148
2559.492920
624.908203
1207.083252
521.839355
3384.933594
2151.238281
2787.072998
0.000000
0.000000
0.000000
0.000000
0.000000
0.000000
0.000000
0.000000
0.000000
0.000000
0.000000
0.000000
0.000000
0.000000
0.000000
0.000000
0.000000
0.000000
4132.081055
4765.329590
3744.374023
2917.992188
783.854126
0.000000
0.000000
1614.757690
0.000000
0.000000
0.000000
0.000000
0.000000
0.000000
0.000000
0.000000
0.000000
0.000000
0.000000
0.000000
0.000000
0.000000
0.000000
0.000000
0.000000
0.000000
0.000000
0.000000
4636.187988
4436.145996
1680.989014
434.205536
0.000000
0.000000
1022.181091
815.385925
871.347351
514.405884
0.000000
0.000000
1874.321167
1540.978760
1913.123779
2070.925049
1082.168945
1392.377075
988.177795
1344.517944
0.000000
1021.081055
0.000000
0.000000
4211.546875
3052.612061
0.000000
257.167297
0.000000
1285.888550
1999.329834
1507.182617
67.089409
0.000000
0.000000
0.000000
1542.384277
0.000000
0.000000
0.000000
1172.873657
2505.355713
2021.103271
442.052246
0.000000
1535.381836
0.000000
0.000000
3489.269287
2109.623047
0.000000
635.155029
102.934196
1824.462524
1265.545776
0.000000
0.000000
1466.967285
424.379425
1354.048706
1544.734375
834.310974
955.711426
0.000000
1207.463379
1314.991821
1742.801147
1170.221680
968.619690
1305.017456
0.000000
0.000000
2427.990234
1297.447021
2061.649902
0.000000
0.000000
0.000000
873.382080
1339.669922
359.971680
735.872314
838.864746
0.000000
1052.286255
0.000000
2272.607422
1121.875488
0.000000
308.065765
1288.991089
208.347961
767.090515
0.000000
0.000000
0.000000
2883.683350
2227.120117
435.039703
521.458130
0.000000
0.000000
1595.839844
984.883606
0.000000
1109.197144
0.000000
0.000000
0.000000
1162.767090
2239.524902
0.000000
1924.646118
0.000000
0.000000
1276.746460
0.000000
1457.131592
0.000000
0.000000
1990.249878
565.719116
0.000000
0.000000
518.307617
516.354248
0.000000
695.258911
0.000000
0.000000
0.000000
0.000000
0.000000
1065.079224
0.000000
0.000000
0.000000
0.000000
0.000000
0.000000
0.000000
554.520691
0.000000
0.000000
2453.158691
1359.042969
1007.819031
0.000000
0.000000
0.000000
382.567871
0.000000
0.000000
485.242767
1329.083130
0.000000
24.782194
0.000000
456.269287
0.000000
94.414299
915.255798
0.000000
1564.410278
1253.404541
1127.285889
0.000000
0.000000
385.160217
0.000000
281.429138
686.362000
778.303650
770.901611
1605.327881
0.000000
1033.284790
0.000000
453.116486
723.419739
0.000000
0.000000
1612.254395
0.000000
1878.156006
0.000000
0.000000
0.000000
662.064148
0.000000
0.000000
0.000000
1579.441772
1469.417114
1500.600464
0.000000
0.000000
0.000000
0.000000
0.000000
0.000000
0.000000
785.664856
680.336914
0.000000
0.000000
660.890320
0.000000
13.225947
0.000000
194.973724
2645.009521
209.557495
1476.841675
0.000000
0.000000
692.236877
174.070175
266.634583
0.000000
0.000000
917.705322
1507.712402
0.000000
760.920227
0.000000
0.000000
648.149475
1180.342407
1356.356567
0.000000
2068.090820
492.574677
0.000000
0.000000
1107.735596
0.000000
0.000000
0.000000
0.000000
935.770996
1181.430420
0.000000
0.000000
1435.434692
899.632385
0.000000
0.000000
2363.884277
1869.359497
0.000000
0.000000
2143.720703
2723.197754
0.000000
0.000000
1552.565308
1287.999146
0.000000
0.000000
1554.391968
1363.039185
0.000000
0.000000
1876.364014
1805.653687
0.000000
0.000000
763.951050
711.504883
0.000000
0.000000
1867.841431
1533.139648
0.000000
0.000000
2424.739990
2864.898926
0.000000
0.000000
1642.686768
1555.339600
0.000000
0.000000
2791.774414
2367.039795
0.000000
0.000000
1041.731079
0.000000
0.000000
0.000000
3071.244629
3221.419434
0.000000
0.000000
1405.653320
2008.011719
0.000000
0.000000
1966.282959
2349.505371
0.000000
0.000000
865.440308
0.000000
0.000000
0.000000
1961.766479
1140.947021
0.000000
0.000000
1665.468872
846.194641
0.000000
0.000000
907.339966
784.892578
0.000000
0.000000
831.261292
1290.259399
0.000000
0.000000
0.000000
0.000000
0.000000
0.000000
0.000000
0.000000
0.000000
0.000000
256.798584
0.000000
0.000000
0.000000
278.313721
528.648560
0.000000
0.000000
0.000000
297.146820
0.000000
0.000000
0.000000
871.590332
0.000000
0.000000
0.000000
12.474404
0.000000
0.000000
0.000000
0.000000
0.000000
0.000000
0.000000
0.000000
0.000000
0.000000
0.000000
0.000000
0.000000
0.000000
0.000000
0.000000
0.000000
0.000000
0.000000
0.000000
0.000000
0.000000
0.000000
0.000000
0.000000
0.000000
0.000000
0.000000
0.000000
0.000000
0.000000
0.000000
0.000000
0.000000
0.000000
0.000000
0.000000
0.000000
0.000000
0.000000
0.000000
0.000000
0.000000
0.000000
0.000000
0.000000
0.000000
0.000000
0.000000
0.000000
0.000000
0.000000
0.000000
0.000000
0.000000
0.000000
0.000000
0.000000
0.000000
0.000000
0.000000
0.000000
0.000000
0.000000
0.000000
0.000000
0.000000
0.000000
0.000000
0.000000
0.000000
0.000000
0.000000
0.000000
0.000000
0.000000
0.000000
0.000000
0.000000
0.000000
0.000000
0.000000
0.000000
0.000000
0.000000
0.000000
0.000000
0.000000
0.000000
0.000000
0.000000
0.000000
0.000000
0.000000
0.000000
0.000000
0.000000
0.000000
0.000000
0.000000
0.000000
0.000000
0.000000
0.000000
0.000000
0.000000
0.000000
0.000000
0.000000
0.000000
0.000000
0.000000
0.000000
0.000000
0.000000
0.000000
0.000000
0.000000
0.000000
0.000000
</DataArray>
</PointData>
<Cells>
<DataArray type='Int32' Name='connectivity' format='ascii'>
0
1
2
3
4
5
6
7
8
9
10
11
12
13
14
15
16
17
18
19
20
21
22
23
24
25
26
27
28
29
30
31
32
33
34
35
36
37
38
39
40
41
42
43
44
45
46
47
48
49
50
51
52
53
54
55
56
57
58
59
60
61
62
63
64
65
66
67
68
69
70
71
72
73
74
75
76
77
78
79
80
81
82
83
84
85
86
87
88
89
90
91
92
93
94
95
96
97
98
99
100
101
102
103
104
105
106
107
108
109
110
111
112
113
114
115
116
117
118
119
120
121
122
123
124
125
126
127
128
129
130
131
132
133
134
135
136
137
138
139
140
141
142
143
144
145
146
147
148
149
150
151
152
153
154
155
156
157
158
159
160
161
162
163
164
165
166
167
168
169
170
171
172
173
174
175
176
177
178
179
180
181
182
183
184
185
186
187
188
189
190
191
192
193
194
195
196
197
198
199
200
201
202
203
204
205
206
207
208
209
210
211
212
213
214
215
216
217
218
219
220
221
222
223
224
225
226
227
228
229
230
231
232
233
234
235
236
237
238
239
240
241
242
243
244
245
246
247
248
249
250
251
252
253
254
255
256
257
258
259
260
261
262
263
264
265
266
267
268
269
270
271
272
273
274
275
276
277
278
279
280
281
282
283
284
285
286
287
288
289
290
291
292
293
294
295
296
297
298
299
300
301
302
303
304
305
306
307
308
309
310
311
312