<?xml version='1.0' encoding='UTF-8'?>
<VTKFile xmlns='VTK' byte_order='LittleEndian' version='0.1' type='UnstructuredGrid'>
<UnstructuredGrid>
<Piece NumberOfCells='584' NumberOfPoints='584'>
<Points>
<DataArray NumberOfComponents='3' type='Float32' Name='Position' format='ascii'>
-0.075000 -0.075000 0.000000
-0.075000 -0.050000 0.000000
-0.075000 -0.025000 0.000000
-0.075000 0.000000 0.000000
-0.075000 0.025000 0.000000
-0.075000 0.050000 0.000000
-0.075000 0.075000 0.000000
-0.075000 0.100000 0.000000
-0.075000 0.125000 0.000000
-0.075000 0.150000 0.000000
-0.075000 0.175000 0.000000
-0.075000 0.200000 0.000000
-0.075000 0.225000 0.000000
-0.075000 0.250000 0.000000
-0.075000 0.275000 0.000000
-0.075000 0.300000 0.000000
-0.075000 0.325000 0.000000
-0.075000 0.350000 0.000000
-0.075000 0.375000 0.000000
-0.075000 0.400000 0.000000
-0.075000 0.425000 0.000000
-0.075000 0.450000 0.000000
-0.075000 0.475000 0.000000
-0.075000 0.500000 0.000000
-0.075000 0.525000 0.000000
-0.075000 0.550000 0.000000
-0.075000 0.575000 0.000000
-0.075000 0.600000 0.000000
-0.050000 -0.075000 0.000000
-0.050000 -0.050000 0.000000
-0.050000 -0.025000 0.000000
-0.050000 0.000000 0.000000
-0.050000 0.025000 0.000000
-0.050000 0.050000 0.000000
-0.050000 0.075000 0.000000
-0.050000 0.100000 0.000000
-0.050000 0.125000 0.000000
-0.050000 0.150000 0.000000
-0.050000 0.175000 0.000000
-0.050000 0.200000 0.000000
-0.050000 0.225000 0.000000
-0.050000 0.250000 0.000000
-0.050000 0.275000 0.000000
-0.050000 0.300000 0.000000
-0.050000 0.325000 0.000000
-0.050000 0.350000 0.000000
-0.050000 0.375000 0.000000
-0.050000 0.400000 0.000000
-0.050000 0.425000 0.000000
-0.050000 0.450000 0.000000
-0.050000 0.475000 0.000000
-0.050000 0.500000 0.000000
-0.050000 0.525000 0.000000
-0.050000 0.550000 0.000000
-0.050000 0.575000 0.000000
-0.050000 0.600000 0.000000
-0.025000 -0.075000 0.000000
-0.025000 -0.050000 0.000000
-0.025000 -0.025000 0.000000
-0.025000 0.000000 0.000000
-0.025000 0.025000 0.000000
-0.025000 0.050000 0.000000
-0.025000 0.075000 0.000000
-0.025000 0.100000 0.000000
-0.025000 0.125000 0.000000
-0.025000 0.150000 0.000000
-0.025000 0.175000 0.000000
-0.025000 0.200000 0.000000
-0.025000 0.225000 0.000000
-0.025000 0.250000 0.000000
-0.025000 0.275000 0.000000
-0.025000 0.300000 0.000000
-0.025000 0.325000 0.000000
-0.025000 0.350000 0.000000
-0.025000 0.375000 0.000000
-0.025000 0.400000 0.000000
-0.025000 0.425000 0.000000
-0.025000 0.450000 0.000000
-0.025000 0.475000 0.000000
-0.025000 0.500000 0.000000
-0.025000 0.525000 0.000000
-0.025000 0.550000 0.000000
-0.025000 0.575000 0.000000
-0.025000 0.600000 0.000000
0.000000 -0.075000 0.000000
0.000000 -0.050000 0.000000
0.000000 -0.025000 0.000000
0.000000 0.000000 0.000000
0.000000 0.025000 0.000000
0.000000 0.050000 0.000000
0.000000 0.075000 0.000000
0.000000 0.100000 0.000000
0.000000 0.125000 0.000000
0.000000 0.150000 0.000000
0.000000 0.175000 0.000000
0.000000 0.200000 0.000000
0.000000 0.225000 0.000000
0.000000 0.250000 0.000000
0.000000 0.275000 0.000000
0.000000 0.300000 0.000000
0.000000 0.325000 0.000000
0.000000 0.350000 0.000000
0.000000 0.375000 0.000000
0.000000 0.400000 0.000000
0.000000 0.425000 0.000000
0.000000 0.450000 0.000000
0.000000 0.475000 0.000000
0.000000 0.500000 0.000000
0.000000 0.525000 0.000000
0.000000 0.550000 0.000000
0.000000 0.575000 0.000000
0.000000 0.600000 0.000000
0.025000 -0.075000 0.000000
0.025000 -0.050000 0.000000
0.025000 -0.025000 0.000000
0.025000 0.000000 0.000000
0.254529 0.073819 0.000000
0.154674 0.129812 0.000000
0.252345 0.046346 0.000000
0.231863 0.023272 0.000000
0.274185 0.050722 0.000000
0.173538 0.056834 0.000000
0.349437 0.025146 0.000000
0.271087 0.094888 0.000000
0.215375 0.109368 0.000000
0.156192 0.189858 0.000000
0.260249 0.025300 0.000000
0.154206 0.073845 0.000000
0.203569 0.024768 0.000000
0.177179 0.023531 0.000000
0.144164 0.105149 0.000000
0.093717 0.037314 0.000000
0.027082 0.136693 0.000000
0.112659 0.025538 0.000000
0.048746 0.094219 0.000000
0.231902 0.068366 0.000000
0.050000 -0.075000 0.000000
0.050000 -0.050000 0.000000
0.050000 -0.025000 0.000000
0.050000 0.000000 0.000000
0.117861 0.175843 0.000000
0.134450 0.081132 0.000000
0.087412 0.134560 0.000000
0.043081 0.023126 0.000000
0.025270 0.078590 0.000000
0.435939 0.076802 0.000000
0.231560 0.132911 0.000000
0.600562 0.024051 0.000000
0.099369 0.109986 0.000000
0.265367 0.211205 0.000000
0.159574 0.034109 0.000000
0.264482 0.141801 0.000000
0.033962 0.155257 0.000000
0.284975 0.217594 0.000000
0.197065 0.047709 0.000000
0.057308 0.041618 0.000000
0.248487 0.096814 0.000000
0.295783 0.090182 0.000000
0.091017 0.176544 0.000000
0.119757 0.060183 0.000000
0.075000 -0.075000 0.000000
0.075000 -0.050000 0.000000
0.075000 -0.025000 0.000000
0.075000 0.000000 0.000000
0.179075 0.079135 0.000000
0.180125 0.126511 0.000000
0.415899 0.112761 0.000000
0.377911 0.025244 0.000000
0.421075 0.143578 0.000000
0.549193 0.120914 0.000000
0.535508 0.098282 0.000000
0.078887 0.073449 0.000000
0.323807 0.091594 0.000000
0.571415 0.041475 0.000000
0.451747 0.022594 0.000000
0.109531 0.077024 0.000000
0.262076 0.116530 0.000000
0.259303 0.161325 0.000000
0.318901 0.073635 0.000000
0.076172 0.053968 0.000000
0.167360 0.108339 0.000000
0.045658 0.072115 0.000000
0.193075 0.101059 0.000000
0.223436 0.044595 0.000000
0.100000 -0.075000 0.000000
0.100000 -0.050000 0.000000
0.100000 -0.025000 0.000000
0.100000 0.000000 0.000000
0.497151 0.023905 0.000000
0.355441 0.206877 0.000000
0.476874 0.118097 0.000000
0.781089 0.022062 0.000000
0.291933 0.066572 0.000000
0.713734 0.029237 0.000000
0.548029 0.058036 0.000000
0.297857 0.045025 0.000000
0.664733 0.020724 0.000000
0.667635 0.044764 0.000000
0.476133 0.029166 0.000000
0.328977 0.118102 0.000000
0.488345 0.103335 0.000000
0.630018 0.055383 0.000000
0.069494 0.144039 0.000000
0.288531 0.021081 0.000000
0.513177 0.068280 0.000000
0.324792 0.044286 0.000000
0.354964 0.099453 0.000000
0.137500 0.185779 0.000000
0.125000 -0.075000 0.000000
0.125000 -0.050000 0.000000
0.125000 -0.025000 0.000000
0.125000 0.000000 0.000000
0.690737 0.055064 0.000000
0.587728 0.069298 0.000000
0.979490 0.069969 0.000000
0.839515 0.022910 0.000000
0.515054 0.087383 0.000000
0.618376 0.037188 0.000000
0.076974 0.163864 0.000000
0.462416 0.061567 0.000000
0.785869 0.068360 0.000000
0.726307 0.062879 0.000000
0.826979 0.076298 0.000000
0.483653 0.052591 0.000000
0.515076 0.047479 0.000000
0.372147 0.145566 0.000000
0.428032 0.025130 0.000000
0.386936 0.164737 0.000000
0.214930 0.171093 0.000000
0.202354 0.071780 0.000000
0.398485 0.142495 0.000000
0.062350 0.106440 0.000000
0.150000 -0.075000 0.000000
0.150000 -0.050000 0.000000
0.150000 -0.025000 0.000000
0.150000 0.000000 0.000000
0.176614 0.170047 0.000000
0.952594 0.025575 0.000000
0.649559 0.058428 0.000000
0.345299 0.051424 0.000000
0.892055 0.022563 0.000000
0.220723 0.090160 0.000000
0.904076 0.056160 0.000000
0.438188 0.169455 0.000000
0.960595 0.057412 0.000000
0.472092 0.158231 0.000000
0.933230 0.023988 0.000000
0.694213 0.027004 0.000000
0.863208 0.064670 0.000000
0.803563 0.063472 0.000000
0.757458 0.030447 0.000000
0.566755 0.076241 0.000000
0.636210 0.024134 0.000000
0.585417 0.096580 0.000000
0.613437 0.088424 0.000000
0.309925 0.135138 0.000000
0.175000 -0.075000 0.000000
0.175000 -0.050000 0.000000
0.175000 -0.025000 0.000000
0.175000 0.000000 0.000000
0.119843 0.111927 0.000000
0.520322 0.129337 0.000000
0.876319 0.050466 0.000000
0.766565 0.051579 0.000000
0.985803 0.021459 0.000000
0.138098 0.140090 0.000000
0.869279 0.027093 0.000000
0.400505 0.050125 0.000000
0.420170 0.052070 0.000000
0.913675 0.036595 0.000000
0.482779 0.073608 0.000000
0.745741 0.081295 0.000000
0.381963 0.094709 0.000000
0.942854 0.053756 0.000000
0.980573 0.044120 0.000000
0.443412 0.051430 0.000000
1.003382 0.036513 0.000000
0.461741 0.095665 0.000000
0.110797 0.137201 0.000000
0.369228 0.122290 0.000000
0.200000 -0.075000 0.000000
0.200000 -0.050000 0.000000
0.200000 -0.025000 0.000000
0.200000 0.000000 0.000000
0.347381 0.126763 0.000000
0.133842 0.023336 0.000000
0.299573 0.113794 0.000000
0.817422 0.025048 0.000000
0.417972 0.090650 0.000000
0.345154 0.180814 0.000000
0.591655 0.050015 0.000000
0.972018 0.080702 0.000000
0.346817 0.162047 0.000000
0.087889 0.092737 0.000000
0.795926 0.039955 0.000000
0.625844 0.083654 0.000000
0.076543 0.024305 0.000000
0.440866 0.181547 0.000000
0.524334 0.024153 0.000000
0.204179 0.155476 0.000000
0.713131 0.057181 0.000000
0.376863 0.202679 0.000000
0.851612 0.048497 0.000000
0.666866 0.069414 0.000000
0.225000 -0.075000 0.000000
0.225000 -0.050000 0.000000
0.225000 -0.025000 0.000000
0.225000 0.000000 0.000000
0.374246 0.073609 0.000000
0.825666 0.049350 0.000000
0.519333 0.147484 0.000000
0.297497 0.185462 0.000000
0.046307 0.163242 0.000000
0.086679 0.193433 0.000000
0.444460 0.148494 0.000000
0.904705 0.069773 0.000000
0.539573 0.038391 0.000000
0.020146 0.113735 0.000000
0.549617 0.086564 0.000000
0.212235 0.197831 0.000000
0.401911 0.025038 0.000000
0.442433 0.099885 0.000000
0.139129 0.048347 0.000000
0.204752 0.134374 0.000000
0.510140 0.115439 0.000000
0.022907 0.029683 0.000000
0.284489 0.130527 0.000000
0.367098 0.043380 0.000000
0.250000 -0.075000 0.000000
0.250000 -0.050000 0.000000
0.250000 -0.025000 0.000000
0.250000 0.000000 0.000000
0.737135 0.023939 0.000000
0.379910 0.176759 0.000000
0.281979 0.204250 0.000000
0.351749 0.077940 0.000000
0.320742 0.023110 0.000000
0.314055 0.171053 0.000000
0.125022 0.154499 0.000000
0.338251 0.206688 0.000000
0.295466 0.167009 0.000000
0.453276 0.126349 0.000000
0.241285 0.146831 0.000000
0.052079 0.125303 0.000000
0.177662 0.156510 0.000000
0.567503 0.020461 0.000000
0.396345 0.120352 0.000000
0.396349 0.075636 0.000000
0.327292 0.152677 0.000000
0.750290 0.063225 0.000000
0.025937 0.057078 0.000000
0.471831 0.144594 0.000000
0.275000 -0.075000 0.000000
0.275000 -0.050000 0.000000
0.275000 -0.025000 0.000000
0.275000 0.000000 0.000000
0.300000 -0.075000 0.000000
0.300000 -0.050000 0.000000
0.300000 -0.025000 0.000000
0.300000 0.000000 0.000000
0.325000 -0.075000 0.000000
0.325000 -0.050000 0.000000
0.325000 -0.025000 0.000000
0.325000 0.000000 0.000000
0.350000 -0.075000 0.000000
0.350000 -0.050000 0.000000
0.350000 -0.025000 0.000000
0.350000 0.000000 0.000000
0.375000 -0.075000 0.000000
0.375000 -0.050000 0.000000
0.375000 -0.025000 0.000000
0.375000 0.000000 0.000000
0.400000 -0.075000 0.000000
0.400000 -0.050000 0.000000
0.400000 -0.025000 0.000000
0.400000 0.000000 0.000000
0.425000 -0.075000 0.000000
0.425000 -0.050000 0.000000
0.425000 -0.025000 0.000000
0.425000 0.000000 0.000000
0.450000 -0.075000 0.000000
0.450000 -0.050000 0.000000
0.450000 -0.025000 0.000000
0.450000 0.000000 0.000000
0.475000 -0.075000 0.000000
0.475000 -0.050000 0.000000
0.475000 -0.025000 0.000000
0.475000 0.000000 0.000000
0.500000 -0.075000 0.000000
0.500000 -0.050000 0.000000
0.500000 -0.025000 0.000000
0.500000 0.000000 0.000000
0.525000 -0.075000 0.000000
0.525000 -0.050000 0.000000
0.525000 -0.025000 0.000000
0.525000 0.000000 0.000000
0.550000 -0.075000 0.000000
0.550000 -0.050000 0.000000
0.550000 -0.025000 0.000000
0.550000 0.000000 0.000000
0.575000 -0.075000 0.000000
0.575000 -0.050000 0.000000
0.575000 -0.025000 0.000000
0.575000 0.000000 0.000000
0.600000 -0.075000 0.000000
0.600000 -0.050000 0.000000
0.600000 -0.025000 0.000000
0.600000 0.000000 0.000000
0.625000 -0.075000 0.000000
0.625000 -0.050000 0.000000
0.625000 -0.025000 0.000000
0.625000 0.000000 0.000000
0.650000 -0.075000 0.000000
0.650000 -0.050000 0.000000
0.650000 -0.025000 0.000000
0.650000 0.000000 0.000000
0.675000 -0.075000 0.000000
0.675000 -0.050000 0.000000
0.675000 -0.025000 0.000000
0.675000 0.000000 0.000000
0.700000 -0.075000 0.000000
0.700000 -0.050000 0.000000
0.700000 -0.025000 0.000000
0.700000 0.000000 0.000000
0.725000 -0.075000 0.000000
0.725000 -0.050000 0.000000
0.725000 -0.025000 0.000000
0.725000 0.000000 0.000000
0.750000 -0.075000 0.000000
0.750000 -0.050000 0.000000
0.750000 -0.025000 0.000000
0.750000 0.000000 0.000000
0.775000 -0.075000 0.000000
0.775000 -0.050000 0.000000
0.775000 -0.025000 0.000000
0.775000 0.000000 0.000000
0.800000 -0.075000 0.000000
0.800000 -0.050000 0.000000
0.800000 -0.025000 0.000000
0.800000 0.000000 0.000000
0.825000 -0.075000 0.000000
0.825000 -0.050000 0.000000
0.825000 -0.025000 0.000000
0.825000 0.000000 0.000000
0.850000 -0.075000 0.000000
0.850000 -0.050000 0.000000
0.850000 -0.025000 0.000000
0.850000 0.000000 0.000000
0.875000 -0.075000 0.000000
0.875000 -0.050000 0.000000
0.875000 -0.025000 0.000000
0.875000 0.000000 0.000000
0.900000 -0.075000 0.000000
0.900000 -0.050000 0.000000
0.900000 -0.025000 0.000000
0.900000 0.000000 0.000000
0.925000 -0.075000 0.000000
0.925000 -0.050000 0.000000
0.925000 -0.025000 0.000000
0.925000 0.000000 0.000000
0.950000 -0.075000 0.000000
0.950000 -0.050000 0.000000
0.950000 -0.025000 0.000000
0.950000 0.000000 0.000000
0.975000 -0.075000 0.000000
0.975000 -0.050000 0.000000
0.975000 -0.025000 0.000000
0.975000 0.000000 0.000000
1.000000 -0.075000 0.000000
1.000000 -0.050000 0.000000
1.000000 -0.025000 0.000000
1.000000 0.000000 0.000000
1.025000 -0.075000 0.000000
1.025000 -0.050000 0.000000
1.025000 -0.025000 0.000000
1.025000 0.000000 0.000000
1.025000 0.025000 0.000000
1.025000 0.050000 0.000000
1.025000 0.075000 0.000000
1.025000 0.100000 0.000000
1.025000 0.125000 0.000000
1.025000 0.150000 0.000000
1.025000 0.175000 0.000000
1.025000 0.200000 0.000000
1.025000 0.225000 0.000000
1.025000 0.250000 0.000000
1.025000 0.275000 0.000000
1.025000 0.300000 0.000000
1.025000 0.325000 0.000000
1.025000 0.350000 0.000000
1.025000 0.375000 0.000000
1.025000 0.400000 0.000000
1.025000 0.425000 0.000000
1.025000 0.450000 0.000000
1.025000 0.475000 0.000000
1.025000 0.500000 0.000000
1.025000 0.525000 0.000000
1.025000 0.550000 0.000000
1.025000 0.575000 0.000000
1.025000 0.600000 0.000000
1.050000 -0.075000 0.000000
1.050000 -0.050000 0.000000
1.050000 -0.025000 0.000000
1.050000 0.000000 0.000000
1.050000 0.025000 0.000000
1.050000 0.050000 0.000000
1.050000 0.075000 0.000000
1.050000 0.100000 0.000000
1.050000 0.125000 0.000000
1.050000 0.150000 0.000000
1.050000 0.175000 0.000000
1.050000 0.200000 0.000000
1.050000 0.225000 0.000000
1.050000 0.250000 0.000000
1.050000 0.275000 0.000000
1.050000 0.300000 0.000000
1.050000 0.325000 0.000000
1.050000 0.350000 0.000000
1.050000 0.375000 0.000000
1.050000 0.400000 0.000000
1.050000 0.425000 0.000000
1.050000 0.450000 0.000000
1.050000 0.475000 0.000000
1.050000 0.500000 0.000000
1.050000 0.525000 0.000000
1.050000 0.550000 0.000000
1.050000 0.575000 0.000000
1.050000 0.600000 0.000000
1.075000 -0.075000 0.000000
1.075000 -0.050000 0.000000
1.075000 -0.025000 0.000000
1.075000 0.000000 0.000000
1.075000 0.025000 0.000000
1.075000 0.050000 0.000000
1.075000 0.075000 0.000000
1.075000 0.100000 0.000000
1.075000 0.125000 0.000000
1.075000 0.150000 0.000000
1.075000 0.175000 0.000000
1.075000 0.200000 0.000000
1.075000 0.225000 0.000000
1.075000 0.250000 0.000000
1.075000 0.275000 0.000000
1.075000 0.300000 0.000000
1.075000 0.325000 0.000000
1.075000 0.350000 0.000000
1.075000 0.375000 0.000000
1.075000 0.400000 0.000000
1.075000 0.425000 0.000000
1.075000 0.450000 0.000000
1.075000 0.475000 0.000000
1.075000 0.500000 0.000000
1.075000 0.525000 0.000000
1.075000 0.550000 0.000000
1.075000 0.575000 0.000000
1.075000 0.600000 0.000000
1.100000 -0.075000 0.000000
1.100000 -0.050000 0.000000
1.100000 -0.025000 0.000000
1.100000 0.000000 0.000000
1.100000 0.025000 0.000000
1.100000 0.050000 0.000000
1.100000 0.075000 0.000000
1.100000 0.100000 0.000000
1.100000 0.125000 0.000000
1.100000 0.150000 0.000000
1.100000 0.175000 0.000000
1.100000 0.200000 0.000000
1.100000 0.225000 0.000000
1.100000 0.250000 0.000000
1.100000 0.275000 0.000000
1.100000 0.300000 0.000000
1.100000 0.325000 0.000000
1.100000 0.350000 0.000000
1.100000 0.375000 0.000000
1.100000 0.400000 0.000000
1.100000 0.425000 0.000000
1.100000 0.450000 0.000000
1.100000 0.475000 0.000000
1.100000 0.500000 0.000000
1.100000 0.525000 0.000000
1.100000 0.550000 0.000000
1.100000 0.575000 0.000000
1.100000 0.600000 0.000000
</DataArray>
</Points>
<PointData>
<DataArray NumberOfComponents='1' type='Int32' Name='ParticleType' format='ascii'>
3
3
3
3
3
3
3
3
3
3
3
3
3
3
3
3
3
3
3
3
3
3
3
3
3
3
2
2
3
3
3
3
3
3
3
3
3
3
3
3
3
3
3
3
3
3
3
3
3
3
3
3
3
3
2
2
3
3
2
2
2
2
2
2
2
2
2
2
2
2
2
2
2
2
2
2
2
2
2
2
2
2
2
2
3
3
2
2
2
2
2
2
2
2
2
2
2
2
2
2
2
2
2
2
2
2
2
2
2
2
2
2
3
3
2
2
0
0
0
0
0
0
0
0
0
0
0
0
0
0
0
0
0
0
0
0
3
3
2
2
0
0
0
0
0
0
0
0
0
0
0
0
0
0
0
0
0
0
0
0
3
3
2
2
0
0
0
0
0
0
0
0
0
0
0
0
0
0
0
0
0
0
0
0
3
3
2
2
0
0
0
0
0
0
0
0
0
0
0
0
0
0
0
0
0
0
0
0
3
3
2
2
0
0
0
0
0
0
0
0
0
0
0
0
0
0
0
0
0
0
0
0
3
3
2
2
0
0
0
0
0
0
0
0
0
0
0
0
0
0
0
0
0
0
0
0
3
3
2
2
0
0
0
0
0
0
0
0
0
0
0
0
0
0
0
0
0
0
0
0
3
3
2
2
0
0
0
0
0
0
0
0
0
0
0
0
0
0
0
0
0
0
0
0
3
3
2
2
0
0
0
0
0
0
0
0
0
0
0
0
0
0
0
0
0
0
0
0
3
3
2
2
0
0
0
0
0
0
0
0
0
0
0
0
0
0
0
0
0
0
0
0
3
3
2
2
3
3
2
2
3
3
2
2
3
3
2
2
3
3
2
2
3
3
2
2
3
3
2
2
3
3
2
2
3
3
2
2
3
3
2
2
3
3
2
2
3
3
2
2
3
3
2
2
3
3
2
2
3
3
2
2
3
3
2
2
3
3
2
2
3
3
2
2
3
3
2
2
3
3
2
2
3
3
2
2
3
3
2
2
3
3
2
2
3
3
2
2
3
3
2
2
3
3
2
2
3
3
2
2
3
3
2
2
3
3
2
2
3
3
2
2
3
3
2
2
2
2
2
2
2
2
2
2
2
2
2
2
2
2
2
2
2
2
2
2
2
2
2
2
3
3
2
2
2
2
2
2
2
2
2
2
2
2
2
2
2
2
2
2
2
2
2
2
2
2
2
2
3
3
3
3
3
3
3
3
3
3
3
3
3
3
3
3
3
3
3
3
3
3
3
3
3
3
2
2
3
3
3
3
3
3
3
3
3
3
3
3
3
3
3
3
3
3
3
3
3
3
3
3
3
3
2
2
</DataArray>
<DataArray NumberOfComponents='1' type='Float32' Name='Velocity' format='ascii'>
0.000000
0.000000
0.000000
0.000000
0.000000
0.000000
0.000000
0.000000
0.000000
0.000000
0.000000
0.000000
0.000000
0.000000
0.000000
0.000000
0.000000
0.000000
0.000000
0.000000
0.000000
0.000000
0.000000
0.000000
0.000000
0.000000
0.000000
0.000000
0.000000
0.000000
0.000000
0.000000
0.000000
0.000000
0.000000
0.000000
0.000000
0.000000
0.000000
0.000000
0.000000
0.000000
0.000000
0.000000
0.000000
0.000000
0.000000
0.000000
0.000000
0.000000
0.000000
0.000000
0.000000
0.000000
0.000000
0.000000
0.000000
0.000000
0.000000
0.000000
0.000000
0.000000
0.000000
0.000000
0.000000
0.000000
0.000000
0.000000
0.000000
0.000000
0.000000
0.000000
0.000000
0.000000
0.000000
0.000000
0.000000
0.000000
0.000000
0.000000
0.000000
0.000000
0.000000
0.000000
0.000000
0.000000
0.000000
0.000000
0.000000
0.000000
0.000000
0.000000
0.000000
0.000000
0.000000
0.000000
0.000000
0.000000
0.000000
0.000000
0.000000
0.000000
0.000000
0.000000
0.000000
0.000000
0.000000
0.000000
0.000000
0.000000
0.000000
0.000000
0.000000
0.000000
0.000000
0.000000
0.619412
0.102055
0.576498
0.235594
0.438957
0.336363
0.649656
0.556346
0.327945
0.684797
0.402148
0.574415
0.363201
0.641286
0.387806
0.217121
0.250602
0.384038
0.302613
0.537517
0.000000
0.000000
0.000000
0.000000
0.236602
0.583819
0.494239
0.096983
0.276560
0.265944
0.601415
0.341851
0.412403
0.575036
0.584831
0.251924
0.071158
0.951730
0.643584
0.114310
0.502824
0.743760
0.782541
0.404184
0.000000
0.000000
0.000000
0.000000
0.686785
0.068948
0.721294
0.554644
0.410547
0.250574
0.186103
0.493978
0.791306
0.495653
0.519838
0.119343
0.216097
0.221023
0.592277
0.191199
0.091722
0.067105
0.222760
0.496697
0.000000
0.000000
0.000000
0.000000
0.430730
1.081211
0.131641
0.136653
0.676999
0.198164
0.147754
0.319550
0.057603
0.304905
0.532904
0.587325
0.279458
0.291250
0.405408
0.173501
0.150265
0.553329
0.433640
0.734127
0.000000
0.000000
0.000000
0.000000
0.028988
0.233493
0.145498
0.073621
0.304125
0.408255
0.368966
0.525449
0.051789
0.199627
0.395165
0.324048
0.307656
0.559376
0.329883
0.590562
0.345560
0.595983
0.603639
0.153066
0.000000
0.000000
0.000000
0.000000
0.166887
0.184129
0.271934
0.629724
0.182263
0.300506
0.060356
0.280661
0.224332
0.614393
0.231911
0.128698
0.082555
0.410534
0.263927
0.202276
0.478808
0.306501
0.273485
0.599312
0.000000
0.000000
0.000000
0.000000
0.499742
0.631195
0.340986
0.107936
0.037309
0.613998
0.124207
0.626162
0.834916
0.177661
0.514212
0.021888
0.833076
0.235948
0.110155
0.454354
0.153610
0.474643
0.096890
0.364546
0.000000
0.000000
0.000000
0.000000
0.550394
0.214610
0.298843
0.146991
0.716656
0.486178
0.164967
0.152645
0.441586
0.595303
0.261252
0.155848
0.363782
0.276265
0.201864
0.605310
0.264821
0.470677
0.267176
0.420762
0.000000
0.000000
0.000000
0.000000
0.897159
0.208023
0.288097
0.808252
0.142673
0.692819
0.343320
0.280508
0.512403
0.130250
0.123740
0.169989
0.279105
0.368074
0.429070
0.294262
0.647778
0.307964
0.447510
0.426063
0.000000
0.000000
0.000000
0.000000
0.273428
0.606668
0.794574
0.651125
0.492109
0.451127
0.186646
0.799250
0.616843
0.258145
0.370244
0.219598
0.085135
0.156586
0.408268
0.828297
0.604997
0.209398
0.241311
0.692308
0.000000
0.000000
0.000000
0.000000
0.000000
0.000000
0.000000
0.000000
0.000000
0.000000
0.000000
0.000000
0.000000
0.000000
0.000000
0.000000
0.000000
0.000000
0.000000
0.000000
0.000000
0.000000
0.000000
0.000000
0.000000
0.000000
0.000000
0.000000
0.000000
0.000000
0.000000
0.000000
0.000000
0.000000
0.000000
0.000000
0.000000
0.000000
0.000000
0.000000
0.000000
0.000000
0.000000
0.000000
0.000000
0.000000
0.000000
0.000000
0.000000
0.000000
0.000000
0.000000
0.000000
0.000000
0.000000
0.000000
0.000000
0.000000
0.000000
0.000000
0.000000
0.000000
0.000000
0.000000
0.000000
0.000000
0.000000
0.000000
0.000000
0.000000
0.000000
0.000000
0.000000
0.000000
0.000000
0.000000
0.000000
0.000000
0.000000
0.000000
0.000000
0.000000
0.000000
0.000000
0.000000
0.000000
0.000000
0.000000
0.000000
0.000000
0.000000
0.000000
0.000000
0.000000
0.000000
0.000000
0.000000
0.000000
0.000000
0.000000
0.000000
0.000000
0.000000
0.000000
0.000000
0.000000
0.000000
0.000000
0.000000
0.000000
0.000000
0.000000
0.000000
0.000000
0.000000
0.000000
0.000000
0.000000
0.000000
0.000000
0.000000
0.000000
0.000000
0.000000
0.000000
0.000000
0.000000
0.000000
0.000000
0.000000
0.000000
0.000000
0.000000
0.000000
0.000000
0.000000
0.000000
0.000000
0.000000
0.000000
0.000000
0.000000
0.000000
0.000000
0.000000
0.000000
0.000000
0.000000
0.000000
0.000000
0.000000
0.000000
0.000000
0.000000
0.000000
0.000000
0.000000
0.000000
0.000000
0.000000
0.000000
0.000000
0.000000
0.000000
0.000000
0.000000
0.000000
0.000000
0.000000
0.000000
0.000000
0.000000
0.000000
0.000000
0.000000
0.000000
0.000000
0.000000
0.000000
0.000000
0.000000
0.000000
0.000000
0.000000
0.000000
0.000000
0.000000
0.000000
0.000000
0.000000
0.000000
0.000000
0.000000
0.000000
0.000000
0.000000
0.000000
0.000000
0.000000
0.000000
0.000000
0.000000
0.000000
0.000000
0.000000
0.000000
0.000000
0.000000
0.000000
0.000000
0.000000
0.000000
0.000000
0.000000
0.000000
0.000000
0.000000
0.000000
0.000000
0.000000
0.000000
0.000000
0.000000
0.000000
0.000000
0.000000
0.000000
0.000000
0.000000
0.000000
0.000000
0.000000
</DataArray>
<DataArray NumberOfComponents='1' type='Float32' Name='pressure' format='ascii'>
0.000000
0.000000
0.000000
0.000000
0.000000
0.000000
0.000000
0.000000
0.000000
0.000000
0.000000
0.000000
0.000000
0.000000
0.000000
0.000000
0.000000
0.000000
0.000000
0.000000
0.000000
0.000000
0.000000
0.000000
0.000000
0.000000
0.000000
0.000000
0.000000
0.000000
0.000000
0.000000
0.000000
0.000000
0.000000
0.000000
0.000000
0.000000
0.000000
0.000000
0.000000
0.000000
0.000000
0.000000
0.000000
0.000000
0.000000
0.000000
0.000000
0.000000
0.000000
0.000000
0.000000
0.000000
0.000000
0.000000
0.000000
0.000000
1625.802002
1744.982056
2339.137207
1094.975830
892.303650
1717.322510
1740.826050
0.000000
0.000000
0.000000
0.000000
0.000000
0.000000
0.000000
0.000000
0.000000
0.000000
0.000000
0.000000
0.000000
0.000000
0.000000
0.000000
0.000000
0.000000
0.000000
0.000000
0.000000
1518.087646
1520.470703
2762.736084
1238.425781
695.790100
0.000000
1408.126587
0.000000
0.000000
0.000000
0.000000
0.000000
0.000000
0.000000
0.000000
0.000000
0.000000
0.000000
0.000000
0.000000
0.000000
0.000000
0.000000
0.000000
0.000000
0.000000
0.000000
0.000000
1018.665344
638.130005
1386.512573
0.000000
2091.202881
2318.013916
1461.668945
1119.392334
715.896545
205.975281
858.409241
0.000000
1415.750732
1354.196289
2101.788086
1987.189575
0.000000
1596.170898
864.862915
1373.805176
278.605164
1665.132446
0.000000
0.000000
1853.000488
2124.256348
0.000000
1465.440430
0.000000
2296.006592
1020.545166
238.676788
1343.042236
638.082397
1723.726196
0.000000
1659.798828
524.192444
390.196411
0.000000
2211.299316
117.370239
0.000000
1746.410278
0.000000
718.661865
0.000000
0.000000
1436.352905
595.595032
1518.489380
655.200378
0.000000
1351.850220
0.000000
0.000000
321.380402
991.695679
189.191147
1794.555176
273.081177
1178.259521
1891.039795
0.000000
311.651581
1988.145020
2261.198242
384.329163
0.000000
1541.856567
0.000000
0.000000
538.202209
548.163513
1071.028198
0.000000
976.562866
443.384430
1515.961304
1167.788940
122.550270
1010.975952
686.266907
761.327759
856.709229
515.743652
0.000000
0.000000
1357.802490
2424.083740
1154.111694
2149.249756
548.742188
0.000000
0.000000
0.000000
1721.781494
1781.084595
0.000000
421.232330
0.000000
1142.618164
862.728638
1624.883911
0.000000
790.012878
0.000000
0.000000
0.000000
963.153259
234.044159
0.000000
197.222778
0.000000
0.000000
916.069885
0.000000
1170.240967
0.000000
0.000000
1285.885498
385.676605
0.000000
943.881409
462.344971
815.719238
0.000000
2586.765869
540.564331
0.000000
643.495422
0.000000
2241.138672
378.229706
0.000000
0.000000
692.936768
505.080963
0.000000
0.000000
0.000000
0.000000
0.000000
0.000000
2452.192627
1961.542603
1369.865967
0.000000
99.786636
489.158051
1266.044800
956.502563
814.274841
169.011780
1318.410645
0.000000
0.000000
0.000000
0.000000
0.000000
109.922485
641.697449
0.000000
140.126328
1147.173340
0.000000
0.000000
0.000000
2367.766846
2790.506592
0.000000
2399.666992
1694.790649
368.000580
238.244858
0.000000
1131.302734
0.000000
0.000000
1464.787964
725.118347
0.000000
1480.564697
0.000000
1731.450684
39.504501
60.574486
0.000000
0.000000
0.000000
0.000000
0.000000
2783.507324
2626.677002
412.020905
0.000000
0.000000
0.000000
0.000000
0.000000
657.135132
0.000000
206.798706
0.000000
316.606049
0.000000
195.215454
0.000000
1060.787354
1442.188477
0.000000
1638.388672
0.000000
1088.240234
0.000000
0.000000
2239.880859
1265.397339
305.253693
0.000000
0.000000
90.941246
1033.747925
0.000000
0.000000
0.000000
0.000000
0.000000
769.181824
0.000000
767.561035
661.564941
327.488831
0.000000
584.240295
0.000000
1161.311890
191.725723
0.000000
0.000000
3223.722656
1788.631714
0.000000
0.000000
3534.931641
3115.164795
0.000000
0.000000
2869.043457
2457.484375
0.000000
0.000000
1639.439209
880.201111
0.000000
0.000000
1153.939209
1452.815063
0.000000
0.000000
1053.887207
701.732300
0.000000
0.000000
1056.195435
954.690430
0.000000
0.000000
1928.301758
2341.171143
0.000000
0.000000
294.267090
0.000000
0.000000
0.000000
1403.718506
1421.360474
0.000000
0.000000
1496.946777
584.951050
0.000000
0.000000
1882.479248
0.000000
0.000000
0.000000
3016.623535
1855.913452
0.000000
0.000000
1906.469849
1043.344971
0.000000
0.000000
1441.077393
586.528931
0.000000
0.000000
2684.305420
1391.498169
0.000000
0.000000
2421.156250
2428.906982
0.000000
0.000000
9.065194
0.000000
0.000000
0.000000
252.342377
69.364838
0.000000
0.000000
317.515625
354.366333
0.000000
0.000000
1493.686279
1364.050049
0.000000
0.000000
408.165894
0.000000
0.000000
0.000000
1206.174683
836.633789
0.000000
0.000000
933.739258
521.158813
0.000000
0.000000
462.938324
0.000000
0.000000
0.000000
1360.561890
383.803741
0.000000
0.000000
1185.392944
1350.972168
0.000000
0.000000
1196.150391
1024.985107
0.000000
0.000000
1683.664673
966.773743
0.000000
0.000000
860.451111
0.000000
0.000000
0.000000
0.000000
0.000000
0.000000
0.000000
0.000000
0.000000
0.000000
0.000000
0.000000
0.000000
0.000000
0.000000
0.000000
0.000000
0.000000
0.000000
0.000000
0.000000
0.000000
0.000000
0.000000
0.000000
0.000000
0.000000
0.000000
0.000000
0.000000
0.000000
0.000000
0.000000
435.014496
183.452713
0.000000
0.000000
0.000000
0.000000
0.000000
0.000000
0.000000
0.000000
0.000000
0.000000
0.000000
0.000000
0.000000
0.000000
0.000000
0.000000
0.000000
0.000000
0.000000
0.000000
0.000000
0.000000
0.000000
0.000000
0.000000
0.000000
0.000000
0.000000
0.000000
0.000000
0.000000
0.000000
0.000000
0.000000
0.000000
0.000000
0.000000
0.000000
0.000000
0.000000
0.000000
0.000000
0.000000
0.000000
0.000000
0.000000
0.000000
0.000000
0.000000
0.000000
0.000000
0.000000
0.000000
0.000000
0.000000
0.000000
0.000000
0.000000
0.000000
0.000000
0.000000
0.000000
0.000000
0.000000
0.000000
0.000000
0.000000
0.000000
0.000000
0.000000
0.000000
0.000000
0.000000
0.000000
0.000000
0.000000
0.000000
0.000000
</DataArray>
</PointData>
<Cells>
<DataArray type='Int32' Name='connectivity' format='ascii'>
0
1
2
3
4
5
6
7
8
9
10
11
12
13
14
15
16
17
18
19
20
21
22
23
24
25
26
27
28
29
30
31
32
33
34
35
36
37
38
39
40
41
42
43
44
45
46
47
48
49
50
51
52
53
54
55
56
57
58
59
60
61
62
63
64
65
66
67
68
69
70
71
72
73
74
75
76
77
78
79
80
81
82
83
84
85
86
87
88
89
90
91
92
93
94
95
96
97
98
99
100
101
102
103
104
105
106
107
108
109
110
111
112
113
114
115
116
117
118
119
120
121
122
123
124
125
126
127
128
129
130
131
132
133
134
135
136
137
138
139
140
141
142
143
144
145
146
147
148
149
150
151
152
153
154
155
156
157
158
159
160
161
162
163
164
165
166
167
168
169
170
171
172
173
174
175
176
177
178
179
180
181
182
183
184
185
186
187
188
189
190
191
192
193
194
195
196
197
198
199
200
201
202
203
204
205
206
207
208
209
210
211
212
213
214
215
216
217
218
219
220
221
222
223
224
225
226
227
228
229
230
231
232
233
234
235
236
237
238
239
240
241
242
243
244
245
246
247
248
249
250
251
252
253
254
255
256
257
258
259
260
261
262
263
264
265
266
267
268
269
270
271
272
273
274
275
276
277
278
279
280
281
282
283
284
285
286
287
288
289
290
291
292
293
294
295
296
297
298
299
300
301
302