<?xml version='1.0' encoding='UTF-8'?>
<VTKFile xmlns='VTK' byte_order='LittleEndian' version='0.1' type='UnstructuredGrid'>
<UnstructuredGrid>
<Piece NumberOfCells='584' NumberOfPoints='584'>
<Points>
<DataArray NumberOfComponents='3' type='Float32' Name='Position' format='ascii'>
-0.075000 -0.075000 0.000000
-0.075000 -0.050000 0.000000
-0.075000 -0.025000 0.000000
-0.075000 0.000000 0.000000
-0.075000 0.025000 0.000000
-0.075000 0.050000 0.000000
-0.075000 0.075000 0.000000
-0.075000 0.100000 0.000000
-0.075000 0.125000 0.000000
-0.075000 0.150000 0.000000
-0.075000 0.175000 0.000000
-0.075000 0.200000 0.000000
-0.075000 0.225000 0.000000
-0.075000 0.250000 0.000000
-0.075000 0.275000 0.000000
-0.075000 0.300000 0.000000
-0.075000 0.325000 0.000000
-0.075000 0.350000 0.000000
-0.075000 0.375000 0.000000
-0.075000 0.400000 0.000000
-0.075000 0.425000 0.000000
-0.075000 0.450000 0.000000
-0.075000 0.475000 0.000000
-0.075000 0.500000 0.000000
-0.075000 0.525000 0.000000
-0.075000 0.550000 0.000000
-0.075000 0.575000 0.000000
-0.075000 0.600000 0.000000
-0.050000 -0.075000 0.000000
-0.050000 -0.050000 0.000000
-0.050000 -0.025000 0.000000
-0.050000 0.000000 0.000000
-0.050000 0.025000 0.000000
-0.050000 0.050000 0.000000
-0.050000 0.075000 0.000000
-0.050000 0.100000 0.000000
-0.050000 0.125000 0.000000
-0.050000 0.150000 0.000000
-0.050000 0.175000 0.000000
-0.050000 0.200000 0.000000
-0.050000 0.225000 0.000000
-0.050000 0.250000 0.000000
-0.050000 0.275000 0.000000
-0.050000 0.300000 0.000000
-0.050000 0.325000 0.000000
-0.050000 0.350000 0.000000
-0.050000 0.375000 0.000000
-0.050000 0.400000 0.000000
-0.050000 0.425000 0.000000
-0.050000 0.450000 0.000000
-0.050000 0.475000 0.000000
-0.050000 0.500000 0.000000
-0.050000 0.525000 0.000000
-0.050000 0.550000 0.000000
-0.050000 0.575000 0.000000
-0.050000 0.600000 0.000000
-0.025000 -0.075000 0.000000
-0.025000 -0.050000 0.000000
-0.025000 -0.025000 0.000000
-0.025000 0.000000 0.000000
-0.025000 0.025000 0.000000
-0.025000 0.050000 0.000000
-0.025000 0.075000 0.000000
-0.025000 0.100000 0.000000
-0.025000 0.125000 0.000000
-0.025000 0.150000 0.000000
-0.025000 0.175000 0.000000
-0.025000 0.200000 0.000000
-0.025000 0.225000 0.000000
-0.025000 0.250000 0.000000
-0.025000 0.275000 0.000000
-0.025000 0.300000 0.000000
-0.025000 0.325000 0.000000
-0.025000 0.350000 0.000000
-0.025000 0.375000 0.000000
-0.025000 0.400000 0.000000
-0.025000 0.425000 0.000000
-0.025000 0.450000 0.000000
-0.025000 0.475000 0.000000
-0.025000 0.500000 0.000000
-0.025000 0.525000 0.000000
-0.025000 0.550000 0.000000
-0.025000 0.575000 0.000000
-0.025000 0.600000 0.000000
0.000000 -0.075000 0.000000
0.000000 -0.050000 0.000000
0.000000 -0.025000 0.000000
0.000000 0.000000 0.000000
0.000000 0.025000 0.000000
0.000000 0.050000 0.000000
0.000000 0.075000 0.000000
0.000000 0.100000 0.000000
0.000000 0.125000 0.000000
0.000000 0.150000 0.000000
0.000000 0.175000 0.000000
0.000000 0.200000 0.000000
0.000000 0.225000 0.000000
0.000000 0.250000 0.000000
0.000000 0.275000 0.000000
0.000000 0.300000 0.000000
0.000000 0.325000 0.000000
0.000000 0.350000 0.000000
0.000000 0.375000 0.000000
0.000000 0.400000 0.000000
0.000000 0.425000 0.000000
0.000000 0.450000 0.000000
0.000000 0.475000 0.000000
0.000000 0.500000 0.000000
0.000000 0.525000 0.000000
0.000000 0.550000 0.000000
0.000000 0.575000 0.000000
0.000000 0.600000 0.000000
0.025000 -0.075000 0.000000
0.025000 -0.050000 0.000000
0.025000 -0.025000 0.000000
0.025000 0.000000 0.000000
0.249766 0.025900 0.000000
0.224100 0.022499 0.000000
0.203334 0.032300 0.000000
0.149847 0.023451 0.000000
0.348130 0.026512 0.000000
0.067427 0.024773 0.000000
0.438166 0.023343 0.000000
0.277894 0.022823 0.000000
0.179216 0.022596 0.000000
0.150999 0.055729 0.000000
0.229847 0.052949 0.000000
0.169287 0.046126 0.000000
0.130872 0.030037 0.000000
0.037119 0.021376 0.000000
0.019740 0.039081 0.000000
0.030035 0.063958 0.000000
0.096085 0.021422 0.000000
0.073236 0.046503 0.000000
0.063439 0.059853 0.000000
0.108316 0.038823 0.000000
0.050000 -0.075000 0.000000
0.050000 -0.050000 0.000000
0.050000 -0.025000 0.000000
0.050000 0.000000 0.000000
0.305055 0.033264 0.000000
0.471812 0.069151 0.000000
0.594448 0.041948 0.000000
0.547131 0.053609 0.000000
0.578955 0.067611 0.000000
0.628252 0.049693 0.000000
0.490462 0.036735 0.000000
0.737823 0.086032 0.000000
0.369565 0.021490 0.000000
0.365656 0.063681 0.000000
0.516671 0.069931 0.000000
0.418610 0.065547 0.000000
0.048961 0.047731 0.000000
0.406942 0.022604 0.000000
0.217771 0.059983 0.000000
0.262338 0.043597 0.000000
0.166050 0.068298 0.000000
0.265824 0.068431 0.000000
0.108281 0.064834 0.000000
0.119904 0.059456 0.000000
0.075000 -0.075000 0.000000
0.075000 -0.050000 0.000000
0.075000 -0.025000 0.000000
0.075000 0.000000 0.000000
0.321563 0.022391 0.000000
0.513128 0.045393 0.000000
0.524837 0.022722 0.000000
0.471188 0.021097 0.000000
0.802845 0.066629 0.000000
0.818409 0.025294 0.000000
0.838800 0.031579 0.000000
0.638837 0.061072 0.000000
0.757604 0.039794 0.000000
0.750582 0.022518 0.000000
0.568562 0.022834 0.000000
0.439908 0.041292 0.000000
0.409385 0.050521 0.000000
0.335492 0.074569 0.000000
0.319589 0.056770 0.000000
0.278370 0.066322 0.000000
0.290802 0.048491 0.000000
0.461680 0.048200 0.000000
0.384479 0.065929 0.000000
0.195766 0.053816 0.000000
0.100000 -0.075000 0.000000
0.100000 -0.050000 0.000000
0.100000 -0.025000 0.000000
0.100000 0.000000 0.000000
0.602172 0.023644 0.000000
0.548951 0.027736 0.000000
0.781327 0.024898 0.000000
0.917801 0.028624 0.000000
0.389182 0.043513 0.000000
0.889621 0.021665 0.000000
0.928315 0.077918 0.000000
0.858556 0.091567 0.000000
0.860499 0.023261 0.000000
0.875482 0.044926 0.000000
0.628779 0.025091 0.000000
0.651989 0.021471 0.000000
0.775423 0.068913 0.000000
0.795901 0.035063 0.000000
0.676700 0.060614 0.000000
0.357058 0.050275 0.000000
0.712379 0.041039 0.000000
0.752778 0.073802 0.000000
0.530352 0.059192 0.000000
0.482738 0.056145 0.000000
0.125000 -0.075000 0.000000
0.125000 -0.050000 0.000000
0.125000 -0.025000 0.000000
0.125000 0.000000 0.000000
0.938241 0.057417 0.000000
0.893549 0.088407 0.000000
1.002859 0.153579 0.000000
0.963082 0.027068 0.000000
0.981818 0.211830 0.000000
0.679604 0.041601 0.000000
0.908359 0.150574 0.000000
0.963571 0.181686 0.000000
0.928326 0.109169 0.000000
0.911681 0.100432 0.000000
0.944469 0.139780 0.000000
0.901570 0.171045 0.000000
0.855447 0.128677 0.000000
0.729878 0.070321 0.000000
0.652552 0.054067 0.000000
0.735130 0.043344 0.000000
0.912901 0.134403 0.000000
0.574859 0.120303 0.000000
0.829984 0.072558 0.000000
0.587541 0.058078 0.000000
0.150000 -0.075000 0.000000
0.150000 -0.050000 0.000000
0.150000 -0.025000 0.000000
0.150000 0.000000 0.000000
0.890641 0.199952 0.000000
0.999680 0.104374 0.000000
0.970550 0.284783 0.000000
0.837755 0.274576 0.000000
1.000848 0.080632 0.000000
0.855725 0.312521 0.000000
0.971798 0.124088 0.000000
0.866321 0.161490 0.000000
0.996753 0.127149 0.000000
0.955050 0.214171 0.000000
0.980781 0.049020 0.000000
0.906744 0.045986 0.000000
0.940678 0.022704 0.000000
0.957610 0.053411 0.000000
0.906330 0.066500 0.000000
0.845473 0.081717 0.000000
0.821822 0.055698 0.000000
0.878624 0.069501 0.000000
0.855203 0.053287 0.000000
0.701457 0.020400 0.000000
0.175000 -0.075000 0.000000
0.175000 -0.050000 0.000000
0.175000 -0.025000 0.000000
0.175000 0.000000 0.000000
0.548769 0.166014 0.000000
1.000465 0.174148 0.000000
1.002199 0.256465 0.000000
1.004310 0.219208 0.000000
0.979221 0.188494 0.000000
0.899270 0.288922 0.000000
0.991173 0.021840 0.000000
0.926301 0.234131 0.000000
0.877128 0.225960 0.000000
1.004581 0.041673 0.000000
0.935056 0.254240 0.000000
0.978194 0.231910 0.000000
0.817038 0.125630 0.000000
0.972873 0.148531 0.000000
0.948048 0.111777 0.000000
0.895900 0.229298 0.000000
0.973031 0.100322 0.000000
0.925468 0.165223 0.000000
0.874836 0.128721 0.000000
0.927326 0.187808 0.000000
0.200000 -0.075000 0.000000
0.200000 -0.050000 0.000000
0.200000 -0.025000 0.000000
0.200000 0.000000 0.000000
0.824472 0.709800 0.000000
0.884014 0.250527 0.000000
0.883859 0.384128 0.000000
0.999385 0.295412 0.000000
0.891928 0.316911 0.000000
0.923062 0.335744 0.000000
0.959457 0.398342 0.000000
0.971433 0.343563 0.000000
0.931391 0.283595 0.000000
0.814511 0.199039 0.000000
1.001500 0.331175 0.000000
0.980430 0.072052 0.000000
0.752071 0.154958 0.000000
0.858050 0.203740 0.000000
0.929556 0.202400 0.000000
0.903313 0.247447 0.000000
0.971317 0.271518 0.000000
0.878917 0.178077 0.000000
0.956445 0.158658 0.000000
0.957351 0.085045 0.000000
0.225000 -0.075000 0.000000
0.225000 -0.050000 0.000000
0.225000 -0.025000 0.000000
0.225000 0.000000 0.000000
0.895431 0.377225 0.000000
0.954948 1.302409 0.000000
0.936895 0.315874 0.000000
0.772645 0.187099 0.000000
0.573338 0.174766 0.000000
0.778819 0.268906 0.000000
0.922887 0.375704 0.000000
0.997013 0.403168 0.000000
0.948853 0.348695 0.000000
0.868917 0.322062 0.000000
0.986356 0.348886 0.000000
0.826918 0.293645 0.000000
0.595019 0.103500 0.000000
0.784860 0.079075 0.000000
0.879710 0.299444 0.000000
0.911896 0.294876 0.000000
0.798169 0.175953 0.000000
0.843203 0.194930 0.000000
0.851298 0.179643 0.000000
0.854039 0.143140 0.000000
0.250000 -0.075000 0.000000
0.250000 -0.050000 0.000000
0.250000 -0.025000 0.000000
0.250000 0.000000 0.000000
0.959228 1.014965 0.000000
0.799124 0.939114 0.000000
0.792463 0.394844 0.000000
0.872613 0.441468 0.000000
0.664065 1.062870 0.000000
0.902335 0.529980 0.000000
0.685687 0.888782 0.000000
0.768969 0.724283 0.000000
0.622949 0.285158 0.000000
0.935150 0.350839 0.000000
0.740406 0.108014 0.000000
0.802314 0.272913 0.000000
0.864791 0.340675 0.000000
0.697686 0.052242 0.000000
0.818481 0.235348 0.000000
0.876642 0.106671 0.000000
0.672513 0.246659 0.000000
0.945071 0.234358 0.000000
0.814862 0.220795 0.000000
0.978597 0.253530 0.000000
0.275000 -0.075000 0.000000
0.275000 -0.050000 0.000000
0.275000 -0.025000 0.000000
0.275000 0.000000 0.000000
0.300000 -0.075000 0.000000
0.300000 -0.050000 0.000000
0.300000 -0.025000 0.000000
0.300000 0.000000 0.000000
0.325000 -0.075000 0.000000
0.325000 -0.050000 0.000000
0.325000 -0.025000 0.000000
0.325000 0.000000 0.000000
0.350000 -0.075000 0.000000
0.350000 -0.050000 0.000000
0.350000 -0.025000 0.000000
0.350000 0.000000 0.000000
0.375000 -0.075000 0.000000
0.375000 -0.050000 0.000000
0.375000 -0.025000 0.000000
0.375000 0.000000 0.000000
0.400000 -0.075000 0.000000
0.400000 -0.050000 0.000000
0.400000 -0.025000 0.000000
0.400000 0.000000 0.000000
0.425000 -0.075000 0.000000
0.425000 -0.050000 0.000000
0.425000 -0.025000 0.000000
0.425000 0.000000 0.000000
0.450000 -0.075000 0.000000
0.450000 -0.050000 0.000000
0.450000 -0.025000 0.000000
0.450000 0.000000 0.000000
0.475000 -0.075000 0.000000
0.475000 -0.050000 0.000000
0.475000 -0.025000 0.000000
0.475000 0.000000 0.000000
0.500000 -0.075000 0.000000
0.500000 -0.050000 0.000000
0.500000 -0.025000 0.000000
0.500000 0.000000 0.000000
0.525000 -0.075000 0.000000
0.525000 -0.050000 0.000000
0.525000 -0.025000 0.000000
0.525000 0.000000 0.000000
0.550000 -0.075000 0.000000
0.550000 -0.050000 0.000000
0.550000 -0.025000 0.000000
0.550000 0.000000 0.000000
0.575000 -0.075000 0.000000
0.575000 -0.050000 0.000000
0.575000 -0.025000 0.000000
0.575000 0.000000 0.000000
0.600000 -0.075000 0.000000
0.600000 -0.050000 0.000000
0.600000 -0.025000 0.000000
0.600000 0.000000 0.000000
0.625000 -0.075000 0.000000
0.625000 -0.050000 0.000000
0.625000 -0.025000 0.000000
0.625000 0.000000 0.000000
0.650000 -0.075000 0.000000
0.650000 -0.050000 0.000000
0.650000 -0.025000 0.000000
0.650000 0.000000 0.000000
0.675000 -0.075000 0.000000
0.675000 -0.050000 0.000000
0.675000 -0.025000 0.000000
0.675000 0.000000 0.000000
0.700000 -0.075000 0.000000
0.700000 -0.050000 0.000000
0.700000 -0.025000 0.000000
0.700000 0.000000 0.000000
0.725000 -0.075000 0.000000
0.725000 -0.050000 0.000000
0.725000 -0.025000 0.000000
0.725000 0.000000 0.000000
0.750000 -0.075000 0.000000
0.750000 -0.050000 0.000000
0.750000 -0.025000 0.000000
0.750000 0.000000 0.000000
0.775000 -0.075000 0.000000
0.775000 -0.050000 0.000000
0.775000 -0.025000 0.000000
0.775000 0.000000 0.000000
0.800000 -0.075000 0.000000
0.800000 -0.050000 0.000000
0.800000 -0.025000 0.000000
0.800000 0.000000 0.000000
0.825000 -0.075000 0.000000
0.825000 -0.050000 0.000000
0.825000 -0.025000 0.000000
0.825000 0.000000 0.000000
0.850000 -0.075000 0.000000
0.850000 -0.050000 0.000000
0.850000 -0.025000 0.000000
0.850000 0.000000 0.000000
0.875000 -0.075000 0.000000
0.875000 -0.050000 0.000000
0.875000 -0.025000 0.000000
0.875000 0.000000 0.000000
0.900000 -0.075000 0.000000
0.900000 -0.050000 0.000000
0.900000 -0.025000 0.000000
0.900000 0.000000 0.000000
0.925000 -0.075000 0.000000
0.925000 -0.050000 0.000000
0.925000 -0.025000 0.000000
0.925000 0.000000 0.000000
0.950000 -0.075000 0.000000
0.950000 -0.050000 0.000000
0.950000 -0.025000 0.000000
0.950000 0.000000 0.000000
0.975000 -0.075000 0.000000
0.975000 -0.050000 0.000000
0.975000 -0.025000 0.000000
0.975000 0.000000 0.000000
1.000000 -0.075000 0.000000
1.000000 -0.050000 0.000000
1.000000 -0.025000 0.000000
1.000000 0.000000 0.000000
1.025000 -0.075000 0.000000
1.025000 -0.050000 0.000000
1.025000 -0.025000 0.000000
1.025000 0.000000 0.000000
1.025000 0.025000 0.000000
1.025000 0.050000 0.000000
1.025000 0.075000 0.000000
1.025000 0.100000 0.000000
1.025000 0.125000 0.000000
1.025000 0.150000 0.000000
1.025000 0.175000 0.000000
1.025000 0.200000 0.000000
1.025000 0.225000 0.000000
1.025000 0.250000 0.000000
1.025000 0.275000 0.000000
1.025000 0.300000 0.000000
1.025000 0.325000 0.000000
1.025000 0.350000 0.000000
1.025000 0.375000 0.000000
1.025000 0.400000 0.000000
1.025000 0.425000 0.000000
1.025000 0.450000 0.000000
1.025000 0.475000 0.000000
1.025000 0.500000 0.000000
1.025000 0.525000 0.000000
1.025000 0.550000 0.000000
1.025000 0.575000 0.000000
1.025000 0.600000 0.000000
1.050000 -0.075000 0.000000
1.050000 -0.050000 0.000000
1.050000 -0.025000 0.000000
1.050000 0.000000 0.000000
1.050000 0.025000 0.000000
1.050000 0.050000 0.000000
1.050000 0.075000 0.000000
1.050000 0.100000 0.000000
1.050000 0.125000 0.000000
1.050000 0.150000 0.000000
1.050000 0.175000 0.000000
1.050000 0.200000 0.000000
1.050000 0.225000 0.000000
1.050000 0.250000 0.000000
1.050000 0.275000 0.000000
1.050000 0.300000 0.000000
1.050000 0.325000 0.000000
1.050000 0.350000 0.000000
1.050000 0.375000 0.000000
1.050000 0.400000 0.000000
1.050000 0.425000 0.000000
1.050000 0.450000 0.000000
1.050000 0.475000 0.000000
1.050000 0.500000 0.000000
1.050000 0.525000 0.000000
1.050000 0.550000 0.000000
1.050000 0.575000 0.000000
1.050000 0.600000 0.000000
1.075000 -0.075000 0.000000
1.075000 -0.050000 0.000000
1.075000 -0.025000 0.000000
1.075000 0.000000 0.000000
1.075000 0.025000 0.000000
1.075000 0.050000 0.000000
1.075000 0.075000 0.000000
1.075000 0.100000 0.000000
1.075000 0.125000 0.000000
1.075000 0.150000 0.000000
1.075000 0.175000 0.000000
1.075000 0.200000 0.000000
1.075000 0.225000 0.000000
1.075000 0.250000 0.000000
1.075000 0.275000 0.000000
1.075000 0.300000 0.000000
1.075000 0.325000 0.000000
1.075000 0.350000 0.000000
1.075000 0.375000 0.000000
1.075000 0.400000 0.000000
1.075000 0.425000 0.000000
1.075000 0.450000 0.000000
1.075000 0.475000 0.000000
1.075000 0.500000 0.000000
1.075000 0.525000 0.000000
1.075000 0.550000 0.000000
1.075000 0.575000 0.000000
1.075000 0.600000 0.000000
1.100000 -0.075000 0.000000
1.100000 -0.050000 0.000000
1.100000 -0.025000 0.000000
1.100000 0.000000 0.000000
1.100000 0.025000 0.000000
1.100000 0.050000 0.000000
1.100000 0.075000 0.000000
1.100000 0.100000 0.000000
1.100000 0.125000 0.000000
1.100000 0.150000 0.000000
1.100000 0.175000 0.000000
1.100000 0.200000 0.000000
1.100000 0.225000 0.000000
1.100000 0.250000 0.000000
1.100000 0.275000 0.000000
1.100000 0.300000 0.000000
1.100000 0.325000 0.000000
1.100000 0.350000 0.000000
1.100000 0.375000 0.000000
1.100000 0.400000 0.000000
1.100000 0.425000 0.000000
1.100000 0.450000 0.000000
1.100000 0.475000 0.000000
1.100000 0.500000 0.000000
1.100000 0.525000 0.000000
1.100000 0.550000 0.000000
1.100000 0.575000 0.000000
1.100000 0.600000 0.000000
</DataArray>
</Points>
<PointData>
<DataArray NumberOfComponents='1' type='Int32' Name='ParticleType' format='ascii'>
3
3
3
3
3
3
3
3
3
3
3
3
3
3
3
3
3
3
3
3
3
3
3
3
3
3
2
2
3
3
3
3
3
3
3
3
3
3
3
3
3
3
3
3
3
3
3
3
3
3
3
3
3
3
2
2
3
3
2
2
2
2
2
2
2
2
2
2
2
2
2
2
2
2
2
2
2
2
2
2
2
2
2
2
3
3
2
2
2
2
2
2
2
2
2
2
2
2
2
2
2
2
2
2
2
2
2
2
2
2
2
2
3
3
2
2
0
0
0
0
0
0
0
0
0
0
0
0
0
0
0
0
0
0
0
0
3
3
2
2
0
0
0
0
0
0
0
0
0
0
0
0
0
0
0
0
0
0
0
0
3
3
2
2
0
0
0
0
0
0
0
0
0
0
0
0
0
0
0
0
0
0
0
0
3
3
2
2
0
0
0
0
0
0
0
0
0
0
0
0
0
0
0
0
0
0
0
0
3
3
2
2
0
0
0
0
0
0
0
0
0
0
0
0
0
0
0
0
0
0
0
0
3
3
2
2
0
0
0
0
0
0
0
0
0
0
0
0
0
0
0
0
0
0
0
0
3
3
2
2
0
0
0
0
0
0
0
0
0
0
0
0
0
0
0
0
0
0
0
0
3
3
2
2
0
0
0
0
0
0
0
0
0
0
0
0
0
0
0
0
0
0
0
0
3
3
2
2
0
0
0
0
0
0
0
0
0
0
0
0
0
0
0
0
0
0
0
0
3
3
2
2
0
0
0
0
0
0
0
0
0
0
0
0
0
0
0
0
0
0
0
0
3
3
2
2
3
3
2
2
3
3
2
2
3
3
2
2
3
3
2
2
3
3
2
2
3
3
2
2
3
3
2
2
3
3
2
2
3
3
2
2
3
3
2
2
3
3
2
2
3
3
2
2
3
3
2
2
3
3
2
2
3
3
2
2
3
3
2
2
3
3
2
2
3
3
2
2
3
3
2
2
3
3
2
2
3
3
2
2
3
3
2
2
3
3
2
2
3
3
2
2
3
3
2
2
3
3
2
2
3
3
2
2
3
3
2
2
3
3
2
2
3
3
2
2
2
2
2
2
2
2
2
2
2
2
2
2
2
2
2
2
2
2
2
2
2
2
2
2
3
3
2
2
2
2
2
2
2
2
2
2
2
2
2
2
2
2
2
2
2
2
2
2
2
2
2
2
3
3
3
3
3
3
3
3
3
3
3
3
3
3
3
3
3
3
3
3
3
3
3
3
3
3
2
2
3
3
3
3
3
3
3
3
3
3
3
3
3
3
3
3
3
3
3
3
3
3
3
3
3
3
2
2
</DataArray>
<DataArray NumberOfComponents='1' type='Float32' Name='Velocity' format='ascii'>
0.000000
0.000000
0.000000
0.000000
0.000000
0.000000
0.000000
0.000000
0.000000
0.000000
0.000000
0.000000
0.000000
0.000000
0.000000
0.000000
0.000000
0.000000
0.000000
0.000000
0.000000
0.000000
0.000000
0.000000
0.000000
0.000000
0.000000
0.000000
0.000000
0.000000
0.000000
0.000000
0.000000
0.000000
0.000000
0.000000
0.000000
0.000000
0.000000
0.000000
0.000000
0.000000
0.000000
0.000000
0.000000
0.000000
0.000000
0.000000
0.000000
0.000000
0.000000
0.000000
0.000000
0.000000
0.000000
0.000000
0.000000
0.000000
0.000000
0.000000
0.000000
0.000000
0.000000
0.000000
0.000000
0.000000
0.000000
0.000000
0.000000
0.000000
0.000000
0.000000
0.000000
0.000000
0.000000
0.000000
0.000000
0.000000
0.000000
0.000000
0.000000
0.000000
0.000000
0.000000
0.000000
0.000000
0.000000
0.000000
0.000000
0.000000
0.000000
0.000000
0.000000
0.000000
0.000000
0.000000
0.000000
0.000000
0.000000
0.000000
0.000000
0.000000
0.000000
0.000000
0.000000
0.000000
0.000000
0.000000
0.000000
0.000000
0.000000
0.000000
0.000000
0.000000
0.000000
0.000000
0.083259
0.260752
0.029861
0.462820
0.156084
0.121357
0.616920
0.362938
0.429218
0.141113
0.438210
0.086630
0.380599
0.071422
0.210169
0.348429
0.175538
0.041678
0.281992
0.428885
0.000000
0.000000
0.000000
0.000000
0.301254
0.925821
0.815194
0.863434
0.679510
0.948381
1.013473
0.682324
0.275589
0.317332
0.922202
0.584900
0.158924
0.286605
0.256219
0.364237
0.258511
0.512484
0.244036
0.150694
0.000000
0.000000
0.000000
0.000000
0.450373
0.971300
0.712766
0.326437
2.044255
0.861007
1.007058
0.753816
0.470258
0.717823
0.776258
0.769664
0.515562
0.218198
0.793440
0.564489
0.137727
1.006184
0.659965
0.172216
0.000000
0.000000
0.000000
0.000000
0.741449
0.696841
0.517948
0.275843
0.653138
0.528058
0.692295
0.846503
0.488861
0.633435
1.247154
0.752979
0.897547
0.806655
1.147670
0.742963
0.522726
0.191940
0.914677
0.578408
0.000000
0.000000
0.000000
0.000000
0.248711
0.427127
0.151915
0.266793
0.130001
0.978754
0.731122
0.233750
0.606558
0.826934
0.403570
0.665408
0.265410
0.967764
0.767343
0.974625
0.588060
0.070809
0.915504
0.877177
0.000000
0.000000
0.000000
0.000000
1.129788
0.115809
0.289408
1.311683
0.482031
1.367744
0.344986
0.556891
0.734147
0.170878
0.051694
0.531965
0.345561
0.222514
0.645277
0.656022
0.970047
0.700311
0.530292
0.506104
0.000000
0.000000
0.000000
0.000000
2.193747
0.175401
0.581231
0.154164
0.177307
1.263964
0.120855
0.522648
0.802942
0.228454
0.408090
0.394620
1.087238
0.356621
0.229829
0.624110
0.437757
0.165887
0.400203
0.227869
0.000000
0.000000
0.000000
0.000000
1.149681
1.012568
1.206442
0.995281
1.139412
1.374420
0.986660
1.042935
1.059202
1.454523
0.966324
0.408207
1.978534
0.723764
0.272248
0.501562
0.347741
0.484764
0.196858
0.478063
0.000000
0.000000
0.000000
0.000000
1.094758
0.092059
1.063165
2.142862
2.013189
1.971460
1.541801
1.033294
1.109181
1.419593
1.123533
1.600788
2.243020
0.860611
1.226508
1.074670
1.594334
1.176685
1.162703
1.334494
0.000000
0.000000
0.000000
0.000000
0.802431
0.855530
1.708747
1.521603
0.933037
1.433207
1.064280
1.270234
2.106197
1.464990
2.129864
1.775544
1.346700
1.130350
1.191660
0.636950
1.741502
0.717754
1.383932
0.439918
0.000000
0.000000
0.000000
0.000000
0.000000
0.000000
0.000000
0.000000
0.000000
0.000000
0.000000
0.000000
0.000000
0.000000
0.000000
0.000000
0.000000
0.000000
0.000000
0.000000
0.000000
0.000000
0.000000
0.000000
0.000000
0.000000
0.000000
0.000000
0.000000
0.000000
0.000000
0.000000
0.000000
0.000000
0.000000
0.000000
0.000000
0.000000
0.000000
0.000000
0.000000
0.000000
0.000000
0.000000
0.000000
0.000000
0.000000
0.000000
0.000000
0.000000
0.000000
0.000000
0.000000
0.000000
0.000000
0.000000
0.000000
0.000000
0.000000
0.000000
0.000000
0.000000
0.000000
0.000000
0.000000
0.000000
0.000000
0.000000
0.000000
0.000000
0.000000
0.000000
0.000000
0.000000
0.000000
0.000000
0.000000
0.000000
0.000000
0.000000
0.000000
0.000000
0.000000
0.000000
0.000000
0.000000
0.000000
0.000000
0.000000
0.000000
0.000000
0.000000
0.000000
0.000000
0.000000
0.000000
0.000000
0.000000
0.000000
0.000000
0.000000
0.000000
0.000000
0.000000
0.000000
0.000000
0.000000
0.000000
0.000000
0.000000
0.000000
0.000000
0.000000
0.000000
0.000000
0.000000
0.000000
0.000000
0.000000
0.000000
0.000000
0.000000
0.000000
0.000000
0.000000
0.000000
0.000000
0.000000
0.000000
0.000000
0.000000
0.000000
0.000000
0.000000
0.000000
0.000000
0.000000
0.000000
0.000000
0.000000
0.000000
0.000000
0.000000
0.000000
0.000000
0.000000
0.000000
0.000000
0.000000
0.000000
0.000000
0.000000
0.000000
0.000000
0.000000
0.000000
0.000000
0.000000
0.000000
0.000000
0.000000
0.000000
0.000000
0.000000
0.000000
0.000000
0.000000
0.000000
0.000000
0.000000
0.000000
0.000000
0.000000
0.000000
0.000000
0.000000
0.000000
0.000000
0.000000
0.000000
0.000000
0.000000
0.000000
0.000000
0.000000
0.000000
0.000000
0.000000
0.000000
0.000000
0.000000
0.000000
0.000000
0.000000
0.000000
0.000000
0.000000
0.000000
0.000000
0.000000
0.000000
0.000000
0.000000
0.000000
0.000000
0.000000
0.000000
0.000000
0.000000
0.000000
0.000000
0.000000
0.000000
0.000000
0.000000
0.000000
0.000000
0.000000
0.000000
0.000000
0.000000
0.000000
0.000000
0.000000
0.000000
0.000000
0.000000
0.000000
0.000000
0.000000
0.000000
0.000000
</DataArray>
<DataArray NumberOfComponents='1' type='Float32' Name='pressure' format='ascii'>
0.000000
0.000000
0.000000
0.000000
0.000000
0.000000
0.000000
0.000000
0.000000
0.000000
0.000000
0.000000
0.000000
0.000000
0.000000
0.000000
0.000000
0.000000
0.000000
0.000000
0.000000
0.000000
0.000000
0.000000
0.000000
0.000000
0.000000
0.000000
0.000000
0.000000
0.000000
0.000000
0.000000
0.000000
0.000000
0.000000
0.000000
0.000000
0.000000
0.000000
0.000000
0.000000
0.000000
0.000000
0.000000
0.000000
0.000000
0.000000
0.000000
0.000000
0.000000
0.000000
0.000000
0.000000
0.000000
0.000000
0.000000
0.000000
622.727051
748.085083
1936.602905
1995.602417
0.000000
0.000000
0.000000
0.000000
0.000000
0.000000
0.000000
0.000000
0.000000
0.000000
0.000000
0.000000
0.000000
0.000000
0.000000
0.000000
0.000000
0.000000
0.000000
0.000000
0.000000
0.000000
0.000000
0.000000
579.238159
0.000000
700.017761
324.479034
0.000000
0.000000
0.000000
0.000000
0.000000
0.000000
0.000000
0.000000
0.000000
0.000000
0.000000
0.000000
0.000000
0.000000
0.000000
0.000000
0.000000
0.000000
0.000000
0.000000
0.000000
0.000000
0.000000
0.000000
1356.186035
0.000000
0.000000
970.817444
1207.704102
1012.726990
0.000000
953.637939
961.683350
476.972626
0.000000
0.000000
0.000000
272.802185
559.277161
914.667908
655.942993
0.000000
85.818138
513.312927
0.000000
199.087463
0.000000
0.000000
1588.095215
0.000000
1572.565674
0.000000
228.784149
0.000000
0.000000
0.000000
0.000000
0.000000
2027.214233
0.000000
0.000000
0.000000
424.524811
0.000000
0.000000
1183.351807
0.000000
0.000000
0.000000
0.000000
0.000000
0.000000
1619.863647
1145.186401
627.384460
656.672485
0.000000
0.000000
0.000000
0.000000
364.681946
0.000000
0.000000
0.000000
0.000000
0.000000
0.000000
0.000000
0.000000
0.000000
53.856079
0.000000
0.000000
0.000000
0.000000
0.000000
2388.381592
2209.322266
0.000000
0.000000
0.000000
396.100372
2662.480225
58.110138
0.000000
0.000000
1127.865601
158.489044
1029.918213
0.000000
438.662537
0.000000
0.000000
122.772255
1293.705933
0.000000
0.000000
2097.636475
0.000000
0.000000
255.374283
0.000000
0.000000
1598.336670
1031.795654
1694.203613
665.993896
0.000000
1311.354370
0.000000
1911.514404
357.190918
0.000000
0.000000
0.000000
0.000000
140.996109
0.000000
0.000000
0.000000
0.000000
729.976807
0.000000
0.000000
1553.235840
1558.772217
0.000000
1923.468750
0.000000
0.000000
480.863892
0.000000
1969.767700
0.000000
0.000000
0.000000
1556.134644
1870.603516
1794.470459
1941.425781
2812.874023
945.287537
1885.332031
351.558411
0.000000
0.000000
0.000000
0.000000
1814.414917
1329.698242
0.000000
0.000000
0.000000
0.000000
344.748901
0.000000
1810.623169
0.000000
0.000000
2594.808105
0.000000
0.000000
0.000000
607.207825
1307.757935
1270.302490
3258.343750
341.841187
0.000000
523.271851
0.000000
0.000000
506.479401
0.000000
0.000000
0.000000
0.000000
0.000000
0.000000
0.000000
0.000000
0.000000
0.000000
0.000000
0.000000
946.725281
0.000000
0.000000
0.000000
0.000000
1595.875488
0.000000
0.000000
1005.230042
0.000000
0.000000
1965.477173
1577.837280
0.000000
0.000000
0.000000
0.000000
0.000000
0.000000
0.000000
0.000000
0.000000
0.000000
0.000000
0.000000
0.000000
0.000000
0.000000
295.687195
0.000000
0.000000
0.000000
0.000000
0.000000
0.000000
884.867126
1477.094360
0.000000
0.000000
0.000000
0.000000
0.000000
0.000000
0.000000
0.000000
0.000000
0.000000
0.000000
0.000000
0.000000
0.000000
0.000000
0.000000
0.000000
1043.376221
0.000000
0.000000
0.000000
0.000000
1774.439697
737.366638
0.000000
0.000000
800.262634
0.000000
0.000000
0.000000
3011.014404
3029.361328
0.000000
0.000000
2967.707031
4004.645020
0.000000
0.000000
3689.768799
3655.143066
0.000000
0.000000
2352.961670
0.000000
0.000000
0.000000
1357.198242
0.000000
0.000000
0.000000
1090.593506
286.288483
0.000000
0.000000
1342.381958
0.000000
0.000000
0.000000
0.000000
0.000000
0.000000
0.000000
584.649902
0.000000
0.000000
0.000000
0.000000
1155.202759
0.000000
0.000000
1398.770508
1208.714844
0.000000
0.000000
1652.926392
1526.643433
0.000000
0.000000
1214.353760
2412.499268
0.000000
0.000000
1983.157837
0.000000
0.000000
0.000000
0.000000
0.000000
0.000000
0.000000
1465.063599
0.000000
0.000000
0.000000
0.000000
0.000000
0.000000
0.000000
355.035919
0.000000
0.000000
0.000000
0.000000
0.000000
0.000000
0.000000
0.000000
0.000000
0.000000
0.000000
0.000000
0.000000
0.000000
0.000000
802.593323
210.710159
0.000000
0.000000
2676.034424
2265.991943
0.000000
0.000000
3027.201416
2423.844971
0.000000
0.000000
2484.930664
2307.557129
0.000000
0.000000
3100.979248
3561.916016
0.000000
0.000000
2660.147705
1757.663696
0.000000
0.000000
3097.556152
2041.327393
0.000000
0.000000
2152.920410
1448.736084
1372.234741
2144.666016
0.000000
143.365112
0.000000
2853.305664
0.000000
0.000000
0.000000
0.000000
0.000000
0.000000
0.000000
0.000000
0.000000
0.000000
0.000000
0.000000
0.000000
0.000000
0.000000
0.000000
0.000000
0.000000
0.000000
0.000000
2085.921875
2090.640381
2642.979248
3143.613037
1252.599854
281.920319
0.000000
1652.955200
1125.874756
855.089661
1957.366333
987.431335
0.000000
0.000000
74.236549
0.000000
0.000000
0.000000
0.000000
0.000000
0.000000
0.000000
0.000000
0.000000
0.000000
0.000000
0.000000
0.000000
0.000000
0.000000
0.000000
0.000000
0.000000
0.000000
0.000000
0.000000
0.000000
0.000000
0.000000
0.000000
0.000000
0.000000
0.000000
0.000000
0.000000
0.000000
0.000000
0.000000
0.000000
0.000000
0.000000
0.000000
0.000000
0.000000
0.000000
0.000000
0.000000
0.000000
0.000000
0.000000
0.000000
0.000000
0.000000
0.000000
0.000000
0.000000
0.000000
0.000000
0.000000
0.000000
0.000000
0.000000
0.000000
0.000000
0.000000
0.000000
0.000000
0.000000
0.000000
0.000000
0.000000
0.000000
</DataArray>
</PointData>
<Cells>
<DataArray type='Int32' Name='connectivity' format='ascii'>
0
1
2
3
4
5
6
7
8
9
10
11
12
13
14
15
16
17
18
19
20
21
22
23
24
25
26
27
28
29
30
31
32
33
34
35
36
37
38
39
40
41
42
43
44
45
46
47
48
49
50
51
52
53
54
55
56
57
58
59
60
61
62
63
64
65
66
67
68
69
70
71
72
73
74
75
76
77
78
79
80
81
82
83
84
85
86
87
88
89
90
91
92
93
94
95
96
97
98
99
100
101
102
103
104
105
106
107
108
109
110
111
112
113
114
115
116
117
118
119
120
121
122
123
124
125
126
127
128
129
130
131
132
133
134
135
136
137
138
139
140
141
142
143
144
145
146
147
148
149
150
151
152
153
154
155
156
157
158
159
160
161
162
163
164
165
166
167
168
169
170
171
172
173
174
175
176
177
178
179
180
181
182
183
184
185
186
187
188
189
190
191
192
193
194
195
196
197
198
199
200
201
202
203
204
205
206
207
208
209
210
211
212
213
214
215
216
217
218
219
220
221
222
223
224
225
226
227
228
229
230
231
232
233
234
235
236
237
238
239
240
241
242
243
244
245
246
247
248
249
250
251
252
253
254
255
256
257
258
259
260
261
262
263
264
265
266
267
268
269
270
271
272
273
274
275
276
277
278
279
280
281
282
283
284
285
286
287
288
289
290
291
292
293
294
295
296
297
298
299
300
301
302
303
304
305
306
307
308
309
310
311
312
313
314
315
316
317
318
319
320
321
322
323
324
325
326
327
328
329
330
331
332
333
334
335
336
337
338
339
340
341
342