<?xml version='1.0' encoding='UTF-8'?>
<VTKFile xmlns='VTK' byte_order='LittleEndian' version='0.1' type='UnstructuredGrid'>
<UnstructuredGrid>
<Piece NumberOfCells='584' NumberOfPoints='584'>
<Points>
<DataArray NumberOfComponents='3' type='Float32' Name='Position' format='ascii'>
-0.075000 -0.075000 0.000000
-0.075000 -0.050000 0.000000
-0.075000 -0.025000 0.000000
-0.075000 0.000000 0.000000
-0.075000 0.025000 0.000000
-0.075000 0.050000 0.000000
-0.075000 0.075000 0.000000
-0.075000 0.100000 0.000000
-0.075000 0.125000 0.000000
-0.075000 0.150000 0.000000
-0.075000 0.175000 0.000000
-0.075000 0.200000 0.000000
-0.075000 0.225000 0.000000
-0.075000 0.250000 0.000000
-0.075000 0.275000 0.000000
-0.075000 0.300000 0.000000
-0.075000 0.325000 0.000000
-0.075000 0.350000 0.000000
-0.075000 0.375000 0.000000
-0.075000 0.400000 0.000000
-0.075000 0.425000 0.000000
-0.075000 0.450000 0.000000
-0.075000 0.475000 0.000000
-0.075000 0.500000 0.000000
-0.075000 0.525000 0.000000
-0.075000 0.550000 0.000000
-0.075000 0.575000 0.000000
-0.075000 0.600000 0.000000
-0.050000 -0.075000 0.000000
-0.050000 -0.050000 0.000000
-0.050000 -0.025000 0.000000
-0.050000 0.000000 0.000000
-0.050000 0.025000 0.000000
-0.050000 0.050000 0.000000
-0.050000 0.075000 0.000000
-0.050000 0.100000 0.000000
-0.050000 0.125000 0.000000
-0.050000 0.150000 0.000000
-0.050000 0.175000 0.000000
-0.050000 0.200000 0.000000
-0.050000 0.225000 0.000000
-0.050000 0.250000 0.000000
-0.050000 0.275000 0.000000
-0.050000 0.300000 0.000000
-0.050000 0.325000 0.000000
-0.050000 0.350000 0.000000
-0.050000 0.375000 0.000000
-0.050000 0.400000 0.000000
-0.050000 0.425000 0.000000
-0.050000 0.450000 0.000000
-0.050000 0.475000 0.000000
-0.050000 0.500000 0.000000
-0.050000 0.525000 0.000000
-0.050000 0.550000 0.000000
-0.050000 0.575000 0.000000
-0.050000 0.600000 0.000000
-0.025000 -0.075000 0.000000
-0.025000 -0.050000 0.000000
-0.025000 -0.025000 0.000000
-0.025000 0.000000 0.000000
-0.025000 0.025000 0.000000
-0.025000 0.050000 0.000000
-0.025000 0.075000 0.000000
-0.025000 0.100000 0.000000
-0.025000 0.125000 0.000000
-0.025000 0.150000 0.000000
-0.025000 0.175000 0.000000
-0.025000 0.200000 0.000000
-0.025000 0.225000 0.000000
-0.025000 0.250000 0.000000
-0.025000 0.275000 0.000000
-0.025000 0.300000 0.000000
-0.025000 0.325000 0.000000
-0.025000 0.350000 0.000000
-0.025000 0.375000 0.000000
-0.025000 0.400000 0.000000
-0.025000 0.425000 0.000000
-0.025000 0.450000 0.000000
-0.025000 0.475000 0.000000
-0.025000 0.500000 0.000000
-0.025000 0.525000 0.000000
-0.025000 0.550000 0.000000
-0.025000 0.575000 0.000000
-0.025000 0.600000 0.000000
0.000000 -0.075000 0.000000
0.000000 -0.050000 0.000000
0.000000 -0.025000 0.000000
0.000000 0.000000 0.000000
0.000000 0.025000 0.000000
0.000000 0.050000 0.000000
0.000000 0.075000 0.000000
0.000000 0.100000 0.000000
0.000000 0.125000 0.000000
0.000000 0.150000 0.000000
0.000000 0.175000 0.000000
0.000000 0.200000 0.000000
0.000000 0.225000 0.000000
0.000000 0.250000 0.000000
0.000000 0.275000 0.000000
0.000000 0.300000 0.000000
0.000000 0.325000 0.000000
0.000000 0.350000 0.000000
0.000000 0.375000 0.000000
0.000000 0.400000 0.000000
0.000000 0.425000 0.000000
0.000000 0.450000 0.000000
0.000000 0.475000 0.000000
0.000000 0.500000 0.000000
0.000000 0.525000 0.000000
0.000000 0.550000 0.000000
0.000000 0.575000 0.000000
0.000000 0.600000 0.000000
0.025000 -0.075000 0.000000
0.025000 -0.050000 0.000000
0.025000 -0.025000 0.000000
0.025000 0.000000 0.000000
0.251855 0.059851 0.000000
0.252603 0.020498 0.000000
0.191488 0.060784 0.000000
0.192396 0.020907 0.000000
0.335522 0.026241 0.000000
0.091093 0.040990 0.000000
0.413978 0.026055 0.000000
0.277970 0.033651 0.000000
0.225942 0.029881 0.000000
0.154414 0.073192 0.000000
0.298723 0.021449 0.000000
0.186715 0.095545 0.000000
0.168845 0.027176 0.000000
0.057662 0.021124 0.000000
0.090020 0.066220 0.000000
0.021740 0.037613 0.000000
0.124033 0.037683 0.000000
0.107625 0.018530 0.000000
0.121349 0.070242 0.000000
0.146557 0.026127 0.000000
0.050000 -0.075000 0.000000
0.050000 -0.050000 0.000000
0.050000 -0.025000 0.000000
0.050000 0.000000 0.000000
0.327402 0.075196 0.000000
0.368959 0.231610 0.000000
0.387535 0.190196 0.000000
0.046723 0.122421 0.000000
0.150620 0.127147 0.000000
0.591081 0.060950 0.000000
0.313067 0.104626 0.000000
0.712482 0.046963 0.000000
0.342469 0.055304 0.000000
0.369862 0.088148 0.000000
0.174563 0.111433 0.000000
0.389900 0.047008 0.000000
0.083760 0.083386 0.000000
0.372252 0.117609 0.000000
0.208269 0.080941 0.000000
0.153668 0.108390 0.000000
0.201477 0.044744 0.000000
0.317217 0.034741 0.000000
0.137336 0.049099 0.000000
0.173836 0.052901 0.000000
0.075000 -0.075000 0.000000
0.075000 -0.050000 0.000000
0.075000 -0.025000 0.000000
0.075000 0.000000 0.000000
0.341129 0.099912 0.000000
0.282543 0.142905 0.000000
0.524275 0.030914 0.000000
0.441403 0.019810 0.000000
0.719033 0.093425 0.000000
0.780244 0.025458 0.000000
0.787178 0.049413 0.000000
0.021222 0.148932 0.000000
0.687650 0.079976 0.000000
0.758941 0.058994 0.000000
0.563669 0.020928 0.000000
0.358814 0.162226 0.000000
0.280647 0.052340 0.000000
0.353253 0.071302 0.000000
0.359461 0.022398 0.000000
0.260834 0.107108 0.000000
0.308799 0.061538 0.000000
0.125225 0.127763 0.000000
0.252220 0.075234 0.000000
0.236525 0.041381 0.000000
0.100000 -0.075000 0.000000
0.100000 -0.050000 0.000000
0.100000 -0.025000 0.000000
0.100000 0.000000 0.000000
0.617183 0.020918 0.000000
0.540884 0.032678 0.000000
0.632161 0.050117 0.000000
0.881306 0.029572 0.000000
0.367957 0.048377 0.000000
0.862086 0.024076 0.000000
0.811863 0.099352 0.000000
0.444904 0.061808 0.000000
0.803885 0.030550 0.000000
0.818190 0.050869 0.000000
0.585319 0.033485 0.000000
0.569301 0.088889 0.000000
0.738239 0.077774 0.000000
0.742447 0.046047 0.000000
0.414958 0.091393 0.000000
0.390253 0.024639 0.000000
0.665164 0.023104 0.000000
0.556859 0.117159 0.000000
0.513902 0.073114 0.000000
0.402738 0.064664 0.000000
0.125000 -0.075000 0.000000
0.125000 -0.050000 0.000000
0.125000 -0.025000 0.000000
0.125000 0.000000 0.000000
0.825072 0.076220 0.000000
0.897047 0.100838 0.000000
0.996315 0.106692 0.000000
0.909462 0.021799 0.000000
0.839355 0.160208 0.000000
0.731156 0.023109 0.000000
0.517458 0.131496 0.000000
0.748688 0.152737 0.000000
0.925584 0.077063 0.000000
0.845843 0.077467 0.000000
0.939922 0.064064 0.000000
0.733424 0.137182 0.000000
0.643053 0.031566 0.000000
0.679151 0.059976 0.000000
0.503219 0.022304 0.000000
0.713634 0.066878 0.000000
0.632347 0.093472 0.000000
0.274732 0.105718 0.000000
0.658338 0.059828 0.000000
0.202532 0.106267 0.000000
0.150000 -0.075000 0.000000
0.150000 -0.050000 0.000000
0.150000 -0.025000 0.000000
0.150000 0.000000 0.000000
0.477015 0.106415 0.000000
0.985803 0.023880 0.000000
0.856502 0.127207 0.000000
0.487734 0.067332 0.000000
0.949344 0.044399 0.000000
0.227331 0.088249 0.000000
0.989456 0.085196 0.000000
0.622297 0.078601 0.000000
1.002534 0.066338 0.000000
0.912032 0.109044 0.000000
0.915797 0.044946 0.000000
0.828591 0.021190 0.000000
0.880679 0.052851 0.000000
0.900719 0.065995 0.000000
0.858359 0.058399 0.000000
0.753835 0.092049 0.000000
0.758970 0.026660 0.000000
0.778416 0.097258 0.000000
0.778146 0.075608 0.000000
0.548937 0.100982 0.000000
0.175000 -0.075000 0.000000
0.175000 -0.050000 0.000000
0.175000 -0.025000 0.000000
0.175000 0.000000 0.000000
0.128441 0.088008 0.000000
0.842427 0.139953 0.000000
0.983081 0.148447 0.000000
0.986996 0.123391 0.000000
0.969867 0.100431 0.000000
0.322145 0.132668 0.000000
0.933145 0.027328 0.000000
0.436067 0.111070 0.000000
0.489737 0.035120 0.000000
0.962844 0.024381 0.000000
0.782446 0.143881 0.000000
0.869108 0.111787 0.000000
0.698642 0.122389 0.000000
0.967728 0.072139 0.000000
0.977906 0.054606 0.000000
0.570443 0.046166 0.000000
1.003592 0.035413 0.000000
0.671525 0.109403 0.000000
0.493644 0.161056 0.000000
0.712585 0.137392 0.000000
0.200000 -0.075000 0.000000
0.200000 -0.050000 0.000000
0.200000 -0.025000 0.000000
0.200000 0.000000 0.000000
0.591270 0.081930 0.000000
0.236193 0.103274 0.000000
0.480415 0.087511 0.000000
0.935616 0.121137 0.000000
0.475629 0.046391 0.000000
0.604360 0.093826 0.000000
0.742072 0.113205 0.000000
0.949227 0.115423 0.000000
0.663657 0.143630 0.000000
0.304338 0.132744 0.000000
0.979471 0.160712 0.000000
0.841028 0.042090 0.000000
0.074918 0.040549 0.000000
0.613479 0.041455 0.000000
0.829713 0.113527 0.000000
0.337564 0.128451 0.000000
0.857023 0.098778 0.000000
0.577778 0.139798 0.000000
0.939984 0.097711 0.000000
0.801507 0.071459 0.000000
0.225000 -0.075000 0.000000
0.225000 -0.050000 0.000000
0.225000 -0.025000 0.000000
0.225000 0.000000 0.000000
0.507764 0.169630 0.000000
0.929352 0.569141 0.000000
0.784492 0.117577 0.000000
0.290358 0.072675 0.000000
0.299439 0.092726 0.000000
0.023623 0.115491 0.000000
0.701257 0.101014 0.000000
1.004869 0.144329 0.000000
0.795924 0.143407 0.000000
0.386468 0.125977 0.000000
0.854421 0.169291 0.000000
0.236822 0.128806 0.000000
0.454305 0.036519 0.000000
0.657951 0.081543 0.000000
0.269835 0.143676 0.000000
0.526211 0.087021 0.000000
0.683092 0.033267 0.000000
0.019281 0.085158 0.000000
0.448085 0.195450 0.000000
0.462380 0.077533 0.000000
0.250000 -0.075000 0.000000
0.250000 -0.050000 0.000000
0.250000 -0.025000 0.000000
0.250000 0.000000 0.000000
0.896277 0.129188 0.000000
0.636568 0.121959 0.000000
0.556262 0.143116 0.000000
0.543841 0.133165 0.000000
0.404578 0.132912 0.000000
0.654526 0.107035 0.000000
0.476381 0.158601 0.000000
0.426657 0.076006 0.000000
0.425388 0.049685 0.000000
0.756311 0.130091 0.000000
0.386999 0.086422 0.000000
0.050858 0.160356 0.000000
0.358170 0.131591 0.000000
0.705423 0.025694 0.000000
0.553653 0.066330 0.000000
0.423041 0.121489 0.000000
0.533578 0.064956 0.000000
0.886312 0.078823 0.000000
0.043138 0.103431 0.000000
0.814009 0.126389 0.000000
0.275000 -0.075000 0.000000
0.275000 -0.050000 0.000000
0.275000 -0.025000 0.000000
0.275000 0.000000 0.000000
0.300000 -0.075000 0.000000
0.300000 -0.050000 0.000000
0.300000 -0.025000 0.000000
0.300000 0.000000 0.000000
0.325000 -0.075000 0.000000
0.325000 -0.050000 0.000000
0.325000 -0.025000 0.000000
0.325000 0.000000 0.000000
0.350000 -0.075000 0.000000
0.350000 -0.050000 0.000000
0.350000 -0.025000 0.000000
0.350000 0.000000 0.000000
0.375000 -0.075000 0.000000
0.375000 -0.050000 0.000000
0.375000 -0.025000 0.000000
0.375000 0.000000 0.000000
0.400000 -0.075000 0.000000
0.400000 -0.050000 0.000000
0.400000 -0.025000 0.000000
0.400000 0.000000 0.000000
0.425000 -0.075000 0.000000
0.425000 -0.050000 0.000000
0.425000 -0.025000 0.000000
0.425000 0.000000 0.000000
0.450000 -0.075000 0.000000
0.450000 -0.050000 0.000000
0.450000 -0.025000 0.000000
0.450000 0.000000 0.000000
0.475000 -0.075000 0.000000
0.475000 -0.050000 0.000000
0.475000 -0.025000 0.000000
0.475000 0.000000 0.000000
0.500000 -0.075000 0.000000
0.500000 -0.050000 0.000000
0.500000 -0.025000 0.000000
0.500000 0.000000 0.000000
0.525000 -0.075000 0.000000
0.525000 -0.050000 0.000000
0.525000 -0.025000 0.000000
0.525000 0.000000 0.000000
0.550000 -0.075000 0.000000
0.550000 -0.050000 0.000000
0.550000 -0.025000 0.000000
0.550000 0.000000 0.000000
0.575000 -0.075000 0.000000
0.575000 -0.050000 0.000000
0.575000 -0.025000 0.000000
0.575000 0.000000 0.000000
0.600000 -0.075000 0.000000
0.600000 -0.050000 0.000000
0.600000 -0.025000 0.000000
0.600000 0.000000 0.000000
0.625000 -0.075000 0.000000
0.625000 -0.050000 0.000000
0.625000 -0.025000 0.000000
0.625000 0.000000 0.000000
0.650000 -0.075000 0.000000
0.650000 -0.050000 0.000000
0.650000 -0.025000 0.000000
0.650000 0.000000 0.000000
0.675000 -0.075000 0.000000
0.675000 -0.050000 0.000000
0.675000 -0.025000 0.000000
0.675000 0.000000 0.000000
0.700000 -0.075000 0.000000
0.700000 -0.050000 0.000000
0.700000 -0.025000 0.000000
0.700000 0.000000 0.000000
0.725000 -0.075000 0.000000
0.725000 -0.050000 0.000000
0.725000 -0.025000 0.000000
0.725000 0.000000 0.000000
0.750000 -0.075000 0.000000
0.750000 -0.050000 0.000000
0.750000 -0.025000 0.000000
0.750000 0.000000 0.000000
0.775000 -0.075000 0.000000
0.775000 -0.050000 0.000000
0.775000 -0.025000 0.000000
0.775000 0.000000 0.000000
0.800000 -0.075000 0.000000
0.800000 -0.050000 0.000000
0.800000 -0.025000 0.000000
0.800000 0.000000 0.000000
0.825000 -0.075000 0.000000
0.825000 -0.050000 0.000000
0.825000 -0.025000 0.000000
0.825000 0.000000 0.000000
0.850000 -0.075000 0.000000
0.850000 -0.050000 0.000000
0.850000 -0.025000 0.000000
0.850000 0.000000 0.000000
0.875000 -0.075000 0.000000
0.875000 -0.050000 0.000000
0.875000 -0.025000 0.000000
0.875000 0.000000 0.000000
0.900000 -0.075000 0.000000
0.900000 -0.050000 0.000000
0.900000 -0.025000 0.000000
0.900000 0.000000 0.000000
0.925000 -0.075000 0.000000
0.925000 -0.050000 0.000000
0.925000 -0.025000 0.000000
0.925000 0.000000 0.000000
0.950000 -0.075000 0.000000
0.950000 -0.050000 0.000000
0.950000 -0.025000 0.000000
0.950000 0.000000 0.000000
0.975000 -0.075000 0.000000
0.975000 -0.050000 0.000000
0.975000 -0.025000 0.000000
0.975000 0.000000 0.000000
1.000000 -0.075000 0.000000
1.000000 -0.050000 0.000000
1.000000 -0.025000 0.000000
1.000000 0.000000 0.000000
1.025000 -0.075000 0.000000
1.025000 -0.050000 0.000000
1.025000 -0.025000 0.000000
1.025000 0.000000 0.000000
1.025000 0.025000 0.000000
1.025000 0.050000 0.000000
1.025000 0.075000 0.000000
1.025000 0.100000 0.000000
1.025000 0.125000 0.000000
1.025000 0.150000 0.000000
1.025000 0.175000 0.000000
1.025000 0.200000 0.000000
1.025000 0.225000 0.000000
1.025000 0.250000 0.000000
1.025000 0.275000 0.000000
1.025000 0.300000 0.000000
1.025000 0.325000 0.000000
1.025000 0.350000 0.000000
1.025000 0.375000 0.000000
1.025000 0.400000 0.000000
1.025000 0.425000 0.000000
1.025000 0.450000 0.000000
1.025000 0.475000 0.000000
1.025000 0.500000 0.000000
1.025000 0.525000 0.000000
1.025000 0.550000 0.000000
1.025000 0.575000 0.000000
1.025000 0.600000 0.000000
1.050000 -0.075000 0.000000
1.050000 -0.050000 0.000000
1.050000 -0.025000 0.000000
1.050000 0.000000 0.000000
1.050000 0.025000 0.000000
1.050000 0.050000 0.000000
1.050000 0.075000 0.000000
1.050000 0.100000 0.000000
1.050000 0.125000 0.000000
1.050000 0.150000 0.000000
1.050000 0.175000 0.000000
1.050000 0.200000 0.000000
1.050000 0.225000 0.000000
1.050000 0.250000 0.000000
1.050000 0.275000 0.000000
1.050000 0.300000 0.000000
1.050000 0.325000 0.000000
1.050000 0.350000 0.000000
1.050000 0.375000 0.000000
1.050000 0.400000 0.000000
1.050000 0.425000 0.000000
1.050000 0.450000 0.000000
1.050000 0.475000 0.000000
1.050000 0.500000 0.000000
1.050000 0.525000 0.000000
1.050000 0.550000 0.000000
1.050000 0.575000 0.000000
1.050000 0.600000 0.000000
1.075000 -0.075000 0.000000
1.075000 -0.050000 0.000000
1.075000 -0.025000 0.000000
1.075000 0.000000 0.000000
1.075000 0.025000 0.000000
1.075000 0.050000 0.000000
1.075000 0.075000 0.000000
1.075000 0.100000 0.000000
1.075000 0.125000 0.000000
1.075000 0.150000 0.000000
1.075000 0.175000 0.000000
1.075000 0.200000 0.000000
1.075000 0.225000 0.000000
1.075000 0.250000 0.000000
1.075000 0.275000 0.000000
1.075000 0.300000 0.000000
1.075000 0.325000 0.000000
1.075000 0.350000 0.000000
1.075000 0.375000 0.000000
1.075000 0.400000 0.000000
1.075000 0.425000 0.000000
1.075000 0.450000 0.000000
1.075000 0.475000 0.000000
1.075000 0.500000 0.000000
1.075000 0.525000 0.000000
1.075000 0.550000 0.000000
1.075000 0.575000 0.000000
1.075000 0.600000 0.000000
1.100000 -0.075000 0.000000
1.100000 -0.050000 0.000000
1.100000 -0.025000 0.000000
1.100000 0.000000 0.000000
1.100000 0.025000 0.000000
1.100000 0.050000 0.000000
1.100000 0.075000 0.000000
1.100000 0.100000 0.000000
1.100000 0.125000 0.000000
1.100000 0.150000 0.000000
1.100000 0.175000 0.000000
1.100000 0.200000 0.000000
1.100000 0.225000 0.000000
1.100000 0.250000 0.000000
1.100000 0.275000 0.000000
1.100000 0.300000 0.000000
1.100000 0.325000 0.000000
1.100000 0.350000 0.000000
1.100000 0.375000 0.000000
1.100000 0.400000 0.000000
1.100000 0.425000 0.000000
1.100000 0.450000 0.000000
1.100000 0.475000 0.000000
1.100000 0.500000 0.000000
1.100000 0.525000 0.000000
1.100000 0.550000 0.000000
1.100000 0.575000 0.000000
1.100000 0.600000 0.000000
</DataArray>
</Points>
<PointData>
<DataArray NumberOfComponents='1' type='Int32' Name='ParticleType' format='ascii'>
3
3
3
3
3
3
3
3
3
3
3
3
3
3
3
3
3
3
3
3
3
3
3
3
3
3
2
2
3
3
3
3
3
3
3
3
3
3
3
3
3
3
3
3
3
3
3
3
3
3
3
3
3
3
2
2
3
3
2
2
2
2
2
2
2
2
2
2
2
2
2
2
2
2
2
2
2
2
2
2
2
2
2
2
3
3
2
2
2
2
2
2
2
2
2
2
2
2
2
2
2
2
2
2
2
2
2
2
2
2
2
2
3
3
2
2
0
0
0
0
0
0
0
0
0
0
0
0
0
0
0
0
0
0
0
0
3
3
2
2
0
0
0
0
0
0
0
0
0
0
0
0
0
0
0
0
0
0
0
0
3
3
2
2
0
0
0
0
0
0
0
0
0
0
0
0
0
0
0
0
0
0
0
0
3
3
2
2
0
0
0
0
0
0
0
0
0
0
0
0
0
0
0
0
0
0
0
0
3
3
2
2
0
0
0
0
0
0
0
0
0
0
0
0
0
0
0
0
0
0
0
0
3
3
2
2
0
0
0
0
0
0
0
0
0
0
0
0
0
0
0
0
0
0
0
0
3
3
2
2
0
0
0
0
0
0
0
0
0
0
0
0
0
0
0
0
0
0
0
0
3
3
2
2
0
0
0
0
0
0
0
0
0
0
0
0
0
0
0
0
0
0
0
0
3
3
2
2
0
0
0
0
0
0
0
0
0
0
0
0
0
0
0
0
0
0
0
0
3
3
2
2
0
0
0
0
0
0
0
0
0
0
0
0
0
0
0
0
0
0
0
0
3
3
2
2
3
3
2
2
3
3
2
2
3
3
2
2
3
3
2
2
3
3
2
2
3
3
2
2
3
3
2
2
3
3
2
2
3
3
2
2
3
3
2
2
3
3
2
2
3
3
2
2
3
3
2
2
3
3
2
2
3
3
2
2
3
3
2
2
3
3
2
2
3
3
2
2
3
3
2
2
3
3
2
2
3
3
2
2
3
3
2
2
3
3
2
2
3
3
2
2
3
3
2
2
3
3
2
2
3
3
2
2
3
3
2
2
3
3
2
2
3
3
2
2
2
2
2
2
2
2
2
2
2
2
2
2
2
2
2
2
2
2
2
2
2
2
2
2
3
3
2
2
2
2
2
2
2
2
2
2
2
2
2
2
2
2
2
2
2
2
2
2
2
2
2
2
3
3
3
3
3
3
3
3
3
3
3
3
3
3
3
3
3
3
3
3
3
3
3
3
3
3
2
2
3
3
3
3
3
3
3
3
3
3
3
3
3
3
3
3
3
3
3
3
3
3
3
3
3
3
2
2
</DataArray>
<DataArray NumberOfComponents='1' type='Float32' Name='Velocity' format='ascii'>
0.000000
0.000000
0.000000
0.000000
0.000000
0.000000
0.000000
0.000000
0.000000
0.000000
0.000000
0.000000
0.000000
0.000000
0.000000
0.000000
0.000000
0.000000
0.000000
0.000000
0.000000
0.000000
0.000000
0.000000
0.000000
0.000000
0.000000
0.000000
0.000000
0.000000
0.000000
0.000000
0.000000
0.000000
0.000000
0.000000
0.000000
0.000000
0.000000
0.000000
0.000000
0.000000
0.000000
0.000000
0.000000
0.000000
0.000000
0.000000
0.000000
0.000000
0.000000
0.000000
0.000000
0.000000
0.000000
0.000000
0.000000
0.000000
0.000000
0.000000
0.000000
0.000000
0.000000
0.000000
0.000000
0.000000
0.000000
0.000000
0.000000
0.000000
0.000000
0.000000
0.000000
0.000000
0.000000
0.000000
0.000000
0.000000
0.000000
0.000000
0.000000
0.000000
0.000000
0.000000
0.000000
0.000000
0.000000
0.000000
0.000000
0.000000
0.000000
0.000000
0.000000
0.000000
0.000000
0.000000
0.000000
0.000000
0.000000
0.000000
0.000000
0.000000
0.000000
0.000000
0.000000
0.000000
0.000000
0.000000
0.000000
0.000000
0.000000
0.000000
0.000000
0.000000
0.000000
0.000000
0.840180
0.360707
1.211972
0.202504
0.535504
0.211766
0.594777
0.149648
0.268568
0.476514
0.265450
0.842699
0.168147
0.561035
0.841763
0.691068
0.372114
0.256400
0.635091
0.186818
0.000000
0.000000
0.000000
0.000000
0.546208
1.375485
0.947575
2.549200
2.008193
0.732527
1.038269
0.386010
0.900257
0.277338
1.676229
0.590029
0.433872
1.496035
0.979387
1.764259
0.202532
0.719443
0.325748
0.245343
0.000000
0.000000
0.000000
0.000000
1.004414
1.608456
0.616748
0.656357
0.722973
0.504833
0.320307
0.931552
0.973935
0.558962
0.699322
1.164249
0.337454
0.428407
0.574257
1.136688
0.332863
2.110123
0.326274
0.491580
0.000000
0.000000
0.000000
0.000000
0.545448
0.774216
0.417499
0.397082
0.829647
0.170616
0.480509
1.049811
0.579332
0.275248
0.662067
0.887341
0.798774
0.315858
1.279459
0.508340
0.387661
1.906866
0.664769
1.277517
0.000000
0.000000
0.000000
0.000000
0.676514
0.601967
0.197603
0.109887
0.757887
0.568668
1.649780
0.940204
0.326310
0.596793
0.325430
0.666139
0.407736
0.581177
0.446753
0.569495
1.296926
1.273877
0.621250
1.626692
0.000000
0.000000
0.000000
0.000000
1.462018
0.255724
1.258244
0.516644
0.195371
1.418959
0.265842
0.904256
0.073114
0.546558
0.197944
0.394329
0.229979
0.421076
0.373044
0.602053
0.627062
0.445430
0.456231
1.249765
0.000000
0.000000
0.000000
0.000000
1.751725
0.804137
0.479493
0.215666
0.579514
1.554507
0.244080
1.619081
0.527174
0.224574
0.668088
0.680274
0.876558
0.503222
0.459241
0.696708
0.183865
0.914513
1.391674
1.131531
0.000000
0.000000
0.000000
0.000000
0.650528
1.675958
1.175171
0.552740
0.663926
1.027989
0.463634
0.413501
1.171245
1.871712
0.476068
0.630366
0.590591
0.586120
0.513537
1.585845
0.479759
0.663279
0.237091
0.565951
0.000000
0.000000
0.000000
0.000000
1.007808
3.787352
1.023382
0.538805
1.342263
0.758588
0.764002
0.139954
0.912984
1.774874
0.928799
1.578658
0.314279
1.195700
1.582598
0.748311
0.460818
1.335111
0.593611
1.032554
0.000000
0.000000
0.000000
0.000000
1.312712
1.036840
1.264519
0.940595
0.866741
0.790787
1.499945
1.099639
0.752337
0.852748
0.063944
0.274254
1.634142
0.469627
0.290765
1.423688
0.833127
0.623542
1.087948
1.093125
0.000000
0.000000
0.000000
0.000000
0.000000
0.000000
0.000000
0.000000
0.000000
0.000000
0.000000
0.000000
0.000000
0.000000
0.000000
0.000000
0.000000
0.000000
0.000000
0.000000
0.000000
0.000000
0.000000
0.000000
0.000000
0.000000
0.000000
0.000000
0.000000
0.000000
0.000000
0.000000
0.000000
0.000000
0.000000
0.000000
0.000000
0.000000
0.000000
0.000000
0.000000
0.000000
0.000000
0.000000
0.000000
0.000000
0.000000
0.000000
0.000000
0.000000
0.000000
0.000000
0.000000
0.000000
0.000000
0.000000
0.000000
0.000000
0.000000
0.000000
0.000000
0.000000
0.000000
0.000000
0.000000
0.000000
0.000000
0.000000
0.000000
0.000000
0.000000
0.000000
0.000000
0.000000
0.000000
0.000000
0.000000
0.000000
0.000000
0.000000
0.000000
0.000000
0.000000
0.000000
0.000000
0.000000
0.000000
0.000000
0.000000
0.000000
0.000000
0.000000
0.000000
0.000000
0.000000
0.000000
0.000000
0.000000
0.000000
0.000000
0.000000
0.000000
0.000000
0.000000
0.000000
0.000000
0.000000
0.000000
0.000000
0.000000
0.000000
0.000000
0.000000
0.000000
0.000000
0.000000
0.000000
0.000000
0.000000
0.000000
0.000000
0.000000
0.000000
0.000000
0.000000
0.000000
0.000000
0.000000
0.000000
0.000000
0.000000
0.000000
0.000000
0.000000
0.000000
0.000000
0.000000
0.000000
0.000000
0.000000
0.000000
0.000000
0.000000
0.000000
0.000000
0.000000
0.000000
0.000000
0.000000
0.000000
0.000000
0.000000
0.000000
0.000000
0.000000
0.000000
0.000000
0.000000
0.000000
0.000000
0.000000
0.000000
0.000000
0.000000
0.000000
0.000000
0.000000
0.000000
0.000000
0.000000
0.000000
0.000000
0.000000
0.000000
0.000000
0.000000
0.000000
0.000000
0.000000
0.000000
0.000000
0.000000
0.000000
0.000000
0.000000
0.000000
0.000000
0.000000
0.000000
0.000000
0.000000
0.000000
0.000000
0.000000
0.000000
0.000000
0.000000
0.000000
0.000000
0.000000
0.000000
0.000000
0.000000
0.000000
0.000000
0.000000
0.000000
0.000000
0.000000
0.000000
0.000000
0.000000
0.000000
0.000000
0.000000
0.000000
0.000000
0.000000
0.000000
0.000000
0.000000
0.000000
0.000000
0.000000
0.000000
0.000000
0.000000
0.000000
0.000000
0.000000
0.000000
0.000000
</DataArray>
<DataArray NumberOfComponents='1' type='Float32' Name='pressure' format='ascii'>
0.000000
0.000000
0.000000
0.000000
0.000000
0.000000
0.000000
0.000000
0.000000
0.000000
0.000000
0.000000
0.000000
0.000000
0.000000
0.000000
0.000000
0.000000
0.000000
0.000000
0.000000
0.000000
0.000000
0.000000
0.000000
0.000000
0.000000
0.000000
0.000000
0.000000
0.000000
0.000000
0.000000
0.000000
0.000000
0.000000
0.000000
0.000000
0.000000
0.000000
0.000000
0.000000
0.000000
0.000000
0.000000
0.000000
0.000000
0.000000
0.000000
0.000000
0.000000
0.000000
0.000000
0.000000
0.000000
0.000000
0.000000
0.000000
222.949921
377.748108
1222.433228
1788.884521
3382.455811
3563.349365
1857.583496
2090.862549
0.000000
0.000000
0.000000
0.000000
0.000000
0.000000
0.000000
0.000000
0.000000
0.000000
0.000000
0.000000
0.000000
0.000000
0.000000
0.000000
0.000000
0.000000
0.000000
0.000000
141.755478
0.000000
0.000000
0.000000
0.000000
2768.409424
839.955261
0.000000
0.000000
0.000000
0.000000
0.000000
0.000000
0.000000
0.000000
0.000000
0.000000
0.000000
0.000000
0.000000
0.000000
0.000000
0.000000
0.000000
0.000000
0.000000
0.000000
0.000000
0.000000
0.000000
0.000000
0.000000
0.000000
1827.615356
1410.492432
0.000000
41.042419
0.000000
0.000000
0.000000
1757.531128
0.000000
936.358032
0.000000
0.000000
0.000000
1006.705322
5.505682
0.000000
0.000000
0.000000
0.000000
1906.158447
0.000000
0.000000
0.000000
0.000000
0.000000
0.000000
0.000000
0.000000
914.106750
2169.918213
762.771179
0.000000
2732.568848
0.000000
3497.458740
0.000000
0.000000
0.000000
1596.223145
0.000000
0.000000
0.000000
0.000000
1720.831299
0.000000
0.000000
0.000000
740.950562
2443.483398
509.947021
3173.904053
927.244568
0.000000
64.327072
1138.243652
1320.016724
0.000000
0.000000
1850.209839
522.555298
1843.457520
1687.368774
0.000000
0.000000
660.935608
0.000000
0.000000
3969.412842
2787.991943
2136.173340
944.625732
0.000000
2053.479980
0.000000
2337.353760
0.000000
1121.955078
2192.787842
2749.343750
0.000000
0.000000
1288.839233
1371.730347
0.000000
1734.588135
1617.906860
0.000000
0.000000
1586.351929
0.000000
0.000000
2709.520996
456.896973
1183.697876
1503.844849
2166.406982
2565.598389
0.000000
1587.606445
0.000000
0.000000
1469.589233
521.325500
1788.588745
0.000000
862.221863
404.915558
1924.457397
426.698914
0.000000
207.060394
0.000000
0.000000
0.000000
0.000000
946.096191
0.000000
0.000000
2995.143555
0.000000
0.000000
2731.468018
3365.287354
2898.882812
0.000000
1872.351074
192.579163
1059.164551
1284.802002
1566.213501
2430.267578
1708.281860
1095.614258
1198.127930
524.184937
2141.541504
0.000000
0.000000
0.000000
1729.987549
1808.158813
0.000000
0.000000
0.000000
0.000000
0.000000
0.000000
1965.866821
0.000000
178.198181
1849.432129
0.000000
1090.168579
0.000000
185.883926
0.000000
672.192200
2441.441650
0.000000
0.000000
0.000000
0.000000
0.000000
2728.210205
1370.163940
802.153625
0.000000
0.000000
0.000000
1454.864014
0.000000
0.000000
770.710693
0.000000
0.000000
0.000000
2480.400391
0.000000
236.056442
1554.229492
421.648560
1411.923828
0.000000
2242.766602
961.982178
0.000000
0.000000
877.039917
0.000000
0.000000
0.000000
0.000000
832.268433
207.113373
0.000000
1511.868896
0.000000
0.000000
0.000000
0.000000
0.000000
0.000000
0.000000
0.000000
0.000000
420.311310
0.000000
0.000000
0.000000
0.000000
0.000000
3407.313721
3412.574463
0.000000
0.000000
0.000000
0.000000
0.000000
195.049103
0.000000
710.597839
1339.339233
0.000000
0.000000
0.000000
0.000000
1805.852295
0.000000
0.000000
0.000000
587.019165
0.000000
0.000000
0.000000
0.000000
2058.256592
0.000000
0.000000
0.000000
3713.697021
4252.723633
0.000000
0.000000
1840.794189
2697.415283
0.000000
0.000000
2909.452881
2289.250000
0.000000
0.000000
2541.638428
1822.731934
0.000000
0.000000
2378.980225
2281.598633
0.000000
0.000000
3537.318604
4332.091797
0.000000
0.000000
3678.887207
995.372864
0.000000
0.000000
709.773682
0.000000
0.000000
0.000000
1864.308350
773.753235
0.000000
0.000000
332.505249
319.459229
0.000000
0.000000
1706.202759
432.236420
0.000000
0.000000
2105.663574
219.527863
0.000000
0.000000
1705.292114
0.000000
0.000000
0.000000
2600.087158
2022.011353
0.000000
0.000000
1096.214722
0.000000
0.000000
0.000000
1427.207275
959.593506
0.000000
0.000000
928.540161
973.235901
0.000000
0.000000
1750.061768
2039.663940
0.000000
0.000000
603.519897
1000.981445
0.000000
0.000000
795.527893
429.653748
0.000000
0.000000
710.897583
0.000000
0.000000
0.000000
3379.584717
3489.455078
0.000000
0.000000
2693.165527
2355.184082
0.000000
0.000000
2198.465820
665.733337
0.000000
0.000000
3354.183838
3362.248291
0.000000
0.000000
2812.507568
2803.374756
0.000000
0.000000
2049.119385
1854.475342
0.000000
0.000000
2575.452637
2520.325928
0.000000
0.000000
1613.542358
1013.860535
0.000000
0.000000
1827.939087
1171.737915
2585.455811
2912.892334
398.236053
0.000000
0.000000
0.000000
0.000000
0.000000
0.000000
0.000000
0.000000
0.000000
0.000000
0.000000
0.000000
0.000000
0.000000
0.000000
0.000000
0.000000
0.000000
0.000000
0.000000
0.000000
0.000000
0.000000
1935.301025
2203.104736
3349.178467
3538.348145
2213.484619
41.566181
569.988770
1468.301025
0.000000
0.000000
0.000000
0.000000
0.000000
0.000000
0.000000
0.000000
0.000000
0.000000
0.000000
0.000000
0.000000
0.000000
0.000000
0.000000
0.000000
0.000000
0.000000
0.000000
0.000000
0.000000
0.000000
0.000000
0.000000
0.000000
0.000000
0.000000
0.000000
0.000000
0.000000
0.000000
0.000000
0.000000
0.000000
0.000000
0.000000
0.000000
0.000000
0.000000
0.000000
0.000000
0.000000
0.000000
0.000000
0.000000
0.000000
0.000000
0.000000
0.000000
0.000000
0.000000
0.000000
0.000000
0.000000
0.000000
0.000000
0.000000
0.000000
0.000000
0.000000
0.000000
0.000000
0.000000
0.000000
0.000000
0.000000
0.000000
0.000000
0.000000
0.000000
0.000000
0.000000
0.000000
</DataArray>
</PointData>
<Cells>
<DataArray type='Int32' Name='connectivity' format='ascii'>
0
1
2
3
4
5
6
7
8
9
10
11
12
13
14
15
16
17
18
19
20
21
22
23
24
25
26
27
28
29
30
31
32
33
34
35
36
37
38
39
40
41
42
43
44
45
46
47
48
49
50
51
52
53
54
55
56
57
58
59
60
61
62
63
64
65
66
67
68
69
70
71
72
73
74
75
76
77
78
79
80
81
82
83
84
85
86
87
88
89
90
91
92
93
94
95
96
97
98
99
100
101
102
103
104
105
106
107
108
109
110
111
112
113
114
115
116
117
118
119
120
121
122
123
124
125
126
127
128
129
130
131
132
133
134
135
136
137
138
139
140
141
142
143
144
145
146
147
148
149
150
151
152
153
154
155
156
157
158
159
160
161
162
163
164
165
166
167
168
169
170
171
172
173
174
175
176
177
178
179
180
181
182
183
184
185
186
187
188
189
190
191
192
193
194
195
196
197
198
199
200
201
202
203
204
205
206
207
208
209
210
211
212
213
214
215
216
217
218
219
220
221
222
223
224
225
226
227
228
229
230
231
232
233
234
235
236
237
238
239
240
241
242
243
244
245
246
247
248
249
250
251
252
253
254
255
256
257
258
259
260
261
262
263
264
265
266
267
268
269
270
271
272
273
274
275
276
277
278
279
280
281
282
283
284
285
286
287
288
289
290
291
292
293
294
295
296
297
298
299
300
301
302
303
304
305
306
307
308
309
310
311
312
313