<?xml version='1.0' encoding='UTF-8'?>
<VTKFile xmlns='VTK' byte_order='LittleEndian' version='0.1' type='UnstructuredGrid'>
<UnstructuredGrid>
<Piece NumberOfCells='584' NumberOfPoints='584'>
<Points>
<DataArray NumberOfComponents='3' type='Float32' Name='Position' format='ascii'>
-0.075000 -0.075000 0.000000
-0.075000 -0.050000 0.000000
-0.075000 -0.025000 0.000000
-0.075000 0.000000 0.000000
-0.075000 0.025000 0.000000
-0.075000 0.050000 0.000000
-0.075000 0.075000 0.000000
-0.075000 0.100000 0.000000
-0.075000 0.125000 0.000000
-0.075000 0.150000 0.000000
-0.075000 0.175000 0.000000
-0.075000 0.200000 0.000000
-0.075000 0.225000 0.000000
-0.075000 0.250000 0.000000
-0.075000 0.275000 0.000000
-0.075000 0.300000 0.000000
-0.075000 0.325000 0.000000
-0.075000 0.350000 0.000000
-0.075000 0.375000 0.000000
-0.075000 0.400000 0.000000
-0.075000 0.425000 0.000000
-0.075000 0.450000 0.000000
-0.075000 0.475000 0.000000
-0.075000 0.500000 0.000000
-0.075000 0.525000 0.000000
-0.075000 0.550000 0.000000
-0.075000 0.575000 0.000000
-0.075000 0.600000 0.000000
-0.050000 -0.075000 0.000000
-0.050000 -0.050000 0.000000
-0.050000 -0.025000 0.000000
-0.050000 0.000000 0.000000
-0.050000 0.025000 0.000000
-0.050000 0.050000 0.000000
-0.050000 0.075000 0.000000
-0.050000 0.100000 0.000000
-0.050000 0.125000 0.000000
-0.050000 0.150000 0.000000
-0.050000 0.175000 0.000000
-0.050000 0.200000 0.000000
-0.050000 0.225000 0.000000
-0.050000 0.250000 0.000000
-0.050000 0.275000 0.000000
-0.050000 0.300000 0.000000
-0.050000 0.325000 0.000000
-0.050000 0.350000 0.000000
-0.050000 0.375000 0.000000
-0.050000 0.400000 0.000000
-0.050000 0.425000 0.000000
-0.050000 0.450000 0.000000
-0.050000 0.475000 0.000000
-0.050000 0.500000 0.000000
-0.050000 0.525000 0.000000
-0.050000 0.550000 0.000000
-0.050000 0.575000 0.000000
-0.050000 0.600000 0.000000
-0.025000 -0.075000 0.000000
-0.025000 -0.050000 0.000000
-0.025000 -0.025000 0.000000
-0.025000 0.000000 0.000000
-0.025000 0.025000 0.000000
-0.025000 0.050000 0.000000
-0.025000 0.075000 0.000000
-0.025000 0.100000 0.000000
-0.025000 0.125000 0.000000
-0.025000 0.150000 0.000000
-0.025000 0.175000 0.000000
-0.025000 0.200000 0.000000
-0.025000 0.225000 0.000000
-0.025000 0.250000 0.000000
-0.025000 0.275000 0.000000
-0.025000 0.300000 0.000000
-0.025000 0.325000 0.000000
-0.025000 0.350000 0.000000
-0.025000 0.375000 0.000000
-0.025000 0.400000 0.000000
-0.025000 0.425000 0.000000
-0.025000 0.450000 0.000000
-0.025000 0.475000 0.000000
-0.025000 0.500000 0.000000
-0.025000 0.525000 0.000000
-0.025000 0.550000 0.000000
-0.025000 0.575000 0.000000
-0.025000 0.600000 0.000000
0.000000 -0.075000 0.000000
0.000000 -0.050000 0.000000
0.000000 -0.025000 0.000000
0.000000 0.000000 0.000000
0.000000 0.025000 0.000000
0.000000 0.050000 0.000000
0.000000 0.075000 0.000000
0.000000 0.100000 0.000000
0.000000 0.125000 0.000000
0.000000 0.150000 0.000000
0.000000 0.175000 0.000000
0.000000 0.200000 0.000000
0.000000 0.225000 0.000000
0.000000 0.250000 0.000000
0.000000 0.275000 0.000000
0.000000 0.300000 0.000000
0.000000 0.325000 0.000000
0.000000 0.350000 0.000000
0.000000 0.375000 0.000000
0.000000 0.400000 0.000000
0.000000 0.425000 0.000000
0.000000 0.450000 0.000000
0.000000 0.475000 0.000000
0.000000 0.500000 0.000000
0.000000 0.525000 0.000000
0.000000 0.550000 0.000000
0.000000 0.575000 0.000000
0.000000 0.600000 0.000000
0.025000 -0.075000 0.000000
0.025000 -0.050000 0.000000
0.025000 -0.025000 0.000000
0.025000 0.000000 0.000000
0.107042 0.024219 0.000000
0.083290 0.024642 0.000000
0.066661 0.037613 0.000000
0.047682 0.024579 0.000000
0.117767 0.041504 0.000000
0.024633 0.025572 0.000000
0.134743 0.056984 0.000000
0.102015 0.058955 0.000000
0.078894 0.066102 0.000000
0.055360 0.058673 0.000000
0.093808 0.081983 0.000000
0.054864 0.079766 0.000000
0.027934 0.049817 0.000000
0.024512 0.070960 0.000000
0.021562 0.097120 0.000000
0.040815 0.121008 0.000000
0.051791 0.141412 0.000000
0.023717 0.139865 0.000000
0.037394 0.183067 0.000000
0.030620 0.160554 0.000000
0.050000 -0.075000 0.000000
0.050000 -0.050000 0.000000
0.050000 -0.025000 0.000000
0.050000 0.000000 0.000000
0.142772 0.020101 0.000000
0.153852 0.039363 0.000000
0.173676 0.042622 0.000000
0.244445 0.040785 0.000000
0.200818 0.069002 0.000000
0.201170 0.092115 0.000000
0.177418 0.067506 0.000000
0.243222 0.107247 0.000000
0.117705 0.081849 0.000000
0.155779 0.070695 0.000000
0.133239 0.094517 0.000000
0.156885 0.094257 0.000000
0.045614 0.100467 0.000000
0.123916 0.114456 0.000000
0.083859 0.104888 0.000000
0.097230 0.125148 0.000000
0.069305 0.115309 0.000000
0.077866 0.151479 0.000000
0.058977 0.164775 0.000000
0.076611 0.175992 0.000000
0.075000 -0.075000 0.000000
0.075000 -0.050000 0.000000
0.075000 -0.025000 0.000000
0.075000 0.000000 0.000000
0.189930 0.019348 0.000000
0.224518 0.059966 0.000000
0.245541 0.020603 0.000000
0.200291 0.041005 0.000000
0.275234 0.045461 0.000000
0.363315 0.038540 0.000000
0.355667 0.079928 0.000000
0.234377 0.078807 0.000000
0.289174 0.069820 0.000000
0.263112 0.129931 0.000000
0.253057 0.085398 0.000000
0.184682 0.105768 0.000000
0.161699 0.115954 0.000000
0.140354 0.135882 0.000000
0.108719 0.136618 0.000000
0.101310 0.166733 0.000000
0.122065 0.170892 0.000000
0.151086 0.172835 0.000000
0.164530 0.144347 0.000000
0.092193 0.185059 0.000000
0.100000 -0.075000 0.000000
0.100000 -0.050000 0.000000
0.100000 -0.025000 0.000000
0.100000 0.000000 0.000000
0.302156 0.036304 0.000000
0.281984 0.023687 0.000000
0.337931 0.034237 0.000000
0.416085 0.067614 0.000000
0.219536 0.033873 0.000000
0.404675 0.023350 0.000000
0.405583 0.048611 0.000000
0.373531 0.054386 0.000000
0.336676 0.058714 0.000000
0.358686 0.102648 0.000000
0.262176 0.061128 0.000000
0.308688 0.058043 0.000000
0.292660 0.094641 0.000000
0.273314 0.101812 0.000000
0.215683 0.109736 0.000000
0.139785 0.157253 0.000000
0.250195 0.142447 0.000000
0.211952 0.126657 0.000000
0.201060 0.159613 0.000000
0.180389 0.132117 0.000000
0.125000 -0.075000 0.000000
0.125000 -0.050000 0.000000
0.125000 -0.025000 0.000000
0.125000 0.000000 0.000000
0.483761 0.021978 0.000000
0.371687 0.020043 0.000000
0.611088 0.025057 0.000000
0.582459 0.021798 0.000000
0.586441 0.047226 0.000000
0.320875 0.021599 0.000000
0.442670 0.022580 0.000000
0.460181 0.034208 0.000000
0.448977 0.059203 0.000000
0.379060 0.075186 0.000000
0.447711 0.087525 0.000000
0.412797 0.085285 0.000000
0.332153 0.080187 0.000000
0.269557 0.163803 0.000000
0.253531 0.169855 0.000000
0.284170 0.124286 0.000000
0.363521 0.145977 0.000000
0.240036 0.167760 0.000000
0.306973 0.144395 0.000000
0.209377 0.147191 0.000000
0.150000 -0.075000 0.000000
0.150000 -0.050000 0.000000
0.150000 -0.025000 0.000000
0.150000 0.000000 0.000000
0.718591 0.029415 0.000000
0.634889 0.029478 0.000000
0.692435 0.052841 0.000000
0.634552 0.061202 0.000000
0.701539 0.024769 0.000000
0.724415 0.060352 0.000000
0.562663 0.040549 0.000000
0.657330 0.039734 0.000000
0.547272 0.024689 0.000000
0.567736 0.065553 0.000000
0.522366 0.022866 0.000000
0.421672 0.038579 0.000000
0.500547 0.040569 0.000000
0.500857 0.061546 0.000000
0.425670 0.114586 0.000000
0.347585 0.111965 0.000000
0.313401 0.090879 0.000000
0.345976 0.139153 0.000000
0.320436 0.137582 0.000000
0.311526 0.120947 0.000000
0.175000 -0.075000 0.000000
0.175000 -0.050000 0.000000
0.175000 -0.025000 0.000000
0.175000 0.000000 0.000000
0.895895 0.069543 0.000000
0.785255 0.027051 0.000000
0.879332 0.024636 0.000000
0.903042 0.024723 0.000000
0.855877 0.025312 0.000000
0.740611 0.028253 0.000000
0.827295 0.023750 0.000000
0.802341 0.033319 0.000000
0.717007 0.075220 0.000000
0.757322 0.023833 0.000000
0.613201 0.045425 0.000000
0.651215 0.071587 0.000000
0.527784 0.045991 0.000000
0.539930 0.105515 0.000000
0.471811 0.053384 0.000000
0.537745 0.066013 0.000000
0.471170 0.076802 0.000000
0.442089 0.122648 0.000000
0.394126 0.114317 0.000000
0.395201 0.093367 0.000000
0.200000 -0.075000 0.000000
0.200000 -0.050000 0.000000
0.200000 -0.025000 0.000000
0.200000 0.000000 0.000000
0.975575 0.246079 0.000000
0.953574 0.021799 0.000000
0.969418 0.152903 0.000000
0.931517 0.027872 0.000000
0.986587 0.035047 0.000000
0.963963 0.040431 0.000000
0.937976 0.053567 0.000000
0.913129 0.046035 0.000000
0.850969 0.054871 0.000000
0.841283 0.070320 0.000000
0.801187 0.065311 0.000000
0.662942 0.021319 0.000000
0.764189 0.072240 0.000000
0.679275 0.051295 0.000000
0.552967 0.094284 0.000000
0.603348 0.104832 0.000000
0.613979 0.082053 0.000000
0.513943 0.076094 0.000000
0.512939 0.093913 0.000000
0.456066 0.118317 0.000000
0.225000 -0.075000 0.000000
0.225000 -0.050000 0.000000
0.225000 -0.025000 0.000000
0.225000 0.000000 0.000000
1.000644 0.078446 0.000000
0.984585 0.383532 0.000000
1.003604 0.029417 0.000000
0.958022 0.179024 0.000000
0.988149 0.060338 0.000000
0.975107 0.189337 0.000000
0.987435 0.135466 0.000000
0.977758 0.078529 0.000000
0.950914 0.069358 0.000000
0.984231 0.100892 0.000000
0.926046 0.078383 0.000000
0.927543 0.104101 0.000000
0.906824 0.092675 0.000000
0.868473 0.062778 0.000000
0.784722 0.066840 0.000000
0.748394 0.072989 0.000000
0.721290 0.088922 0.000000
0.629083 0.083300 0.000000
0.572758 0.090065 0.000000
0.459959 0.100937 0.000000
0.250000 -0.075000 0.000000
0.250000 -0.050000 0.000000
0.250000 -0.025000 0.000000
0.250000 0.000000 0.000000
1.004960 0.418548 0.000000
0.968656 0.328726 0.000000
0.993721 0.180400 0.000000
1.000524 0.155406 0.000000
0.964859 0.395784 0.000000
0.989920 0.199938 0.000000
0.949116 0.329461 0.000000
0.993335 0.289690 0.000000
0.943223 0.208300 0.000000
1.006771 0.117415 0.000000
0.958626 0.136377 0.000000
0.946509 0.165783 0.000000
0.967291 0.111039 0.000000
0.935284 0.132038 0.000000
0.944241 0.096215 0.000000
0.886807 0.050931 0.000000
0.827510 0.042872 0.000000
0.770132 0.051772 0.000000
0.673940 0.096508 0.000000
0.587218 0.072467 0.000000
0.275000 -0.075000 0.000000
0.275000 -0.050000 0.000000
0.275000 -0.025000 0.000000
0.275000 0.000000 0.000000
0.300000 -0.075000 0.000000
0.300000 -0.050000 0.000000
0.300000 -0.025000 0.000000
0.300000 0.000000 0.000000
0.325000 -0.075000 0.000000
0.325000 -0.050000 0.000000
0.325000 -0.025000 0.000000
0.325000 0.000000 0.000000
0.350000 -0.075000 0.000000
0.350000 -0.050000 0.000000
0.350000 -0.025000 0.000000
0.350000 0.000000 0.000000
0.375000 -0.075000 0.000000
0.375000 -0.050000 0.000000
0.375000 -0.025000 0.000000
0.375000 0.000000 0.000000
0.400000 -0.075000 0.000000
0.400000 -0.050000 0.000000
0.400000 -0.025000 0.000000
0.400000 0.000000 0.000000
0.425000 -0.075000 0.000000
0.425000 -0.050000 0.000000
0.425000 -0.025000 0.000000
0.425000 0.000000 0.000000
0.450000 -0.075000 0.000000
0.450000 -0.050000 0.000000
0.450000 -0.025000 0.000000
0.450000 0.000000 0.000000
0.475000 -0.075000 0.000000
0.475000 -0.050000 0.000000
0.475000 -0.025000 0.000000
0.475000 0.000000 0.000000
0.500000 -0.075000 0.000000
0.500000 -0.050000 0.000000
0.500000 -0.025000 0.000000
0.500000 0.000000 0.000000
0.525000 -0.075000 0.000000
0.525000 -0.050000 0.000000
0.525000 -0.025000 0.000000
0.525000 0.000000 0.000000
0.550000 -0.075000 0.000000
0.550000 -0.050000 0.000000
0.550000 -0.025000 0.000000
0.550000 0.000000 0.000000
0.575000 -0.075000 0.000000
0.575000 -0.050000 0.000000
0.575000 -0.025000 0.000000
0.575000 0.000000 0.000000
0.600000 -0.075000 0.000000
0.600000 -0.050000 0.000000
0.600000 -0.025000 0.000000
0.600000 0.000000 0.000000
0.625000 -0.075000 0.000000
0.625000 -0.050000 0.000000
0.625000 -0.025000 0.000000
0.625000 0.000000 0.000000
0.650000 -0.075000 0.000000
0.650000 -0.050000 0.000000
0.650000 -0.025000 0.000000
0.650000 0.000000 0.000000
0.675000 -0.075000 0.000000
0.675000 -0.050000 0.000000
0.675000 -0.025000 0.000000
0.675000 0.000000 0.000000
0.700000 -0.075000 0.000000
0.700000 -0.050000 0.000000
0.700000 -0.025000 0.000000
0.700000 0.000000 0.000000
0.725000 -0.075000 0.000000
0.725000 -0.050000 0.000000
0.725000 -0.025000 0.000000
0.725000 0.000000 0.000000
0.750000 -0.075000 0.000000
0.750000 -0.050000 0.000000
0.750000 -0.025000 0.000000
0.750000 0.000000 0.000000
0.775000 -0.075000 0.000000
0.775000 -0.050000 0.000000
0.775000 -0.025000 0.000000
0.775000 0.000000 0.000000
0.800000 -0.075000 0.000000
0.800000 -0.050000 0.000000
0.800000 -0.025000 0.000000
0.800000 0.000000 0.000000
0.825000 -0.075000 0.000000
0.825000 -0.050000 0.000000
0.825000 -0.025000 0.000000
0.825000 0.000000 0.000000
0.850000 -0.075000 0.000000
0.850000 -0.050000 0.000000
0.850000 -0.025000 0.000000
0.850000 0.000000 0.000000
0.875000 -0.075000 0.000000
0.875000 -0.050000 0.000000
0.875000 -0.025000 0.000000
0.875000 0.000000 0.000000
0.900000 -0.075000 0.000000
0.900000 -0.050000 0.000000
0.900000 -0.025000 0.000000
0.900000 0.000000 0.000000
0.925000 -0.075000 0.000000
0.925000 -0.050000 0.000000
0.925000 -0.025000 0.000000
0.925000 0.000000 0.000000
0.950000 -0.075000 0.000000
0.950000 -0.050000 0.000000
0.950000 -0.025000 0.000000
0.950000 0.000000 0.000000
0.975000 -0.075000 0.000000
0.975000 -0.050000 0.000000
0.975000 -0.025000 0.000000
0.975000 0.000000 0.000000
1.000000 -0.075000 0.000000
1.000000 -0.050000 0.000000
1.000000 -0.025000 0.000000
1.000000 0.000000 0.000000
1.025000 -0.075000 0.000000
1.025000 -0.050000 0.000000
1.025000 -0.025000 0.000000
1.025000 0.000000 0.000000
1.025000 0.025000 0.000000
1.025000 0.050000 0.000000
1.025000 0.075000 0.000000
1.025000 0.100000 0.000000
1.025000 0.125000 0.000000
1.025000 0.150000 0.000000
1.025000 0.175000 0.000000
1.025000 0.200000 0.000000
1.025000 0.225000 0.000000
1.025000 0.250000 0.000000
1.025000 0.275000 0.000000
1.025000 0.300000 0.000000
1.025000 0.325000 0.000000
1.025000 0.350000 0.000000
1.025000 0.375000 0.000000
1.025000 0.400000 0.000000
1.025000 0.425000 0.000000
1.025000 0.450000 0.000000
1.025000 0.475000 0.000000
1.025000 0.500000 0.000000
1.025000 0.525000 0.000000
1.025000 0.550000 0.000000
1.025000 0.575000 0.000000
1.025000 0.600000 0.000000
1.050000 -0.075000 0.000000
1.050000 -0.050000 0.000000
1.050000 -0.025000 0.000000
1.050000 0.000000 0.000000
1.050000 0.025000 0.000000
1.050000 0.050000 0.000000
1.050000 0.075000 0.000000
1.050000 0.100000 0.000000
1.050000 0.125000 0.000000
1.050000 0.150000 0.000000
1.050000 0.175000 0.000000
1.050000 0.200000 0.000000
1.050000 0.225000 0.000000
1.050000 0.250000 0.000000
1.050000 0.275000 0.000000
1.050000 0.300000 0.000000
1.050000 0.325000 0.000000
1.050000 0.350000 0.000000
1.050000 0.375000 0.000000
1.050000 0.400000 0.000000
1.050000 0.425000 0.000000
1.050000 0.450000 0.000000
1.050000 0.475000 0.000000
1.050000 0.500000 0.000000
1.050000 0.525000 0.000000
1.050000 0.550000 0.000000
1.050000 0.575000 0.000000
1.050000 0.600000 0.000000
1.075000 -0.075000 0.000000
1.075000 -0.050000 0.000000
1.075000 -0.025000 0.000000
1.075000 0.000000 0.000000
1.075000 0.025000 0.000000
1.075000 0.050000 0.000000
1.075000 0.075000 0.000000
1.075000 0.100000 0.000000
1.075000 0.125000 0.000000
1.075000 0.150000 0.000000
1.075000 0.175000 0.000000
1.075000 0.200000 0.000000
1.075000 0.225000 0.000000
1.075000 0.250000 0.000000
1.075000 0.275000 0.000000
1.075000 0.300000 0.000000
1.075000 0.325000 0.000000
1.075000 0.350000 0.000000
1.075000 0.375000 0.000000
1.075000 0.400000 0.000000
1.075000 0.425000 0.000000
1.075000 0.450000 0.000000
1.075000 0.475000 0.000000
1.075000 0.500000 0.000000
1.075000 0.525000 0.000000
1.075000 0.550000 0.000000
1.075000 0.575000 0.000000
1.075000 0.600000 0.000000
1.100000 -0.075000 0.000000
1.100000 -0.050000 0.000000
1.100000 -0.025000 0.000000
1.100000 0.000000 0.000000
1.100000 0.025000 0.000000
1.100000 0.050000 0.000000
1.100000 0.075000 0.000000
1.100000 0.100000 0.000000
1.100000 0.125000 0.000000
1.100000 0.150000 0.000000
1.100000 0.175000 0.000000
1.100000 0.200000 0.000000
1.100000 0.225000 0.000000
1.100000 0.250000 0.000000
1.100000 0.275000 0.000000
1.100000 0.300000 0.000000
1.100000 0.325000 0.000000
1.100000 0.350000 0.000000
1.100000 0.375000 0.000000
1.100000 0.400000 0.000000
1.100000 0.425000 0.000000
1.100000 0.450000 0.000000
1.100000 0.475000 0.000000
1.100000 0.500000 0.000000
1.100000 0.525000 0.000000
1.100000 0.550000 0.000000
1.100000 0.575000 0.000000
1.100000 0.600000 0.000000
</DataArray>
</Points>
<PointData>
<DataArray NumberOfComponents='1' type='Int32' Name='ParticleType' format='ascii'>
3
3
3
3
3
3
3
3
3
3
3
3
3
3
3
3
3
3
3
3
3
3
3
3
3
3
2
2
3
3
3
3
3
3
3
3
3
3
3
3
3
3
3
3
3
3
3
3
3
3
3
3
3
3
2
2
3
3
2
2
2
2
2
2
2
2
2
2
2
2
2
2
2
2
2
2
2
2
2
2
2
2
2
2
3
3
2
2
2
2
2
2
2
2
2
2
2
2
2
2
2
2
2
2
2
2
2
2
2
2
2
2
3
3
2
2
0
0
0
0
0
0
0
0
0
0
0
0
0
0
0
0
0
0
0
0
3
3
2
2
0
0
0
0
0
0
0
0
0
0
0
0
0
0
0
0
0
0
0
0
3
3
2
2
0
0
0
0
0
0
0
0
0
0
0
0
0
0
0
0
0
0
0
0
3
3
2
2
0
0
0
0
0
0
0
0
0
0
0
0
0
0
0
0
0
0
0
0
3
3
2
2
0
0
0
0
0
0
0
0
0
0
0
0
0
0
0
0
0
0
0
0
3
3
2
2
0
0
0
0
0
0
0
0
0
0
0
0
0
0
0
0
0
0
0
0
3
3
2
2
0
0
0
0
0
0
0
0
0
0
0
0
0
0
0
0
0
0
0
0
3
3
2
2
0
0
0
0
0
0
0
0
0
0
0
0
0
0
0
0
0
0
0
0
3
3
2
2
0
0
0
0
0
0
0
0
0
0
0
0
0
0
0
0
0
0
0
0
3
3
2
2
0
0
0
0
0
0
0
0
0
0
0
0
0
0
0
0
0
0
0
0
3
3
2
2
3
3
2
2
3
3
2
2
3
3
2
2
3
3
2
2
3
3
2
2
3
3
2
2
3
3
2
2
3
3
2
2
3
3
2
2
3
3
2
2
3
3
2
2
3
3
2
2
3
3
2
2
3
3
2
2
3
3
2
2
3
3
2
2
3
3
2
2
3
3
2
2
3
3
2
2
3
3
2
2
3
3
2
2
3
3
2
2
3
3
2
2
3
3
2
2
3
3
2
2
3
3
2
2
3
3
2
2
3
3
2
2
3
3
2
2
3
3
2
2
2
2
2
2
2
2
2
2
2
2
2
2
2
2
2
2
2
2
2
2
2
2
2
2
3
3
2
2
2
2
2
2
2
2
2
2
2
2
2
2
2
2
2
2
2
2
2
2
2
2
2
2
3
3
3
3
3
3
3
3
3
3
3
3
3
3
3
3
3
3
3
3
3
3
3
3
3
3
2
2
3
3
3
3
3
3
3
3
3
3
3
3
3
3
3
3
3
3
3
3
3
3
3
3
3
3
2
2
</DataArray>
<DataArray NumberOfComponents='1' type='Float32' Name='Velocity' format='ascii'>
0.000000
0.000000
0.000000
0.000000
0.000000
0.000000
0.000000
0.000000
0.000000
0.000000
0.000000
0.000000
0.000000
0.000000
0.000000
0.000000
0.000000
0.000000
0.000000
0.000000
0.000000
0.000000
0.000000
0.000000
0.000000
0.000000
0.000000
0.000000
0.000000
0.000000
0.000000
0.000000
0.000000
0.000000
0.000000
0.000000
0.000000
0.000000
0.000000
0.000000
0.000000
0.000000
0.000000
0.000000
0.000000
0.000000
0.000000
0.000000
0.000000
0.000000
0.000000
0.000000
0.000000
0.000000
0.000000
0.000000
0.000000
0.000000
0.000000
0.000000
0.000000
0.000000
0.000000
0.000000
0.000000
0.000000
0.000000
0.000000
0.000000
0.000000
0.000000
0.000000
0.000000
0.000000
0.000000
0.000000
0.000000
0.000000
0.000000
0.000000
0.000000
0.000000
0.000000
0.000000
0.000000
0.000000
0.000000
0.000000
0.000000
0.000000
0.000000
0.000000
0.000000
0.000000
0.000000
0.000000
0.000000
0.000000
0.000000
0.000000
0.000000
0.000000
0.000000
0.000000
0.000000
0.000000
0.000000
0.000000
0.000000
0.000000
0.000000
0.000000
0.000000
0.000000
0.000000
0.000000
0.698883
0.536959
0.365935
0.350160
0.600519
0.148221
0.450484
0.337530
0.487517
0.175531
0.489041
0.315629
0.606327
0.578298
0.721390
0.440693
0.604195
0.767445
0.692900
0.795237
0.000000
0.000000
0.000000
0.000000
0.116976
0.799797
0.453438
0.429967
0.822872
0.788737
0.941221
1.180051
0.359728
0.816786
0.488510
0.785651
0.435452
0.844878
0.302147
0.714295
0.374485
0.385860
0.663729
0.832825
0.000000
0.000000
0.000000
0.000000
0.200408
0.969235
0.485125
0.793119
0.941926
0.769388
1.119598
0.675282
0.744509
1.159688
0.851513
0.451443
0.403618
0.366425
0.638974
0.654934
0.393320
1.066915
0.780011
0.540869
0.000000
0.000000
0.000000
0.000000
0.749014
0.758457
1.033066
1.458544
0.407742
1.085807
1.407468
1.061416
1.385507
1.324878
0.763745
0.909339
1.109388
0.747224
0.916252
0.362413
0.973251
1.015108
1.118953
0.867124
0.000000
0.000000
0.000000
0.000000
1.328021
0.922946
1.990286
1.937664
2.072119
0.773007
1.214828
1.445896
1.384519
1.146168
1.834547
1.181425
1.125651
0.725955
0.824860
1.304322
1.510015
0.651101
1.309223
1.078245
0.000000
0.000000
0.000000
0.000000
2.191635
1.724999
2.153640
2.042864
2.026465
2.086881
2.089303
1.839090
2.155945
1.943685
1.814932
1.072787
1.890727
1.903761
1.487102
1.232371
1.292909
1.363699
1.066382
1.053466
0.000000
0.000000
0.000000
0.000000
2.196351
2.248785
2.241931
2.158486
2.107469
2.156536
2.455065
2.492024
2.058202
1.985297
1.989313
2.387173
1.849718
1.681322
1.642051
1.927866
2.219786
1.586187
1.229941
1.279802
0.000000
0.000000
0.000000
0.000000
3.233125
1.611323
2.048827
1.380012
0.529941
0.848721
1.519630
1.964930
2.514259
2.228703
2.513443
2.068701
2.463949
2.371280
1.501072
1.392083
1.873450
1.854092
1.422169
1.389204
0.000000
0.000000
0.000000
0.000000
1.259238
4.249893
0.498797
1.978315
0.862452
1.975924
2.052272
1.888113
1.036553
1.567540
1.593081
2.565091
1.481087
2.693496
2.402300
2.576243
2.298007
2.001651
1.784904
1.632014
0.000000
0.000000
0.000000
0.000000
3.517436
3.569017
2.522442
2.963913
3.740013
2.380639
3.483911
3.189687
2.436825
2.356869
1.676172
1.228033
1.981525
1.616670
1.350143
2.202355
2.526995
2.256109
2.146972
1.951477
0.000000
0.000000
0.000000
0.000000
0.000000
0.000000
0.000000
0.000000
0.000000
0.000000
0.000000
0.000000
0.000000
0.000000
0.000000
0.000000
0.000000
0.000000
0.000000
0.000000
0.000000
0.000000
0.000000
0.000000
0.000000
0.000000
0.000000
0.000000
0.000000
0.000000
0.000000
0.000000
0.000000
0.000000
0.000000
0.000000
0.000000
0.000000
0.000000
0.000000
0.000000
0.000000
0.000000
0.000000
0.000000
0.000000
0.000000
0.000000
0.000000
0.000000
0.000000
0.000000
0.000000
0.000000
0.000000
0.000000
0.000000
0.000000
0.000000
0.000000
0.000000
0.000000
0.000000
0.000000
0.000000
0.000000
0.000000
0.000000
0.000000
0.000000
0.000000
0.000000
0.000000
0.000000
0.000000
0.000000
0.000000
0.000000
0.000000
0.000000
0.000000
0.000000
0.000000
0.000000
0.000000
0.000000
0.000000
0.000000
0.000000
0.000000
0.000000
0.000000
0.000000
0.000000
0.000000
0.000000
0.000000
0.000000
0.000000
0.000000
0.000000
0.000000
0.000000
0.000000
0.000000
0.000000
0.000000
0.000000
0.000000
0.000000
0.000000
0.000000
0.000000
0.000000
0.000000
0.000000
0.000000
0.000000
0.000000
0.000000
0.000000
0.000000
0.000000
0.000000
0.000000
0.000000
0.000000
0.000000
0.000000
0.000000
0.000000
0.000000
0.000000
0.000000
0.000000
0.000000
0.000000
0.000000
0.000000
0.000000
0.000000
0.000000
0.000000
0.000000
0.000000
0.000000
0.000000
0.000000
0.000000
0.000000
0.000000
0.000000
0.000000
0.000000
0.000000
0.000000
0.000000
0.000000
0.000000
0.000000
0.000000
0.000000
0.000000
0.000000
0.000000
0.000000
0.000000
0.000000
0.000000
0.000000
0.000000
0.000000
0.000000
0.000000
0.000000
0.000000
0.000000
0.000000
0.000000
0.000000
0.000000
0.000000
0.000000
0.000000
0.000000
0.000000
0.000000
0.000000
0.000000
0.000000
0.000000
0.000000
0.000000
0.000000
0.000000
0.000000
0.000000
0.000000
0.000000
0.000000
0.000000
0.000000
0.000000
0.000000
0.000000
0.000000
0.000000
0.000000
0.000000
0.000000
0.000000
0.000000
0.000000
0.000000
0.000000
0.000000
0.000000
0.000000
0.000000
0.000000
0.000000
0.000000
0.000000
0.000000
0.000000
0.000000
0.000000
0.000000
0.000000
0.000000
0.000000
0.000000
</DataArray>
<DataArray NumberOfComponents='1' type='Float32' Name='pressure' format='ascii'>
0.000000
0.000000
0.000000
0.000000
0.000000
0.000000
0.000000
0.000000
0.000000
0.000000
0.000000
0.000000
0.000000
0.000000
0.000000
0.000000
0.000000
0.000000
0.000000
0.000000
0.000000
0.000000
0.000000
0.000000
0.000000
0.000000
0.000000
0.000000
0.000000
0.000000
0.000000
0.000000
0.000000
0.000000
0.000000
0.000000
0.000000
0.000000
0.000000
0.000000
0.000000
0.000000
0.000000
0.000000
0.000000
0.000000
0.000000
0.000000
0.000000
0.000000
0.000000
0.000000
0.000000
0.000000
0.000000
0.000000
0.000000
0.000000
2744.495117
2621.358643
2464.662354
1362.502563
2436.154541
2807.945557
562.126282
78.236679
0.000000
0.000000
0.000000
0.000000
0.000000
0.000000
0.000000
0.000000
0.000000
0.000000
0.000000
0.000000
0.000000
0.000000
0.000000
0.000000
0.000000
0.000000
0.000000
0.000000
2836.350098
2687.932861
2623.393066
1186.585327
2918.823975
2562.282227
0.000000
0.000000
0.000000
0.000000
0.000000
0.000000
0.000000
0.000000
0.000000
0.000000
0.000000
0.000000
0.000000
0.000000
0.000000
0.000000
0.000000
0.000000
0.000000
0.000000
0.000000
0.000000
2784.793457
3362.882080
2931.882080
2387.202148
2747.989746
2062.453613
2868.018555
3966.678467
1617.211060
1038.538086
1213.979370
2792.066895
1336.780151
1931.001953
1605.153442
1262.978516
0.000000
1728.544189
34.442684
0.000000
0.000000
0.000000
0.000000
0.000000
3128.096680
3019.245117
1550.651367
2840.517090
2847.476807
2612.926270
304.310089
990.228882
1052.404907
0.000000
1613.810547
1211.163696
1417.534912
1346.040039
1669.748413
0.000000
1113.856323
448.387817
0.000000
99.782349
0.269874
0.000000
0.000000
0.000000
3014.758789
2929.843506
1332.631348
1994.893921
3114.473145
3940.757324
611.216919
2531.306641
1623.356812
1290.746826
0.000000
0.000000
1442.742554
1183.250732
726.235535
545.839905
0.000000
0.000000
0.000000
0.000000
0.000000
0.000000
0.000000
0.000000
3445.459473
3522.238770
3298.985107
1080.023682
0.000000
0.000000
2841.793457
0.000000
1273.283081
350.642303
0.000000
713.702637
1564.989014
1524.606689
2052.666748
1721.800537
968.473572
0.000000
0.000000
453.170013
0.000000
443.829803
0.000000
0.000000
4049.168945
2886.060791
0.000000
683.243042
2205.203125
2598.702148
2024.705811
2747.924561
103.971870
555.447815
0.000000
264.572937
163.170303
1750.693359
964.446350
0.000000
0.000000
0.000000
0.000000
0.000000
0.000000
0.000000
0.000000
0.000000
5090.511230
2860.557373
2641.481201
0.000000
0.000000
2156.122070
563.871033
414.993042
2066.909424
1522.723877
2461.848389
4114.504395
1752.425659
0.000000
706.674072
1121.817871
0.000000
0.000000
0.000000
0.000000
0.000000
0.000000
0.000000
0.000000
4529.162598
1767.868530
0.000000
1232.089600
1595.055420
2786.317627
0.000000
3167.563965
1220.442627
0.000000
1321.996338
3233.202637
1748.343750
0.000000
341.011841
0.000000
0.000000
0.000000
0.000000
0.000000
0.000000
0.000000
0.000000
0.000000
4746.033203
2709.568848
0.000000
4387.665527
3228.923340
2439.501709
3217.607666
1393.530640
2405.118896
2691.135498
802.922668
0.000000
0.000000
1569.529785
0.000000
0.000000
0.000000
0.000000
154.940689
0.000000
0.000000
0.000000
0.000000
0.000000
2827.975098
0.000000
2111.098389
0.000000
4089.394531
0.000000
3178.308838
1671.637939
0.000000
3617.142822
1498.129150
2802.204346
1059.651245
0.000000
0.000000
0.000000
0.000000
0.000000
0.000000
0.000000
0.000000
0.000000
0.000000
0.000000
3967.414062
3625.291016
0.000000
0.000000
1755.171265
0.000000
0.000000
0.000000
0.000000
0.000000
0.000000
3259.365234
0.000000
0.000000
0.000000
0.000000
2874.115234
2627.693604
0.000000
2479.371338
0.000000
2514.464844
0.000000
0.000000
2234.489258
10.151095
0.000000
0.000000
1556.170898
162.950317
0.000000
0.000000
2872.141113
1899.718628
0.000000
0.000000
1976.274292
0.000000
0.000000
0.000000
3617.028809
3658.509277
0.000000
0.000000
1686.936157
259.854584
0.000000
0.000000
345.217499
0.000000
0.000000
0.000000
1118.357422
87.120544
0.000000
0.000000
1629.012451
0.000000
0.000000
0.000000
1714.768066
0.000000
0.000000
0.000000
3228.421143
3494.909668
0.000000
0.000000
3225.758545
3628.463379
0.000000
0.000000
3886.625977
3802.968018
0.000000
0.000000
2606.869873
2110.103271
0.000000
0.000000
833.964539
0.000000
0.000000
0.000000
1745.570312
971.978638
0.000000
0.000000
1798.395020
0.000000
0.000000
0.000000
1337.978027
0.000000
0.000000
0.000000
874.549744
2972.780762
0.000000
0.000000
1731.353027
3642.806641
0.000000
0.000000
268.666962
0.000000
0.000000
0.000000
0.000000
0.000000
0.000000
0.000000
861.747131
665.385071
0.000000
0.000000
591.840210
265.728546
0.000000
0.000000
1184.483154
1676.728516
0.000000
0.000000
1442.707886
1581.934204
0.000000
0.000000
869.659180
545.073486
0.000000
0.000000
2682.324463
3020.167725
0.000000
0.000000
864.818726
0.000000
0.000000
0.000000
380.132965
0.000000
0.000000
0.000000
1349.134888
1355.159058
3423.708740
0.000000
0.000000
1623.053711
6719.994629
588.083069
0.000000
0.000000
0.000000
0.000000
0.000000
0.000000
0.000000
0.000000
0.000000
0.000000
0.000000
0.000000
0.000000
0.000000
0.000000
0.000000
0.000000
0.000000
0.000000
0.000000
1676.866699
1997.802002
3334.320557
1816.051025
2483.042480
4333.380371
5587.487793
2132.046631
0.000000
0.000000
0.000000
0.000000
0.000000
0.000000
0.000000
0.000000
0.000000
494.813141
1779.817261
0.000000
0.000000
0.000000
0.000000
0.000000
0.000000
0.000000
0.000000
0.000000
0.000000
0.000000
0.000000
0.000000
0.000000
0.000000
0.000000
0.000000
0.000000
0.000000
0.000000
0.000000
0.000000
0.000000
0.000000
0.000000
0.000000
0.000000
0.000000
0.000000
0.000000
0.000000
0.000000
0.000000
0.000000
0.000000
0.000000
0.000000
0.000000
0.000000
0.000000
0.000000
0.000000
0.000000
0.000000
0.000000
0.000000
0.000000
0.000000
0.000000
0.000000
0.000000
0.000000
0.000000
0.000000
0.000000
0.000000
0.000000
0.000000
0.000000
0.000000
0.000000
0.000000
0.000000
</DataArray>
</PointData>
<Cells>
<DataArray type='Int32' Name='connectivity' format='ascii'>
0
1
2
3
4
5
6
7
8
9
10
11
12
13
14
15
16
17
18
19
20
21
22
23
24
25
26
27
28
29
30
31
32
33
34
35
36
37
38
39
40
41
42
43
44
45
46
47
48
49
50
51
52
53
54
55
56
57
58
59
60
61
62
63
64
65
66
67
68
69
70
71
72
73
74
75
76
77
78
79
80
81
82
83
84
85
86
87
88
89
90
91
92
93
94
95
96
97
98
99
100
101
102
103
104
105
106
107
108
109
110
111
112
113
114
115
116
117
118
119
120
121
122
123
124
125
126
127
128
129
130
131
132
133
134
135
136
137
138
139
140
141
142
143
144
145
146
147
148
149
150
151
152
153
154
155
156
157
158
159
160
161
162
163
164
165
166
167
168
169
170
171
172
173
174
175
176
177
178
179
180
181
182
183
184
185
186
187
188
189
190
191
192
193
194
195
196
197
198
199
200
201
202
203
204
205
206
207
208
209
210
211
212
213
214
215
216
217
218
219
220
221
222
223
224
225
226
227
228
229
230
231
232
233
234
235
236
237
238
239
240
241
242
243
244
245
246
247
248
249
250
251
252
253
254
255
256
257
258
259
260
261
262
263
264
265
266
267
268
269
270
271
272
273
274
275
276
277
278
279
280
281
282
283
284
285
286
287
288
289
290
291
292
293