<?xml version='1.0' encoding='UTF-8'?>
<VTKFile xmlns='VTK' byte_order='LittleEndian' version='0.1' type='UnstructuredGrid'>
<UnstructuredGrid>
<Piece NumberOfCells='584' NumberOfPoints='584'>
<Points>
<DataArray NumberOfComponents='3' type='Float32' Name='Position' format='ascii'>
-0.075000 -0.075000 0.000000
-0.075000 -0.050000 0.000000
-0.075000 -0.025000 0.000000
-0.075000 0.000000 0.000000
-0.075000 0.025000 0.000000
-0.075000 0.050000 0.000000
-0.075000 0.075000 0.000000
-0.075000 0.100000 0.000000
-0.075000 0.125000 0.000000
-0.075000 0.150000 0.000000
-0.075000 0.175000 0.000000
-0.075000 0.200000 0.000000
-0.075000 0.225000 0.000000
-0.075000 0.250000 0.000000
-0.075000 0.275000 0.000000
-0.075000 0.300000 0.000000
-0.075000 0.325000 0.000000
-0.075000 0.350000 0.000000
-0.075000 0.375000 0.000000
-0.075000 0.400000 0.000000
-0.075000 0.425000 0.000000
-0.075000 0.450000 0.000000
-0.075000 0.475000 0.000000
-0.075000 0.500000 0.000000
-0.075000 0.525000 0.000000
-0.075000 0.550000 0.000000
-0.075000 0.575000 0.000000
-0.075000 0.600000 0.000000
-0.050000 -0.075000 0.000000
-0.050000 -0.050000 0.000000
-0.050000 -0.025000 0.000000
-0.050000 0.000000 0.000000
-0.050000 0.025000 0.000000
-0.050000 0.050000 0.000000
-0.050000 0.075000 0.000000
-0.050000 0.100000 0.000000
-0.050000 0.125000 0.000000
-0.050000 0.150000 0.000000
-0.050000 0.175000 0.000000
-0.050000 0.200000 0.000000
-0.050000 0.225000 0.000000
-0.050000 0.250000 0.000000
-0.050000 0.275000 0.000000
-0.050000 0.300000 0.000000
-0.050000 0.325000 0.000000
-0.050000 0.350000 0.000000
-0.050000 0.375000 0.000000
-0.050000 0.400000 0.000000
-0.050000 0.425000 0.000000
-0.050000 0.450000 0.000000
-0.050000 0.475000 0.000000
-0.050000 0.500000 0.000000
-0.050000 0.525000 0.000000
-0.050000 0.550000 0.000000
-0.050000 0.575000 0.000000
-0.050000 0.600000 0.000000
-0.025000 -0.075000 0.000000
-0.025000 -0.050000 0.000000
-0.025000 -0.025000 0.000000
-0.025000 0.000000 0.000000
-0.025000 0.025000 0.000000
-0.025000 0.050000 0.000000
-0.025000 0.075000 0.000000
-0.025000 0.100000 0.000000
-0.025000 0.125000 0.000000
-0.025000 0.150000 0.000000
-0.025000 0.175000 0.000000
-0.025000 0.200000 0.000000
-0.025000 0.225000 0.000000
-0.025000 0.250000 0.000000
-0.025000 0.275000 0.000000
-0.025000 0.300000 0.000000
-0.025000 0.325000 0.000000
-0.025000 0.350000 0.000000
-0.025000 0.375000 0.000000
-0.025000 0.400000 0.000000
-0.025000 0.425000 0.000000
-0.025000 0.450000 0.000000
-0.025000 0.475000 0.000000
-0.025000 0.500000 0.000000
-0.025000 0.525000 0.000000
-0.025000 0.550000 0.000000
-0.025000 0.575000 0.000000
-0.025000 0.600000 0.000000
0.000000 -0.075000 0.000000
0.000000 -0.050000 0.000000
0.000000 -0.025000 0.000000
0.000000 0.000000 0.000000
0.000000 0.025000 0.000000
0.000000 0.050000 0.000000
0.000000 0.075000 0.000000
0.000000 0.100000 0.000000
0.000000 0.125000 0.000000
0.000000 0.150000 0.000000
0.000000 0.175000 0.000000
0.000000 0.200000 0.000000
0.000000 0.225000 0.000000
0.000000 0.250000 0.000000
0.000000 0.275000 0.000000
0.000000 0.300000 0.000000
0.000000 0.325000 0.000000
0.000000 0.350000 0.000000
0.000000 0.375000 0.000000
0.000000 0.400000 0.000000
0.000000 0.425000 0.000000
0.000000 0.450000 0.000000
0.000000 0.475000 0.000000
0.000000 0.500000 0.000000
0.000000 0.525000 0.000000
0.000000 0.550000 0.000000
0.000000 0.575000 0.000000
0.000000 0.600000 0.000000
0.025000 -0.075000 0.000000
0.025000 -0.050000 0.000000
0.025000 -0.025000 0.000000
0.025000 0.000000 0.000000
0.074153 0.023349 0.000000
0.033537 0.021192 0.000000
0.050554 0.036739 0.000000
0.023219 0.043234 0.000000
0.072101 0.045545 0.000000
0.024687 0.065345 0.000000
0.082890 0.072963 0.000000
0.060698 0.065454 0.000000
0.061259 0.087152 0.000000
0.031073 0.085024 0.000000
0.061250 0.115125 0.000000
0.035191 0.104189 0.000000
0.023338 0.123736 0.000000
0.024662 0.148757 0.000000
0.028713 0.175019 0.000000
0.022562 0.198005 0.000000
0.041190 0.217883 0.000000
0.022762 0.232270 0.000000
0.034803 0.260941 0.000000
0.021878 0.271563 0.000000
0.050000 -0.075000 0.000000
0.050000 -0.050000 0.000000
0.050000 -0.025000 0.000000
0.050000 0.000000 0.000000
0.124866 0.024092 0.000000
0.098083 0.026975 0.000000
0.111968 0.045952 0.000000
0.175326 0.073928 0.000000
0.106951 0.065265 0.000000
0.125505 0.081533 0.000000
0.101804 0.091410 0.000000
0.133652 0.107788 0.000000
0.082085 0.107339 0.000000
0.108209 0.113785 0.000000
0.076224 0.136618 0.000000
0.094747 0.144314 0.000000
0.049273 0.135801 0.000000
0.081842 0.166138 0.000000
0.047583 0.158587 0.000000
0.070099 0.181826 0.000000
0.049027 0.190818 0.000000
0.063647 0.211257 0.000000
0.048578 0.242365 0.000000
0.060162 0.260918 0.000000
0.075000 -0.075000 0.000000
0.075000 -0.050000 0.000000
0.075000 -0.025000 0.000000
0.075000 0.000000 0.000000
0.149465 0.023459 0.000000
0.145604 0.066361 0.000000
0.190429 0.023122 0.000000
0.145505 0.045912 0.000000
0.186834 0.055161 0.000000
0.215349 0.068278 0.000000
0.236915 0.088369 0.000000
0.155342 0.086444 0.000000
0.193902 0.091059 0.000000
0.149240 0.122232 0.000000
0.169596 0.130962 0.000000
0.121636 0.133184 0.000000
0.127735 0.152153 0.000000
0.105055 0.168146 0.000000
0.097322 0.199241 0.000000
0.084271 0.218758 0.000000
0.113714 0.218048 0.000000
0.089289 0.239784 0.000000
0.113267 0.261562 0.000000
0.081381 0.254816 0.000000
0.100000 -0.075000 0.000000
0.100000 -0.050000 0.000000
0.100000 -0.025000 0.000000
0.100000 0.000000 0.000000
0.242036 0.022696 0.000000
0.216731 0.024905 0.000000
0.210524 0.047926 0.000000
0.267874 0.056841 0.000000
0.173166 0.035776 0.000000
0.286636 0.046081 0.000000
0.236296 0.061390 0.000000
0.257293 0.078520 0.000000
0.214492 0.097233 0.000000
0.246544 0.127460 0.000000
0.170643 0.105018 0.000000
0.214848 0.120270 0.000000
0.193642 0.122158 0.000000
0.177796 0.150345 0.000000
0.145986 0.163581 0.000000
0.118674 0.187393 0.000000
0.149031 0.190419 0.000000
0.133097 0.205045 0.000000
0.141009 0.239917 0.000000
0.127010 0.245163 0.000000
0.125000 -0.075000 0.000000
0.125000 -0.050000 0.000000
0.125000 -0.025000 0.000000
0.125000 0.000000 0.000000
0.326056 0.022470 0.000000
0.279507 0.023317 0.000000
0.378683 0.020678 0.000000
0.358949 0.030180 0.000000
0.384855 0.045316 0.000000
0.256882 0.037082 0.000000
0.309110 0.030476 0.000000
0.316544 0.054298 0.000000
0.284494 0.084905 0.000000
0.258102 0.106470 0.000000
0.278537 0.109579 0.000000
0.266809 0.133118 0.000000
0.221572 0.141030 0.000000
0.194238 0.170363 0.000000
0.189931 0.191131 0.000000
0.164285 0.169529 0.000000
0.215509 0.199038 0.000000
0.170678 0.212586 0.000000
0.184104 0.231484 0.000000
0.159817 0.225991 0.000000
0.150000 -0.075000 0.000000
0.150000 -0.050000 0.000000
0.150000 -0.025000 0.000000
0.150000 0.000000 0.000000
0.471723 0.020215 0.000000
0.419923 0.021653 0.000000
0.459235 0.039228 0.000000
0.406145 0.044292 0.000000
0.432456 0.037527 0.000000
0.494637 0.050080 0.000000
0.362523 0.059005 0.000000
0.420994 0.059678 0.000000
0.342624 0.044762 0.000000
0.379815 0.072361 0.000000
0.331089 0.074371 0.000000
0.300227 0.074269 0.000000
0.321143 0.091086 0.000000
0.299377 0.132025 0.000000
0.269852 0.153992 0.000000
0.240782 0.157730 0.000000
0.211023 0.159691 0.000000
0.236565 0.176787 0.000000
0.229143 0.217774 0.000000
0.202183 0.211934 0.000000
0.175000 -0.075000 0.000000
0.175000 -0.050000 0.000000
0.175000 -0.025000 0.000000
0.175000 0.000000 0.000000
0.595594 0.035782 0.000000
0.518467 0.027013 0.000000
0.560248 0.048003 0.000000
0.582312 0.028751 0.000000
0.553120 0.021327 0.000000
0.498585 0.026918 0.000000
0.539519 0.040452 0.000000
0.529708 0.063493 0.000000
0.462250 0.056443 0.000000
0.498863 0.067153 0.000000
0.401126 0.085929 0.000000
0.415721 0.097260 0.000000
0.349912 0.091214 0.000000
0.357110 0.108201 0.000000
0.311337 0.112698 0.000000
0.320150 0.130363 0.000000
0.308748 0.152417 0.000000
0.277420 0.172639 0.000000
0.272045 0.193008 0.000000
0.252943 0.194029 0.000000
0.200000 -0.075000 0.000000
0.200000 -0.050000 0.000000
0.200000 -0.025000 0.000000
0.200000 0.000000 0.000000
0.821141 0.042372 0.000000
0.678602 0.021410 0.000000
0.762527 0.040923 0.000000
0.627164 0.022035 0.000000
0.732077 0.020959 0.000000
0.710370 0.025586 0.000000
0.647505 0.027877 0.000000
0.617255 0.042806 0.000000
0.563283 0.066354 0.000000
0.558411 0.091781 0.000000
0.520333 0.078639 0.000000
0.442246 0.070717 0.000000
0.476612 0.086865 0.000000
0.446389 0.088355 0.000000
0.372691 0.093886 0.000000
0.415684 0.116887 0.000000
0.372411 0.131356 0.000000
0.349559 0.148671 0.000000
0.346332 0.160878 0.000000
0.299794 0.195017 0.000000
0.225000 -0.075000 0.000000
0.225000 -0.050000 0.000000
0.225000 -0.025000 0.000000
0.225000 0.000000 0.000000
0.836603 0.023535 0.000000
0.870655 0.056001 0.000000
0.807565 0.025208 0.000000
0.759403 0.071620 0.000000
0.775828 0.023690 0.000000
0.768682 0.083462 0.000000
0.785725 0.041239 0.000000
0.721271 0.049263 0.000000
0.675716 0.041029 0.000000
0.697514 0.054701 0.000000
0.657091 0.054471 0.000000
0.619451 0.066865 0.000000
0.610626 0.079378 0.000000
0.580294 0.087438 0.000000
0.519806 0.103345 0.000000
0.476181 0.114798 0.000000
0.458344 0.110301 0.000000
0.425479 0.138149 0.000000
0.373747 0.150358 0.000000
0.308804 0.170207 0.000000
0.250000 -0.075000 0.000000
0.250000 -0.050000 0.000000
0.250000 -0.025000 0.000000
0.250000 0.000000 0.000000
0.928547 0.034651 0.000000
0.943694 0.025034 0.000000
0.876872 0.024696 0.000000
0.910129 0.024225 0.000000
0.891136 0.034200 0.000000
0.852758 0.040822 0.000000
0.823609 0.066461 0.000000
0.810379 0.063805 0.000000
0.767425 0.097502 0.000000
0.743650 0.050012 0.000000
0.733454 0.091270 0.000000
0.718930 0.070960 0.000000
0.679898 0.073734 0.000000
0.668779 0.087099 0.000000
0.642886 0.066615 0.000000
0.595121 0.084133 0.000000
0.547670 0.102124 0.000000
0.491879 0.097426 0.000000
0.434319 0.126239 0.000000
0.390428 0.129382 0.000000
0.275000 -0.075000 0.000000
0.275000 -0.050000 0.000000
0.275000 -0.025000 0.000000
0.275000 0.000000 0.000000
0.300000 -0.075000 0.000000
0.300000 -0.050000 0.000000
0.300000 -0.025000 0.000000
0.300000 0.000000 0.000000
0.325000 -0.075000 0.000000
0.325000 -0.050000 0.000000
0.325000 -0.025000 0.000000
0.325000 0.000000 0.000000
0.350000 -0.075000 0.000000
0.350000 -0.050000 0.000000
0.350000 -0.025000 0.000000
0.350000 0.000000 0.000000
0.375000 -0.075000 0.000000
0.375000 -0.050000 0.000000
0.375000 -0.025000 0.000000
0.375000 0.000000 0.000000
0.400000 -0.075000 0.000000
0.400000 -0.050000 0.000000
0.400000 -0.025000 0.000000
0.400000 0.000000 0.000000
0.425000 -0.075000 0.000000
0.425000 -0.050000 0.000000
0.425000 -0.025000 0.000000
0.425000 0.000000 0.000000
0.450000 -0.075000 0.000000
0.450000 -0.050000 0.000000
0.450000 -0.025000 0.000000
0.450000 0.000000 0.000000
0.475000 -0.075000 0.000000
0.475000 -0.050000 0.000000
0.475000 -0.025000 0.000000
0.475000 0.000000 0.000000
0.500000 -0.075000 0.000000
0.500000 -0.050000 0.000000
0.500000 -0.025000 0.000000
0.500000 0.000000 0.000000
0.525000 -0.075000 0.000000
0.525000 -0.050000 0.000000
0.525000 -0.025000 0.000000
0.525000 0.000000 0.000000
0.550000 -0.075000 0.000000
0.550000 -0.050000 0.000000
0.550000 -0.025000 0.000000
0.550000 0.000000 0.000000
0.575000 -0.075000 0.000000
0.575000 -0.050000 0.000000
0.575000 -0.025000 0.000000
0.575000 0.000000 0.000000
0.600000 -0.075000 0.000000
0.600000 -0.050000 0.000000
0.600000 -0.025000 0.000000
0.600000 0.000000 0.000000
0.625000 -0.075000 0.000000
0.625000 -0.050000 0.000000
0.625000 -0.025000 0.000000
0.625000 0.000000 0.000000
0.650000 -0.075000 0.000000
0.650000 -0.050000 0.000000
0.650000 -0.025000 0.000000
0.650000 0.000000 0.000000
0.675000 -0.075000 0.000000
0.675000 -0.050000 0.000000
0.675000 -0.025000 0.000000
0.675000 0.000000 0.000000
0.700000 -0.075000 0.000000
0.700000 -0.050000 0.000000
0.700000 -0.025000 0.000000
0.700000 0.000000 0.000000
0.725000 -0.075000 0.000000
0.725000 -0.050000 0.000000
0.725000 -0.025000 0.000000
0.725000 0.000000 0.000000
0.750000 -0.075000 0.000000
0.750000 -0.050000 0.000000
0.750000 -0.025000 0.000000
0.750000 0.000000 0.000000
0.775000 -0.075000 0.000000
0.775000 -0.050000 0.000000
0.775000 -0.025000 0.000000
0.775000 0.000000 0.000000
0.800000 -0.075000 0.000000
0.800000 -0.050000 0.000000
0.800000 -0.025000 0.000000
0.800000 0.000000 0.000000
0.825000 -0.075000 0.000000
0.825000 -0.050000 0.000000
0.825000 -0.025000 0.000000
0.825000 0.000000 0.000000
0.850000 -0.075000 0.000000
0.850000 -0.050000 0.000000
0.850000 -0.025000 0.000000
0.850000 0.000000 0.000000
0.875000 -0.075000 0.000000
0.875000 -0.050000 0.000000
0.875000 -0.025000 0.000000
0.875000 0.000000 0.000000
0.900000 -0.075000 0.000000
0.900000 -0.050000 0.000000
0.900000 -0.025000 0.000000
0.900000 0.000000 0.000000
0.925000 -0.075000 0.000000
0.925000 -0.050000 0.000000
0.925000 -0.025000 0.000000
0.925000 0.000000 0.000000
0.950000 -0.075000 0.000000
0.950000 -0.050000 0.000000
0.950000 -0.025000 0.000000
0.950000 0.000000 0.000000
0.975000 -0.075000 0.000000
0.975000 -0.050000 0.000000
0.975000 -0.025000 0.000000
0.975000 0.000000 0.000000
1.000000 -0.075000 0.000000
1.000000 -0.050000 0.000000
1.000000 -0.025000 0.000000
1.000000 0.000000 0.000000
1.025000 -0.075000 0.000000
1.025000 -0.050000 0.000000
1.025000 -0.025000 0.000000
1.025000 0.000000 0.000000
1.025000 0.025000 0.000000
1.025000 0.050000 0.000000
1.025000 0.075000 0.000000
1.025000 0.100000 0.000000
1.025000 0.125000 0.000000
1.025000 0.150000 0.000000
1.025000 0.175000 0.000000
1.025000 0.200000 0.000000
1.025000 0.225000 0.000000
1.025000 0.250000 0.000000
1.025000 0.275000 0.000000
1.025000 0.300000 0.000000
1.025000 0.325000 0.000000
1.025000 0.350000 0.000000
1.025000 0.375000 0.000000
1.025000 0.400000 0.000000
1.025000 0.425000 0.000000
1.025000 0.450000 0.000000
1.025000 0.475000 0.000000
1.025000 0.500000 0.000000
1.025000 0.525000 0.000000
1.025000 0.550000 0.000000
1.025000 0.575000 0.000000
1.025000 0.600000 0.000000
1.050000 -0.075000 0.000000
1.050000 -0.050000 0.000000
1.050000 -0.025000 0.000000
1.050000 0.000000 0.000000
1.050000 0.025000 0.000000
1.050000 0.050000 0.000000
1.050000 0.075000 0.000000
1.050000 0.100000 0.000000
1.050000 0.125000 0.000000
1.050000 0.150000 0.000000
1.050000 0.175000 0.000000
1.050000 0.200000 0.000000
1.050000 0.225000 0.000000
1.050000 0.250000 0.000000
1.050000 0.275000 0.000000
1.050000 0.300000 0.000000
1.050000 0.325000 0.000000
1.050000 0.350000 0.000000
1.050000 0.375000 0.000000
1.050000 0.400000 0.000000
1.050000 0.425000 0.000000
1.050000 0.450000 0.000000
1.050000 0.475000 0.000000
1.050000 0.500000 0.000000
1.050000 0.525000 0.000000
1.050000 0.550000 0.000000
1.050000 0.575000 0.000000
1.050000 0.600000 0.000000
1.075000 -0.075000 0.000000
1.075000 -0.050000 0.000000
1.075000 -0.025000 0.000000
1.075000 0.000000 0.000000
1.075000 0.025000 0.000000
1.075000 0.050000 0.000000
1.075000 0.075000 0.000000
1.075000 0.100000 0.000000
1.075000 0.125000 0.000000
1.075000 0.150000 0.000000
1.075000 0.175000 0.000000
1.075000 0.200000 0.000000
1.075000 0.225000 0.000000
1.075000 0.250000 0.000000
1.075000 0.275000 0.000000
1.075000 0.300000 0.000000
1.075000 0.325000 0.000000
1.075000 0.350000 0.000000
1.075000 0.375000 0.000000
1.075000 0.400000 0.000000
1.075000 0.425000 0.000000
1.075000 0.450000 0.000000
1.075000 0.475000 0.000000
1.075000 0.500000 0.000000
1.075000 0.525000 0.000000
1.075000 0.550000 0.000000
1.075000 0.575000 0.000000
1.075000 0.600000 0.000000
1.100000 -0.075000 0.000000
1.100000 -0.050000 0.000000
1.100000 -0.025000 0.000000
1.100000 0.000000 0.000000
1.100000 0.025000 0.000000
1.100000 0.050000 0.000000
1.100000 0.075000 0.000000
1.100000 0.100000 0.000000
1.100000 0.125000 0.000000
1.100000 0.150000 0.000000
1.100000 0.175000 0.000000
1.100000 0.200000 0.000000
1.100000 0.225000 0.000000
1.100000 0.250000 0.000000
1.100000 0.275000 0.000000
1.100000 0.300000 0.000000
1.100000 0.325000 0.000000
1.100000 0.350000 0.000000
1.100000 0.375000 0.000000
1.100000 0.400000 0.000000
1.100000 0.425000 0.000000
1.100000 0.450000 0.000000
1.100000 0.475000 0.000000
1.100000 0.500000 0.000000
1.100000 0.525000 0.000000
1.100000 0.550000 0.000000
1.100000 0.575000 0.000000
1.100000 0.600000 0.000000
</DataArray>
</Points>
<PointData>
<DataArray NumberOfComponents='1' type='Int32' Name='ParticleType' format='ascii'>
3
3
3
3
3
3
3
3
3
3
3
3
3
3
3
3
3
3
3
3
3
3
3
3
3
3
2
2
3
3
3
3
3
3
3
3
3
3
3
3
3
3
3
3
3
3
3
3
3
3
3
3
3
3
2
2
3
3
2
2
2
2
2
2
2
2
2
2
2
2
2
2
2
2
2
2
2
2
2
2
2
2
2
2
3
3
2
2
2
2
2
2
2
2
2
2
2
2
2
2
2
2
2
2
2
2
2
2
2
2
2
2
3
3
2
2
0
0
0
0
0
0
0
0
0
0
0
0
0
0
0
0
0
0
0
0
3
3
2
2
0
0
0
0
0
0
0
0
0
0
0
0
0
0
0
0
0
0
0
0
3
3
2
2
0
0
0
0
0
0
0
0
0
0
0
0
0
0
0
0
0
0
0
0
3
3
2
2
0
0
0
0
0
0
0
0
0
0
0
0
0
0
0
0
0
0
0
0
3
3
2
2
0
0
0
0
0
0
0
0
0
0
0
0
0
0
0
0
0
0
0
0
3
3
2
2
0
0
0
0
0
0
0
0
0
0
0
0
0
0
0
0
0
0
0
0
3
3
2
2
0
0
0
0
0
0
0
0
0
0
0
0
0
0
0
0
0
0
0
0
3
3
2
2
0
0
0
0
0
0
0
0
0
0
0
0
0
0
0
0
0
0
0
0
3
3
2
2
0
0
0
0
0
0
0
0
0
0
0
0
0
0
0
0
0
0
0
0
3
3
2
2
0
0
0
0
0
0
0
0
0
0
0
0
0
0
0
0
0
0
0
0
3
3
2
2
3
3
2
2
3
3
2
2
3
3
2
2
3
3
2
2
3
3
2
2
3
3
2
2
3
3
2
2
3
3
2
2
3
3
2
2
3
3
2
2
3
3
2
2
3
3
2
2
3
3
2
2
3
3
2
2
3
3
2
2
3
3
2
2
3
3
2
2
3
3
2
2
3
3
2
2
3
3
2
2
3
3
2
2
3
3
2
2
3
3
2
2
3
3
2
2
3
3
2
2
3
3
2
2
3
3
2
2
3
3
2
2
3
3
2
2
3
3
2
2
2
2
2
2
2
2
2
2
2
2
2
2
2
2
2
2
2
2
2
2
2
2
2
2
3
3
2
2
2
2
2
2
2
2
2
2
2
2
2
2
2
2
2
2
2
2
2
2
2
2
2
2
3
3
3
3
3
3
3
3
3
3
3
3
3
3
3
3
3
3
3
3
3
3
3
3
3
3
2
2
3
3
3
3
3
3
3
3
3
3
3
3
3
3
3
3
3
3
3
3
3
3
3
3
3
3
2
2
</DataArray>
<DataArray NumberOfComponents='1' type='Float32' Name='Velocity' format='ascii'>
0.000000
0.000000
0.000000
0.000000
0.000000
0.000000
0.000000
0.000000
0.000000
0.000000
0.000000
0.000000
0.000000
0.000000
0.000000
0.000000
0.000000
0.000000
0.000000
0.000000
0.000000
0.000000
0.000000
0.000000
0.000000
0.000000
0.000000
0.000000
0.000000
0.000000
0.000000
0.000000
0.000000
0.000000
0.000000
0.000000
0.000000
0.000000
0.000000
0.000000
0.000000
0.000000
0.000000
0.000000
0.000000
0.000000
0.000000
0.000000
0.000000
0.000000
0.000000
0.000000
0.000000
0.000000
0.000000
0.000000
0.000000
0.000000
0.000000
0.000000
0.000000
0.000000
0.000000
0.000000
0.000000
0.000000
0.000000
0.000000
0.000000
0.000000
0.000000
0.000000
0.000000
0.000000
0.000000
0.000000
0.000000
0.000000
0.000000
0.000000
0.000000
0.000000
0.000000
0.000000
0.000000
0.000000
0.000000
0.000000
0.000000
0.000000
0.000000
0.000000
0.000000
0.000000
0.000000
0.000000
0.000000
0.000000
0.000000
0.000000
0.000000
0.000000
0.000000
0.000000
0.000000
0.000000
0.000000
0.000000
0.000000
0.000000
0.000000
0.000000
0.000000
0.000000
0.000000
0.000000
0.294399
0.511932
0.316025
0.398197
0.413797
0.117119
0.193223
0.808306
0.283930
0.371897
0.455360
0.389806
0.557918
0.369963
0.760709
0.484883
0.502177
0.803409
0.703844
0.933317
0.000000
0.000000
0.000000
0.000000
0.456765
0.480526
0.687540
0.607373
0.823773
0.328826
0.309531
0.793697
0.595516
0.486616
0.434887
0.608182
0.511888
0.515210
0.676021
0.580416
0.878692
0.942396
0.697415
0.718547
0.000000
0.000000
0.000000
0.000000
0.648295
0.815734
0.649084
0.387224
0.560093
1.300934
0.933868
0.501895
1.098075
0.319538
0.970335
0.665996
0.420323
0.527367
0.248994
0.399101
0.632719
0.575351
0.934276
0.662565
0.000000
0.000000
0.000000
0.000000
0.481552
0.518370
0.731552
0.995969
0.550359
0.893054
1.651913
0.778638
0.922572
0.868674
0.769724
0.900855
0.689308
1.053373
0.551899
0.471583
0.784715
1.012966
0.865497
1.241186
0.000000
0.000000
0.000000
0.000000
1.060570
0.664992
1.479336
1.909822
1.483747
0.589715
1.101014
0.877719
1.342925
0.818458
1.041987
1.270971
1.006968
0.762383
0.322356
0.921887
1.194628
0.804844
1.092763
0.899860
0.000000
0.000000
0.000000
0.000000
1.616744
1.853990
1.799872
1.666343
1.962496
2.110799
0.787119
1.302854
1.727235
1.703121
1.640188
1.189214
1.342117
1.520504
1.189583
1.112449
0.603272
1.026875
0.959803
1.352160
0.000000
0.000000
0.000000
0.000000
2.545791
2.119618
2.608738
2.590771
2.466130
2.042861
2.277033
2.225389
1.771682
2.423773
1.603459
1.662719
1.273146
1.236237
1.236866
1.665104
1.350587
1.270972
1.422158
1.447731
0.000000
0.000000
0.000000
0.000000
2.854425
2.883939
3.049901
2.682656
3.216808
2.719519
2.881127
2.346118
2.344173
2.381094
2.314372
1.940711
1.792387
1.902304
1.215904
1.821869
1.625481
1.439248
1.652372
1.486277
0.000000
0.000000
0.000000
0.000000
2.818754
2.912363
2.797166
2.544212
2.593700
2.852895
3.179289
2.781594
3.028785
3.152949
2.612378
2.564300
2.797454
2.485201
2.283020
1.922609
2.071025
2.071917
1.703520
1.392050
0.000000
0.000000
0.000000
0.000000
2.858170
3.487398
3.036270
3.148654
3.111692
3.144981
2.781193
2.553777
2.655386
2.868571
2.864652
2.789933
2.892792
2.864234
3.238565
2.336028
2.218650
2.184567
1.907793
1.905762
0.000000
0.000000
0.000000
0.000000
0.000000
0.000000
0.000000
0.000000
0.000000
0.000000
0.000000
0.000000
0.000000
0.000000
0.000000
0.000000
0.000000
0.000000
0.000000
0.000000
0.000000
0.000000
0.000000
0.000000
0.000000
0.000000
0.000000
0.000000
0.000000
0.000000
0.000000
0.000000
0.000000
0.000000
0.000000
0.000000
0.000000
0.000000
0.000000
0.000000
0.000000
0.000000
0.000000
0.000000
0.000000
0.000000
0.000000
0.000000
0.000000
0.000000
0.000000
0.000000
0.000000
0.000000
0.000000
0.000000
0.000000
0.000000
0.000000
0.000000
0.000000
0.000000
0.000000
0.000000
0.000000
0.000000
0.000000
0.000000
0.000000
0.000000
0.000000
0.000000
0.000000
0.000000
0.000000
0.000000
0.000000
0.000000
0.000000
0.000000
0.000000
0.000000
0.000000
0.000000
0.000000
0.000000
0.000000
0.000000
0.000000
0.000000
0.000000
0.000000
0.000000
0.000000
0.000000
0.000000
0.000000
0.000000
0.000000
0.000000
0.000000
0.000000
0.000000
0.000000
0.000000
0.000000
0.000000
0.000000
0.000000
0.000000
0.000000
0.000000
0.000000
0.000000
0.000000
0.000000
0.000000
0.000000
0.000000
0.000000
0.000000
0.000000
0.000000
0.000000
0.000000
0.000000
0.000000
0.000000
0.000000
0.000000
0.000000
0.000000
0.000000
0.000000
0.000000
0.000000
0.000000
0.000000
0.000000
0.000000
0.000000
0.000000
0.000000
0.000000
0.000000
0.000000
0.000000
0.000000
0.000000
0.000000
0.000000
0.000000
0.000000
0.000000
0.000000
0.000000
0.000000
0.000000
0.000000
0.000000
0.000000
0.000000
0.000000
0.000000
0.000000
0.000000
0.000000
0.000000
0.000000
0.000000
0.000000
0.000000
0.000000
0.000000
0.000000
0.000000
0.000000
0.000000
0.000000
0.000000
0.000000
0.000000
0.000000
0.000000
0.000000
0.000000
0.000000
0.000000
0.000000
0.000000
0.000000
0.000000
0.000000
0.000000
0.000000
0.000000
0.000000
0.000000
0.000000
0.000000
0.000000
0.000000
0.000000
0.000000
0.000000
0.000000
0.000000
0.000000
0.000000
0.000000
0.000000
0.000000
0.000000
0.000000
0.000000
0.000000
0.000000
0.000000
0.000000
0.000000
0.000000
0.000000
0.000000
0.000000
0.000000
0.000000
0.000000
0.000000
0.000000
0.000000
0.000000
0.000000
</DataArray>
<DataArray NumberOfComponents='1' type='Float32' Name='pressure' format='ascii'>
0.000000
0.000000
0.000000
0.000000
0.000000
0.000000
0.000000
0.000000
0.000000
0.000000
0.000000
0.000000
0.000000
0.000000
0.000000
0.000000
0.000000
0.000000
0.000000
0.000000
0.000000
0.000000
0.000000
0.000000
0.000000
0.000000
0.000000
0.000000
0.000000
0.000000
0.000000
0.000000
0.000000
0.000000
0.000000
0.000000
0.000000
0.000000
0.000000
0.000000
0.000000
0.000000
0.000000
0.000000
0.000000
0.000000
0.000000
0.000000
0.000000
0.000000
0.000000
0.000000
0.000000
0.000000
0.000000
0.000000
0.000000
0.000000
2789.373047
2651.811768
2232.156738
3342.507812
2089.305420
976.311707
2020.885864
1465.326050
543.579407
2124.446289
1516.784058
441.386200
1029.862549
0.000000
0.000000
0.000000
0.000000
0.000000
0.000000
0.000000
0.000000
0.000000
0.000000
0.000000
0.000000
0.000000
0.000000
0.000000
3137.715088
1860.674561
1001.961365
4915.167969
2031.677490
0.000000
1892.173706
1339.334229
0.000000
2754.455322
0.000000
0.000000
0.000000
0.000000
0.000000
0.000000
0.000000
0.000000
0.000000
0.000000
0.000000
0.000000
0.000000
0.000000
0.000000
0.000000
0.000000
0.000000
4655.273926
4056.085449
4117.721680
5052.974609
2294.929688
4080.046875
4018.096191
4023.597900
3574.812012
3050.637939
1588.669189
2608.701172
3771.681152
3698.443848
2314.809570
2097.009033
1913.210205
2079.933838
1927.182373
1096.342163
0.000000
0.000000
0.000000
0.000000
4205.527832
2613.651367
3971.218506
0.000000
3682.729736
2337.961670
3685.479004
2412.812988
3574.313721
3076.509521
2313.960693
2809.076172
870.563477
2476.826660
1970.917114
1685.749512
162.232971
1332.286255
1806.931152
655.684021
1139.377441
0.000000
0.000000
0.000000
4503.275879
4525.363281
4610.456055
4659.584961
4489.292480
3403.140625
3273.872314
3865.667969
2043.683960
3900.478271
3526.063477
3259.949951
2993.125000
2278.215088
1848.599365
1273.142456
0.000000
354.201996
0.000000
0.000000
0.000000
0.000000
0.000000
0.000000
3543.237061
3255.812012
3458.501221
4025.042725
4558.448730
4415.208984
3501.054199
2863.414062
0.000000
3651.583008
4575.241699
1092.125732
3576.292480
2986.927490
1201.750610
1791.421021
2011.301392
1081.627075
0.000000
1173.330688
0.000000
0.000000
0.000000
0.000000
4908.407715
5813.731445
4559.748047
1635.762451
3604.721191
3350.714600
2652.377930
3309.726562
4882.535156
1450.578735
1034.879395
1894.273315
1769.379761
2084.450439
2667.594482
3229.496094
932.717346
1246.843018
0.000000
904.777283
0.000000
0.000000
0.000000
0.000000
5361.001465
6013.129883
0.000000
426.351349
802.172791
1502.435059
1663.117432
734.788513
2267.047852
892.703247
1121.792480
1648.410767
2338.960449
2010.389893
725.016907
2122.190430
1329.602661
2291.599854
2988.847412
0.000000
0.000000
0.000000
0.000000
0.000000
4638.705566
2714.262207
0.000000
0.000000
519.680908
625.884460
1310.680664
1298.325806
1794.106812
1610.060059
0.000000
811.949951
0.000000
956.186401
2107.784912
0.000000
0.000000
0.000000
0.000000
0.000000
0.000000
0.000000
0.000000
0.000000
5282.459961
5525.423828
0.000000
436.500305
0.000000
473.651520
0.000000
0.000000
0.000000
0.000000
0.000000
0.000000
549.488464
965.402100
316.747559
0.000000
862.641541
37.475288
0.000000
0.000000
0.000000
0.000000
0.000000
0.000000
5396.396973
5990.035156
0.000000
0.000000
317.511658
0.000000
0.000000
0.000000
0.000000
670.164368
1541.814087
0.000000
1523.703491
2309.023193
19.754625
0.000000
0.000000
0.000000
0.000000
0.000000
0.000000
0.000000
0.000000
0.000000
4980.154785
5409.976074
0.000000
0.000000
0.000000
0.000000
0.000000
0.000000
0.000000
0.000000
0.000000
0.000000
0.000000
0.000000
0.000000
0.000000
0.000000
1076.304321
0.000000
0.000000
0.000000
0.000000
0.000000
0.000000
3868.520996
2381.724121
0.000000
0.000000
1947.933105
951.385498
0.000000
0.000000
3319.204346
2801.738281
0.000000
0.000000
1743.909180
494.697296
0.000000
0.000000
3871.867432
3484.604736
0.000000
0.000000
2358.881592
0.000000
0.000000
0.000000
2573.912109
0.000000
0.000000
0.000000
1468.185181
0.000000
0.000000
0.000000
3095.112305
3122.541260
0.000000
0.000000
445.107758
726.977844
0.000000
0.000000
0.000000
0.000000
0.000000
0.000000
1963.083740
2092.196045
0.000000
0.000000
231.604492
0.000000
0.000000
0.000000
0.000000
0.000000
0.000000
0.000000
1699.490234
1378.937744
0.000000
0.000000
440.278320
401.192474
0.000000
0.000000
2615.857422
2454.201416
0.000000
0.000000
1477.454346
1032.959839
0.000000
0.000000
2458.710693
2164.306396
0.000000
0.000000
773.567505
0.000000
0.000000
0.000000
181.291000
0.000000
0.000000
0.000000
0.000000
0.000000
0.000000
0.000000
0.000000
0.000000
0.000000
0.000000
0.000000
0.000000
0.000000
0.000000
0.000000
0.000000
0.000000
0.000000
0.000000
1013.044556
0.000000
0.000000
0.000000
0.000000
0.000000
0.000000
0.000000
0.000000
0.000000
0.000000
0.000000
0.000000
0.000000
0.000000
0.000000
0.000000
0.000000
0.000000
0.000000
0.000000
0.000000
0.000000
0.000000
0.000000
0.000000
0.000000
0.000000
0.000000
0.000000
0.000000
0.000000
0.000000
0.000000
0.000000
0.000000
0.000000
0.000000
0.000000
0.000000
0.000000
0.000000
0.000000
0.000000
0.000000
0.000000
0.000000
0.000000
0.000000
0.000000
0.000000
0.000000
0.000000
0.000000
0.000000
0.000000
0.000000
0.000000
0.000000
0.000000
0.000000
0.000000
0.000000
0.000000
0.000000
0.000000
0.000000
0.000000
0.000000
0.000000
0.000000
0.000000
0.000000
0.000000
0.000000
0.000000
0.000000
0.000000
0.000000
0.000000
0.000000
0.000000
0.000000
0.000000
0.000000
0.000000
0.000000
0.000000
0.000000
0.000000
0.000000
0.000000
0.000000
0.000000
0.000000
0.000000
0.000000
0.000000
0.000000
0.000000
0.000000
0.000000
0.000000
0.000000
0.000000
0.000000
0.000000
0.000000
0.000000
0.000000
0.000000
0.000000
0.000000
0.000000
0.000000
0.000000
0.000000
0.000000
0.000000
0.000000
0.000000
0.000000
0.000000
0.000000
0.000000
0.000000
0.000000
0.000000
0.000000
</DataArray>
</PointData>
<Cells>
<DataArray type='Int32' Name='connectivity' format='ascii'>
0
1
2
3
4
5
6
7
8
9
10
11
12
13
14
15
16
17
18
19
20
21
22
23
24
25
26
27
28
29
30
31
32
33
34
35
36
37
38
39
40
41
42
43
44
45
46
47
48
49
50
51
52
53
54
55
56
57
58
59
60
61
62
63
64
65
66
67
68
69
70
71
72
73
74
75
76
77
78
79
80
81
82
83
84
85
86
87
88
89
90
91
92
93
94
95
96
97
98
99
100
101
102
103
104
105
106
107
108
109
110
111
112
113
114
115
116
117
118
119
120
121
122
123
124
125
126
127
128
129
130
131
132
133
134
135
136
137
138
139
140
141
142
143
144
145
146
147
148
149
150
151
152
153
154
155
156
157
158
159
160
161
162
163
164
165
166
167
168
169
170
171
172
173
174
175
176
177
178
179
180
181
182
183
184
185
186
187
188
189
190
191
192
193
194
195
196
197
198
199
200
201
202
203
204
205
206
207
208
209
210
211
212
213
214
215
216
217
218
219
220
221
222
223
224
225
226
227
228
229
230
231
232
233
234
235
236
237
238
239
240
241
242
243
244
245
246
247
248
249
250
251
252
253
254
255
256
257
258
259
260
261
262
263
264
265
266
267
268
269
270
271
272
273
274
275
276
277
278
279
280
281
282
283
284
285
286
287
288
289
290
291
292
293
294
295
296
297
298