<?xml version='1.0' encoding='UTF-8'?>
<VTKFile xmlns='VTK' byte_order='LittleEndian' version='0.1' type='UnstructuredGrid'>
<UnstructuredGrid>
<Piece NumberOfCells='584' NumberOfPoints='584'>
<Points>
<DataArray NumberOfComponents='3' type='Float32' Name='Position' format='ascii'>
-0.075000 -0.075000 0.000000
-0.075000 -0.050000 0.000000
-0.075000 -0.025000 0.000000
-0.075000 0.000000 0.000000
-0.075000 0.025000 0.000000
-0.075000 0.050000 0.000000
-0.075000 0.075000 0.000000
-0.075000 0.100000 0.000000
-0.075000 0.125000 0.000000
-0.075000 0.150000 0.000000
-0.075000 0.175000 0.000000
-0.075000 0.200000 0.000000
-0.075000 0.225000 0.000000
-0.075000 0.250000 0.000000
-0.075000 0.275000 0.000000
-0.075000 0.300000 0.000000
-0.075000 0.325000 0.000000
-0.075000 0.350000 0.000000
-0.075000 0.375000 0.000000
-0.075000 0.400000 0.000000
-0.075000 0.425000 0.000000
-0.075000 0.450000 0.000000
-0.075000 0.475000 0.000000
-0.075000 0.500000 0.000000
-0.075000 0.525000 0.000000
-0.075000 0.550000 0.000000
-0.075000 0.575000 0.000000
-0.075000 0.600000 0.000000
-0.050000 -0.075000 0.000000
-0.050000 -0.050000 0.000000
-0.050000 -0.025000 0.000000
-0.050000 0.000000 0.000000
-0.050000 0.025000 0.000000
-0.050000 0.050000 0.000000
-0.050000 0.075000 0.000000
-0.050000 0.100000 0.000000
-0.050000 0.125000 0.000000
-0.050000 0.150000 0.000000
-0.050000 0.175000 0.000000
-0.050000 0.200000 0.000000
-0.050000 0.225000 0.000000
-0.050000 0.250000 0.000000
-0.050000 0.275000 0.000000
-0.050000 0.300000 0.000000
-0.050000 0.325000 0.000000
-0.050000 0.350000 0.000000
-0.050000 0.375000 0.000000
-0.050000 0.400000 0.000000
-0.050000 0.425000 0.000000
-0.050000 0.450000 0.000000
-0.050000 0.475000 0.000000
-0.050000 0.500000 0.000000
-0.050000 0.525000 0.000000
-0.050000 0.550000 0.000000
-0.050000 0.575000 0.000000
-0.050000 0.600000 0.000000
-0.025000 -0.075000 0.000000
-0.025000 -0.050000 0.000000
-0.025000 -0.025000 0.000000
-0.025000 0.000000 0.000000
-0.025000 0.025000 0.000000
-0.025000 0.050000 0.000000
-0.025000 0.075000 0.000000
-0.025000 0.100000 0.000000
-0.025000 0.125000 0.000000
-0.025000 0.150000 0.000000
-0.025000 0.175000 0.000000
-0.025000 0.200000 0.000000
-0.025000 0.225000 0.000000
-0.025000 0.250000 0.000000
-0.025000 0.275000 0.000000
-0.025000 0.300000 0.000000
-0.025000 0.325000 0.000000
-0.025000 0.350000 0.000000
-0.025000 0.375000 0.000000
-0.025000 0.400000 0.000000
-0.025000 0.425000 0.000000
-0.025000 0.450000 0.000000
-0.025000 0.475000 0.000000
-0.025000 0.500000 0.000000
-0.025000 0.525000 0.000000
-0.025000 0.550000 0.000000
-0.025000 0.575000 0.000000
-0.025000 0.600000 0.000000
0.000000 -0.075000 0.000000
0.000000 -0.050000 0.000000
0.000000 -0.025000 0.000000
0.000000 0.000000 0.000000
0.000000 0.025000 0.000000
0.000000 0.050000 0.000000
0.000000 0.075000 0.000000
0.000000 0.100000 0.000000
0.000000 0.125000 0.000000
0.000000 0.150000 0.000000
0.000000 0.175000 0.000000
0.000000 0.200000 0.000000
0.000000 0.225000 0.000000
0.000000 0.250000 0.000000
0.000000 0.275000 0.000000
0.000000 0.300000 0.000000
0.000000 0.325000 0.000000
0.000000 0.350000 0.000000
0.000000 0.375000 0.000000
0.000000 0.400000 0.000000
0.000000 0.425000 0.000000
0.000000 0.450000 0.000000
0.000000 0.475000 0.000000
0.000000 0.500000 0.000000
0.000000 0.525000 0.000000
0.000000 0.550000 0.000000
0.000000 0.575000 0.000000
0.000000 0.600000 0.000000
0.025000 -0.075000 0.000000
0.025000 -0.050000 0.000000
0.025000 -0.025000 0.000000
0.025000 0.000000 0.000000
0.158520 0.070768 0.000000
0.233399 0.046287 0.000000
0.161901 0.040256 0.000000
0.185293 0.028344 0.000000
0.287978 0.024570 0.000000
0.083621 0.075075 0.000000
0.365735 0.021190 0.000000
0.237191 0.024473 0.000000
0.207597 0.021153 0.000000
0.050710 0.153786 0.000000
0.266214 0.026346 0.000000
0.080752 0.144296 0.000000
0.147347 0.024023 0.000000
0.044880 0.048887 0.000000
0.101549 0.079334 0.000000
0.039751 0.021734 0.000000
0.111307 0.122680 0.000000
0.096145 0.034089 0.000000
0.077441 0.116764 0.000000
0.126641 0.024990 0.000000
0.050000 -0.075000 0.000000
0.050000 -0.050000 0.000000
0.050000 -0.025000 0.000000
0.050000 0.000000 0.000000
0.287450 0.111065 0.000000
0.242466 0.236147 0.000000
0.296119 0.165720 0.000000
0.019374 0.040074 0.000000
0.030561 0.138494 0.000000
0.522724 0.042329 0.000000
0.230086 0.091505 0.000000
0.662446 0.046691 0.000000
0.288423 0.087536 0.000000
0.311964 0.127615 0.000000
0.057145 0.091816 0.000000
0.320633 0.046805 0.000000
0.089389 0.105077 0.000000
0.256857 0.122645 0.000000
0.125613 0.062045 0.000000
0.035863 0.090105 0.000000
0.204191 0.050294 0.000000
0.273601 0.060790 0.000000
0.105857 0.146064 0.000000
0.116750 0.044778 0.000000
0.075000 -0.075000 0.000000
0.075000 -0.050000 0.000000
0.075000 -0.025000 0.000000
0.075000 0.000000 0.000000
0.237959 0.105900 0.000000
0.172780 0.107688 0.000000
0.470550 0.048731 0.000000
0.387488 0.030870 0.000000
0.652700 0.100486 0.000000
0.727611 0.025366 0.000000
0.743326 0.041837 0.000000
0.051299 0.132146 0.000000
0.587571 0.086948 0.000000
0.719863 0.056158 0.000000
0.512440 0.022778 0.000000
0.243998 0.134854 0.000000
0.255224 0.047114 0.000000
0.310402 0.108091 0.000000
0.310009 0.029681 0.000000
0.128300 0.104519 0.000000
0.262978 0.092733 0.000000
0.033915 0.060824 0.000000
0.214973 0.073963 0.000000
0.197767 0.073853 0.000000
0.100000 -0.075000 0.000000
0.100000 -0.050000 0.000000
0.100000 -0.025000 0.000000
0.100000 0.000000 0.000000
0.567157 0.033052 0.000000
0.487277 0.080528 0.000000
0.585587 0.042691 0.000000
0.852506 0.023700 0.000000
0.295364 0.057554 0.000000
0.817108 0.025160 0.000000
0.756713 0.096084 0.000000
0.351772 0.045776 0.000000
0.761751 0.022712 0.000000
0.781031 0.048491 0.000000
0.548375 0.021361 0.000000
0.491504 0.109412 0.000000
0.671105 0.065774 0.000000
0.692293 0.046209 0.000000
0.318426 0.151241 0.000000
0.337820 0.022608 0.000000
0.620096 0.025101 0.000000
0.367547 0.110600 0.000000
0.451655 0.081107 0.000000
0.305507 0.079530 0.000000
0.125000 -0.075000 0.000000
0.125000 -0.050000 0.000000
0.125000 -0.025000 0.000000
0.125000 0.000000 0.000000
0.788179 0.092444 0.000000
0.853440 0.092363 0.000000
1.004141 0.103179 0.000000
0.891637 0.024037 0.000000
0.748260 0.143861 0.000000
0.676581 0.022582 0.000000
0.372589 0.152503 0.000000
0.670411 0.158733 0.000000
0.888401 0.072955 0.000000
0.801061 0.072905 0.000000
0.943507 0.083482 0.000000
0.669176 0.104460 0.000000
0.599463 0.022879 0.000000
0.614783 0.063046 0.000000
0.486773 0.025609 0.000000
0.637522 0.069628 0.000000
0.529186 0.109648 0.000000
0.156778 0.099255 0.000000
0.593827 0.066109 0.000000
0.078132 0.168078 0.000000
0.150000 -0.075000 0.000000
0.150000 -0.050000 0.000000
0.150000 -0.025000 0.000000
0.150000 0.000000 0.000000
0.355262 0.062063 0.000000
0.967943 0.025708 0.000000
0.802102 0.108052 0.000000
0.427111 0.064252 0.000000
0.920722 0.062669 0.000000
0.180763 0.050110 0.000000
0.980951 0.073047 0.000000
0.564476 0.065296 0.000000
1.003750 0.061383 0.000000
0.893237 0.091692 0.000000
0.908462 0.049631 0.000000
0.786600 0.022443 0.000000
0.874906 0.038363 0.000000
0.860379 0.079897 0.000000
0.835989 0.036349 0.000000
0.704610 0.066647 0.000000
0.705763 0.025341 0.000000
0.739565 0.087562 0.000000
0.745499 0.066509 0.000000
0.447843 0.114855 0.000000
0.175000 -0.075000 0.000000
0.175000 -0.050000 0.000000
0.175000 -0.025000 0.000000
0.175000 0.000000 0.000000
0.034301 0.121564 0.000000
0.768435 0.132973 0.000000
0.970007 0.131523 0.000000
0.961977 0.120640 0.000000
0.963471 0.053664 0.000000
0.146721 0.139575 0.000000
0.913525 0.027114 0.000000
0.399832 0.038377 0.000000
0.460531 0.021296 0.000000
0.939663 0.023420 0.000000
0.706051 0.124132 0.000000
0.816460 0.094875 0.000000
0.635785 0.099634 0.000000
0.949032 0.042726 0.000000
0.992211 0.043812 0.000000
0.499403 0.050080 0.000000
0.997532 0.021839 0.000000
0.580716 0.115210 0.000000
0.352314 0.143381 0.000000
0.611286 0.140218 0.000000
0.200000 -0.075000 0.000000
0.200000 -0.050000 0.000000
0.200000 -0.025000 0.000000
0.200000 0.000000 0.000000
0.526677 0.084044 0.000000
0.141168 0.073910 0.000000
0.418209 0.077142 0.000000
0.906925 0.082405 0.000000
0.454286 0.049276 0.000000
0.496952 0.137665 0.000000
0.685974 0.080981 0.000000
0.972998 0.089016 0.000000
0.554230 0.135970 0.000000
0.146155 0.190367 0.000000
0.920977 0.116923 0.000000
0.803352 0.044654 0.000000
0.067826 0.021237 0.000000
0.546675 0.050250 0.000000
0.763713 0.115601 0.000000
0.173620 0.135662 0.000000
0.822703 0.063303 0.000000
0.533914 0.140253 0.000000
0.950872 0.095682 0.000000
0.765455 0.061090 0.000000
0.225000 -0.075000 0.000000
0.225000 -0.050000 0.000000
0.225000 -0.025000 0.000000
0.225000 0.000000 0.000000
0.411172 0.147377 0.000000
0.922617 0.140976 0.000000
0.688726 0.108341 0.000000
0.243754 0.072167 0.000000
0.200533 0.120429 0.000000
0.053359 0.201333 0.000000
0.623927 0.088100 0.000000
0.993444 0.118880 0.000000
0.726547 0.118694 0.000000
0.272627 0.133295 0.000000
0.790990 0.124318 0.000000
0.101923 0.163397 0.000000
0.426235 0.022134 0.000000
0.542914 0.074612 0.000000
0.148371 0.118213 0.000000
0.433686 0.113901 0.000000
0.634998 0.045309 0.000000
0.081226 0.041722 0.000000
0.388309 0.160777 0.000000
0.422089 0.040780 0.000000
0.250000 -0.075000 0.000000
0.250000 -0.050000 0.000000
0.250000 -0.025000 0.000000
0.250000 0.000000 0.000000
0.834151 0.083796 0.000000
0.544264 0.105234 0.000000
0.458823 0.174220 0.000000
0.463577 0.132759 0.000000
0.382215 0.091681 0.000000
0.577092 0.098817 0.000000
0.329095 0.136572 0.000000
0.347222 0.088117 0.000000
0.336059 0.066720 0.000000
0.676549 0.147211 0.000000
0.340006 0.108349 0.000000
0.067503 0.181463 0.000000
0.194157 0.131763 0.000000
0.649037 0.026292 0.000000
0.507921 0.068498 0.000000
0.433005 0.091833 0.000000
0.473828 0.087976 0.000000
0.858198 0.050493 0.000000
0.061532 0.074274 0.000000
0.711985 0.106570 0.000000
0.275000 -0.075000 0.000000
0.275000 -0.050000 0.000000
0.275000 -0.025000 0.000000
0.275000 0.000000 0.000000
0.300000 -0.075000 0.000000
0.300000 -0.050000 0.000000
0.300000 -0.025000 0.000000
0.300000 0.000000 0.000000
0.325000 -0.075000 0.000000
0.325000 -0.050000 0.000000
0.325000 -0.025000 0.000000
0.325000 0.000000 0.000000
0.350000 -0.075000 0.000000
0.350000 -0.050000 0.000000
0.350000 -0.025000 0.000000
0.350000 0.000000 0.000000
0.375000 -0.075000 0.000000
0.375000 -0.050000 0.000000
0.375000 -0.025000 0.000000
0.375000 0.000000 0.000000
0.400000 -0.075000 0.000000
0.400000 -0.050000 0.000000
0.400000 -0.025000 0.000000
0.400000 0.000000 0.000000
0.425000 -0.075000 0.000000
0.425000 -0.050000 0.000000
0.425000 -0.025000 0.000000
0.425000 0.000000 0.000000
0.450000 -0.075000 0.000000
0.450000 -0.050000 0.000000
0.450000 -0.025000 0.000000
0.450000 0.000000 0.000000
0.475000 -0.075000 0.000000
0.475000 -0.050000 0.000000
0.475000 -0.025000 0.000000
0.475000 0.000000 0.000000
0.500000 -0.075000 0.000000
0.500000 -0.050000 0.000000
0.500000 -0.025000 0.000000
0.500000 0.000000 0.000000
0.525000 -0.075000 0.000000
0.525000 -0.050000 0.000000
0.525000 -0.025000 0.000000
0.525000 0.000000 0.000000
0.550000 -0.075000 0.000000
0.550000 -0.050000 0.000000
0.550000 -0.025000 0.000000
0.550000 0.000000 0.000000
0.575000 -0.075000 0.000000
0.575000 -0.050000 0.000000
0.575000 -0.025000 0.000000
0.575000 0.000000 0.000000
0.600000 -0.075000 0.000000
0.600000 -0.050000 0.000000
0.600000 -0.025000 0.000000
0.600000 0.000000 0.000000
0.625000 -0.075000 0.000000
0.625000 -0.050000 0.000000
0.625000 -0.025000 0.000000
0.625000 0.000000 0.000000
0.650000 -0.075000 0.000000
0.650000 -0.050000 0.000000
0.650000 -0.025000 0.000000
0.650000 0.000000 0.000000
0.675000 -0.075000 0.000000
0.675000 -0.050000 0.000000
0.675000 -0.025000 0.000000
0.675000 0.000000 0.000000
0.700000 -0.075000 0.000000
0.700000 -0.050000 0.000000
0.700000 -0.025000 0.000000
0.700000 0.000000 0.000000
0.725000 -0.075000 0.000000
0.725000 -0.050000 0.000000
0.725000 -0.025000 0.000000
0.725000 0.000000 0.000000
0.750000 -0.075000 0.000000
0.750000 -0.050000 0.000000
0.750000 -0.025000 0.000000
0.750000 0.000000 0.000000
0.775000 -0.075000 0.000000
0.775000 -0.050000 0.000000
0.775000 -0.025000 0.000000
0.775000 0.000000 0.000000
0.800000 -0.075000 0.000000
0.800000 -0.050000 0.000000
0.800000 -0.025000 0.000000
0.800000 0.000000 0.000000
0.825000 -0.075000 0.000000
0.825000 -0.050000 0.000000
0.825000 -0.025000 0.000000
0.825000 0.000000 0.000000
0.850000 -0.075000 0.000000
0.850000 -0.050000 0.000000
0.850000 -0.025000 0.000000
0.850000 0.000000 0.000000
0.875000 -0.075000 0.000000
0.875000 -0.050000 0.000000
0.875000 -0.025000 0.000000
0.875000 0.000000 0.000000
0.900000 -0.075000 0.000000
0.900000 -0.050000 0.000000
0.900000 -0.025000 0.000000
0.900000 0.000000 0.000000
0.925000 -0.075000 0.000000
0.925000 -0.050000 0.000000
0.925000 -0.025000 0.000000
0.925000 0.000000 0.000000
0.950000 -0.075000 0.000000
0.950000 -0.050000 0.000000
0.950000 -0.025000 0.000000
0.950000 0.000000 0.000000
0.975000 -0.075000 0.000000
0.975000 -0.050000 0.000000
0.975000 -0.025000 0.000000
0.975000 0.000000 0.000000
1.000000 -0.075000 0.000000
1.000000 -0.050000 0.000000
1.000000 -0.025000 0.000000
1.000000 0.000000 0.000000
1.025000 -0.075000 0.000000
1.025000 -0.050000 0.000000
1.025000 -0.025000 0.000000
1.025000 0.000000 0.000000
1.025000 0.025000 0.000000
1.025000 0.050000 0.000000
1.025000 0.075000 0.000000
1.025000 0.100000 0.000000
1.025000 0.125000 0.000000
1.025000 0.150000 0.000000
1.025000 0.175000 0.000000
1.025000 0.200000 0.000000
1.025000 0.225000 0.000000
1.025000 0.250000 0.000000
1.025000 0.275000 0.000000
1.025000 0.300000 0.000000
1.025000 0.325000 0.000000
1.025000 0.350000 0.000000
1.025000 0.375000 0.000000
1.025000 0.400000 0.000000
1.025000 0.425000 0.000000
1.025000 0.450000 0.000000
1.025000 0.475000 0.000000
1.025000 0.500000 0.000000
1.025000 0.525000 0.000000
1.025000 0.550000 0.000000
1.025000 0.575000 0.000000
1.025000 0.600000 0.000000
1.050000 -0.075000 0.000000
1.050000 -0.050000 0.000000
1.050000 -0.025000 0.000000
1.050000 0.000000 0.000000
1.050000 0.025000 0.000000
1.050000 0.050000 0.000000
1.050000 0.075000 0.000000
1.050000 0.100000 0.000000
1.050000 0.125000 0.000000
1.050000 0.150000 0.000000
1.050000 0.175000 0.000000
1.050000 0.200000 0.000000
1.050000 0.225000 0.000000
1.050000 0.250000 0.000000
1.050000 0.275000 0.000000
1.050000 0.300000 0.000000
1.050000 0.325000 0.000000
1.050000 0.350000 0.000000
1.050000 0.375000 0.000000
1.050000 0.400000 0.000000
1.050000 0.425000 0.000000
1.050000 0.450000 0.000000
1.050000 0.475000 0.000000
1.050000 0.500000 0.000000
1.050000 0.525000 0.000000
1.050000 0.550000 0.000000
1.050000 0.575000 0.000000
1.050000 0.600000 0.000000
1.075000 -0.075000 0.000000
1.075000 -0.050000 0.000000
1.075000 -0.025000 0.000000
1.075000 0.000000 0.000000
1.075000 0.025000 0.000000
1.075000 0.050000 0.000000
1.075000 0.075000 0.000000
1.075000 0.100000 0.000000
1.075000 0.125000 0.000000
1.075000 0.150000 0.000000
1.075000 0.175000 0.000000
1.075000 0.200000 0.000000
1.075000 0.225000 0.000000
1.075000 0.250000 0.000000
1.075000 0.275000 0.000000
1.075000 0.300000 0.000000
1.075000 0.325000 0.000000
1.075000 0.350000 0.000000
1.075000 0.375000 0.000000
1.075000 0.400000 0.000000
1.075000 0.425000 0.000000
1.075000 0.450000 0.000000
1.075000 0.475000 0.000000
1.075000 0.500000 0.000000
1.075000 0.525000 0.000000
1.075000 0.550000 0.000000
1.075000 0.575000 0.000000
1.075000 0.600000 0.000000
1.100000 -0.075000 0.000000
1.100000 -0.050000 0.000000
1.100000 -0.025000 0.000000
1.100000 0.000000 0.000000
1.100000 0.025000 0.000000
1.100000 0.050000 0.000000
1.100000 0.075000 0.000000
1.100000 0.100000 0.000000
1.100000 0.125000 0.000000
1.100000 0.150000 0.000000
1.100000 0.175000 0.000000
1.100000 0.200000 0.000000
1.100000 0.225000 0.000000
1.100000 0.250000 0.000000
1.100000 0.275000 0.000000
1.100000 0.300000 0.000000
1.100000 0.325000 0.000000
1.100000 0.350000 0.000000
1.100000 0.375000 0.000000
1.100000 0.400000 0.000000
1.100000 0.425000 0.000000
1.100000 0.450000 0.000000
1.100000 0.475000 0.000000
1.100000 0.500000 0.000000
1.100000 0.525000 0.000000
1.100000 0.550000 0.000000
1.100000 0.575000 0.000000
1.100000 0.600000 0.000000
</DataArray>
</Points>
<PointData>
<DataArray NumberOfComponents='1' type='Int32' Name='ParticleType' format='ascii'>
3
3
3
3
3
3
3
3
3
3
3
3
3
3
3
3
3
3
3
3
3
3
3
3
3
3
2
2
3
3
3
3
3
3
3
3
3
3
3
3
3
3
3
3
3
3
3
3
3
3
3
3
3
3
2
2
3
3
2
2
2
2
2
2
2
2
2
2
2
2
2
2
2
2
2
2
2
2
2
2
2
2
2
2
3
3
2
2
2
2
2
2
2
2
2
2
2
2
2
2
2
2
2
2
2
2
2
2
2
2
2
2
3
3
2
2
0
0
0
0
0
0
0
0
0
0
0
0
0
0
0
0
0
0
0
0
3
3
2
2
0
0
0
0
0
0
0
0
0
0
0
0
0
0
0
0
0
0
0
0
3
3
2
2
0
0
0
0
0
0
0
0
0
0
0
0
0
0
0
0
0
0
0
0
3
3
2
2
0
0
0
0
0
0
0
0
0
0
0
0
0
0
0
0
0
0
0
0
3
3
2
2
0
0
0
0
0
0
0
0
0
0
0
0
0
0
0
0
0
0
0
0
3
3
2
2
0
0
0
0
0
0
0
0
0
0
0
0
0
0
0
0
0
0
0
0
3
3
2
2
0
0
0
0
0
0
0
0
0
0
0
0
0
0
0
0
0
0
0
0
3
3
2
2
0
0
0
0
0
0
0
0
0
0
0
0
0
0
0
0
0
0
0
0
3
3
2
2
0
0
0
0
0
0
0
0
0
0
0
0
0
0
0
0
0
0
0
0
3
3
2
2
0
0
0
0
0
0
0
0
0
0
0
0
0
0
0
0
0
0
0
0
3
3
2
2
3
3
2
2
3
3
2
2
3
3
2
2
3
3
2
2
3
3
2
2
3
3
2
2
3
3
2
2
3
3
2
2
3
3
2
2
3
3
2
2
3
3
2
2
3
3
2
2
3
3
2
2
3
3
2
2
3
3
2
2
3
3
2
2
3
3
2
2
3
3
2
2
3
3
2
2
3
3
2
2
3
3
2
2
3
3
2
2
3
3
2
2
3
3
2
2
3
3
2
2
3
3
2
2
3
3
2
2
3
3
2
2
3
3
2
2
3
3
2
2
2
2
2
2
2
2
2
2
2
2
2
2
2
2
2
2
2
2
2
2
2
2
2
2
3
3
2
2
2
2
2
2
2
2
2
2
2
2
2
2
2
2
2
2
2
2
2
2
2
2
2
2
3
3
3
3
3
3
3
3
3
3
3
3
3
3
3
3
3
3
3
3
3
3
3
3
3
3
2
2
3
3
3
3
3
3
3
3
3
3
3
3
3
3
3
3
3
3
3
3
3
3
3
3
3
3
2
2
</DataArray>
<DataArray NumberOfComponents='1' type='Float32' Name='Velocity' format='ascii'>
0.000000
0.000000
0.000000
0.000000
0.000000
0.000000
0.000000
0.000000
0.000000
0.000000
0.000000
0.000000
0.000000
0.000000
0.000000
0.000000
0.000000
0.000000
0.000000
0.000000
0.000000
0.000000
0.000000
0.000000
0.000000
0.000000
0.000000
0.000000
0.000000
0.000000
0.000000
0.000000
0.000000
0.000000
0.000000
0.000000
0.000000
0.000000
0.000000
0.000000
0.000000
0.000000
0.000000
0.000000
0.000000
0.000000
0.000000
0.000000
0.000000
0.000000
0.000000
0.000000
0.000000
0.000000
0.000000
0.000000
0.000000
0.000000
0.000000
0.000000
0.000000
0.000000
0.000000
0.000000
0.000000
0.000000
0.000000
0.000000
0.000000
0.000000
0.000000
0.000000
0.000000
0.000000
0.000000
0.000000
0.000000
0.000000
0.000000
0.000000
0.000000
0.000000
0.000000
0.000000
0.000000
0.000000
0.000000
0.000000
0.000000
0.000000
0.000000
0.000000
0.000000
0.000000
0.000000
0.000000
0.000000
0.000000
0.000000
0.000000
0.000000
0.000000
0.000000
0.000000
0.000000
0.000000
0.000000
0.000000
0.000000
0.000000
0.000000
0.000000
0.000000
0.000000
0.000000
0.000000
0.637344
0.259187
0.125736
0.316700
0.388265
0.356634
0.329785
0.614452
0.342679
1.862925
0.350834
1.130836
0.414581
0.328138
0.443431
0.711880
1.395291
0.551807
0.672047
0.261111
0.000000
0.000000
0.000000
0.000000
0.667426
1.339185
1.165714
0.777969
0.612707
0.479470
0.964430
0.745065
0.815567
0.761917
0.810522
0.703019
1.124971
0.796834
0.568529
0.687568
0.284542
0.492151
1.728378
0.444110
0.000000
0.000000
0.000000
0.000000
0.992201
0.416565
0.528786
0.672106
0.753445
0.474972
0.468261
0.601170
0.964629
0.404081
0.157115
1.331428
0.567110
0.655378
0.444891
0.815196
0.466363
0.694932
0.651793
1.136940
0.000000
0.000000
0.000000
0.000000
0.507997
0.545399
0.523756
0.268186
0.457813
0.488749
0.687862
1.064883
0.356805
0.611171
0.558094
0.603489
0.646058
0.546033
1.058333
0.464958
0.548525
1.951294
0.617743
0.831456
0.000000
0.000000
0.000000
0.000000
0.313861
0.560728
0.144866
0.325112
1.122243
0.437235
1.366356
0.890328
0.593577
0.233035
0.085801
0.867087
0.611229
0.728540
0.514742
0.665183
1.158628
1.064063
0.749083
0.756193
0.000000
0.000000
0.000000
0.000000
0.820485
0.236761
0.434749
1.108542
0.362528
0.077890
0.485066
0.309220
0.125157
0.682332
0.174779
0.331879
0.339714
0.612801
0.367181
0.379990
0.614856
0.738259
0.292316
0.974660
0.000000
0.000000
0.000000
0.000000
0.685929
0.722394
0.354459
0.428385
0.222862
1.486486
0.208710
0.611301
0.306241
0.255496
0.754218
0.437052
0.908269
0.177523
0.097296
0.895019
0.094156
0.879532
1.749268
1.110416
0.000000
0.000000
0.000000
0.000000
0.456719
0.674289
0.942564
0.583460
0.568443
1.193838
0.801692
0.377432
1.216556
1.584772
1.064626
0.399654
0.331100
0.653741
0.918064
1.459860
0.653418
0.646064
0.124419
0.135442
0.000000
0.000000
0.000000
0.000000
1.185166
4.767219
1.014535
0.134064
0.863622
1.274916
0.778114
0.310072
0.870163
0.985186
0.836926
1.238472
0.315562
1.042337
0.995107
1.026267
0.672069
0.434886
0.874381
0.240556
0.000000
0.000000
0.000000
0.000000
0.308369
0.924113
0.989815
0.938272
0.659140
1.028084
1.365889
0.673188
0.980153
0.843826
0.203334
0.991719
1.726725
0.648367
0.814604
0.316981
0.366982
0.190639
0.173799
0.891110
0.000000
0.000000
0.000000
0.000000
0.000000
0.000000
0.000000
0.000000
0.000000
0.000000
0.000000
0.000000
0.000000
0.000000
0.000000
0.000000
0.000000
0.000000
0.000000
0.000000
0.000000
0.000000
0.000000
0.000000
0.000000
0.000000
0.000000
0.000000
0.000000
0.000000
0.000000
0.000000
0.000000
0.000000
0.000000
0.000000
0.000000
0.000000
0.000000
0.000000
0.000000
0.000000
0.000000
0.000000
0.000000
0.000000
0.000000
0.000000
0.000000
0.000000
0.000000
0.000000
0.000000
0.000000
0.000000
0.000000
0.000000
0.000000
0.000000
0.000000
0.000000
0.000000
0.000000
0.000000
0.000000
0.000000
0.000000
0.000000
0.000000
0.000000
0.000000
0.000000
0.000000
0.000000
0.000000
0.000000
0.000000
0.000000
0.000000
0.000000
0.000000
0.000000
0.000000
0.000000
0.000000
0.000000
0.000000
0.000000
0.000000
0.000000
0.000000
0.000000
0.000000
0.000000
0.000000
0.000000
0.000000
0.000000
0.000000
0.000000
0.000000
0.000000
0.000000
0.000000
0.000000
0.000000
0.000000
0.000000
0.000000
0.000000
0.000000
0.000000
0.000000
0.000000
0.000000
0.000000
0.000000
0.000000
0.000000
0.000000
0.000000
0.000000
0.000000
0.000000
0.000000
0.000000
0.000000
0.000000
0.000000
0.000000
0.000000
0.000000
0.000000
0.000000
0.000000
0.000000
0.000000
0.000000
0.000000
0.000000
0.000000
0.000000
0.000000
0.000000
0.000000
0.000000
0.000000
0.000000
0.000000
0.000000
0.000000
0.000000
0.000000
0.000000
0.000000
0.000000
0.000000
0.000000
0.000000
0.000000
0.000000
0.000000
0.000000
0.000000
0.000000
0.000000
0.000000
0.000000
0.000000
0.000000
0.000000
0.000000
0.000000
0.000000
0.000000
0.000000
0.000000
0.000000
0.000000
0.000000
0.000000
0.000000
0.000000
0.000000
0.000000
0.000000
0.000000
0.000000
0.000000
0.000000
0.000000
0.000000
0.000000
0.000000
0.000000
0.000000
0.000000
0.000000
0.000000
0.000000
0.000000
0.000000
0.000000
0.000000
0.000000
0.000000
0.000000
0.000000
0.000000
0.000000
0.000000
0.000000
0.000000
0.000000
0.000000
0.000000
0.000000
0.000000
0.000000
0.000000
0.000000
0.000000
0.000000
0.000000
0.000000
0.000000
0.000000
0.000000
0.000000
0.000000
0.000000
0.000000
</DataArray>
<DataArray NumberOfComponents='1' type='Float32' Name='pressure' format='ascii'>
0.000000
0.000000
0.000000
0.000000
0.000000
0.000000
0.000000
0.000000
0.000000
0.000000
0.000000
0.000000
0.000000
0.000000
0.000000
0.000000
0.000000
0.000000
0.000000
0.000000
0.000000
0.000000
0.000000
0.000000
0.000000
0.000000
0.000000
0.000000
0.000000
0.000000
0.000000
0.000000
0.000000
0.000000
0.000000
0.000000
0.000000
0.000000
0.000000
0.000000
0.000000
0.000000
0.000000
0.000000
0.000000
0.000000
0.000000
0.000000
0.000000
0.000000
0.000000
0.000000
0.000000
0.000000
0.000000
0.000000
0.000000
0.000000
0.000000
0.000000
1335.842285
1907.917847
0.000000
0.000000
0.000000
0.000000
0.000000
0.000000
0.000000
0.000000
0.000000
0.000000
0.000000
0.000000
0.000000
0.000000
0.000000
0.000000
0.000000
0.000000
0.000000
0.000000
0.000000
0.000000
0.000000
0.000000
53.805691
0.000000
0.000000
357.423889
0.000000
0.000000
0.000000
0.000000
0.000000
0.000000
0.000000
0.000000
0.000000
0.000000
0.000000
0.000000
0.000000
0.000000
0.000000
0.000000
0.000000
0.000000
0.000000
0.000000
0.000000
0.000000
0.000000
0.000000
1022.463501
0.000000
0.000000
1463.388062
560.439636
1859.847290
1072.815063
0.000000
1207.966675
0.000000
1107.136719
0.000000
1956.334473
0.000000
1133.470703
0.000000
0.000000
0.000000
0.000000
0.000000
0.000000
749.099792
0.000000
0.000000
2875.959961
1643.595459
0.000000
0.000000
0.000000
755.230103
0.000000
206.826416
1566.255859
0.000000
1729.040039
6427.144043
0.000000
604.850891
0.000000
0.000000
0.000000
0.000000
1783.053223
0.000000
0.000000
1454.603027
0.000000
0.000000
2198.296143
1255.534058
0.000000
0.000000
46.109600
980.090454
0.000000
811.112366
839.018738
729.324158
151.898651
0.000000
1220.962402
0.000000
1897.893433
2081.530029
957.949890
0.000000
0.000000
0.000000
297.411987
0.000000
0.000000
0.000000
0.000000
0.000000
583.759094
0.000000
0.000000
1579.867676
0.000000
1706.392456
0.000000
2250.125977
139.647781
1096.862061
0.000000
0.000000
0.000000
669.533875
0.000000
1363.870850
179.776108
0.000000
1766.119141
0.000000
0.000000
0.000000
195.030380
0.000000
1051.447144
0.000000
0.000000
1340.732178
0.000000
0.000000
0.000000
0.000000
215.875031
0.000000
0.000000
0.000000
0.000000
0.000000
655.436646
753.771240
0.000000
3833.612305
263.072571
0.000000
0.000000
0.000000
678.248901
428.978455
0.000000
0.000000
0.000000
3139.507080
0.000000
1810.900146
0.000000
0.000000
803.285217
0.000000
1712.847412
2516.418701
0.000000
388.851044
895.585876
0.000000
677.540405
0.000000
570.195007
0.000000
0.000000
0.000000
48.262997
0.000000
0.000000
0.000000
0.000000
0.000000
778.396667
0.000000
947.505188
141.678940
0.000000
2202.542480
0.000000
466.073944
0.000000
1460.694214
1708.084351
1087.138062
0.000000
0.000000
0.000000
0.000000
0.000000
0.000000
2202.361816
1954.186646
0.000000
640.227539
0.000000
1170.073853
0.000000
0.000000
0.000000
0.000000
0.000000
0.000000
0.000000
526.185059
0.000000
0.000000
1295.782104
0.000000
436.084320
0.000000
999.091064
722.822632
0.000000
0.000000
1626.851929
646.521667
0.000000
0.000000
0.000000
0.000000
0.000000
0.000000
0.000000
0.000000
0.000000
0.000000
0.000000
0.000000
1178.814575
1474.560059
2276.300049
0.000000
124.193954
0.000000
0.000000
1561.672974
0.000000
0.000000
273.099915
0.000000
1047.748169
0.000000
0.000000
0.000000
0.000000
0.000000
3368.444092
0.000000
0.000000
0.000000
0.000000
0.000000
0.000000
9.551153
350.690155
1218.571045
87.522552
0.000000
169.635010
0.000000
0.000000
0.000000
280.421204
583.026245
0.000000
0.000000
691.892456
12.641396
0.000000
0.000000
2183.171143
823.670471
0.000000
0.000000
4254.355469
4528.733887
0.000000
0.000000
3703.331299
3498.597656
0.000000
0.000000
1448.292603
0.000000
0.000000
0.000000
3034.988770
1893.243408
0.000000
0.000000
3046.474609
1695.412598
0.000000
0.000000
2764.227783
2203.074219
0.000000
0.000000
2043.207275
1786.107666
0.000000
0.000000
1730.416504
272.539215
0.000000
0.000000
2263.449707
806.040466
0.000000
0.000000
149.613266
0.000000
0.000000
0.000000
1614.735718
1797.348877
0.000000
0.000000
790.592468
1458.980957
0.000000
0.000000
447.411957
0.000000
0.000000
0.000000
1805.070679
1755.632812
0.000000
0.000000
929.228821
1324.457275
0.000000
0.000000
1152.898193
567.972778
0.000000
0.000000
2021.865479
1178.741821
0.000000
0.000000
3384.216553
2935.699951
0.000000
0.000000
2086.979736
1755.516846
0.000000
0.000000
1028.938354
527.980225
0.000000
0.000000
1159.522217
412.279541
0.000000
0.000000
0.000000
0.000000
0.000000
0.000000
637.376343
729.484558
0.000000
0.000000
463.359741
359.788422
0.000000
0.000000
959.699707
715.883911
0.000000
0.000000
910.046082
92.715401
0.000000
0.000000
2499.925537
3413.173828
0.000000
0.000000
1374.681274
1177.237793
0.000000
521.475220
0.000000
65.450645
0.000000
0.000000
0.000000
0.000000
0.000000
0.000000
0.000000
0.000000
0.000000
0.000000
0.000000
0.000000
0.000000
0.000000
0.000000
0.000000
0.000000
0.000000
0.000000
0.000000
0.000000
0.000000
1128.363525
817.116089
0.000000
1154.138184
894.716003
1619.881836
0.000000
0.000000
0.000000
0.000000
0.000000
0.000000
0.000000
0.000000
0.000000
0.000000
0.000000
0.000000
0.000000
0.000000
0.000000
0.000000
0.000000
0.000000
0.000000
0.000000
0.000000
0.000000
0.000000
0.000000
0.000000
0.000000
0.000000
0.000000
0.000000
0.000000
0.000000
0.000000
0.000000
0.000000
0.000000
0.000000
0.000000
0.000000
0.000000
0.000000
0.000000
0.000000
0.000000
0.000000
0.000000
0.000000
0.000000
0.000000
0.000000
0.000000
0.000000
0.000000
0.000000
0.000000
0.000000
0.000000
0.000000
0.000000
0.000000
0.000000
0.000000
0.000000
0.000000
0.000000
0.000000
0.000000
0.000000
0.000000
0.000000
0.000000
0.000000
0.000000
0.000000
0.000000
0.000000
0.000000
</DataArray>
</PointData>
<Cells>
<DataArray type='Int32' Name='connectivity' format='ascii'>
0
1
2
3
4
5
6
7
8
9
10
11
12
13
14
15
16
17
18
19
20
21
22
23
24
25
26
27
28
29
30
31
32
33
34
35
36
37
38
39
40
41
42
43
44
45
46
47
48
49
50
51
52
53
54
55
56
57
58
59
60
61
62
63
64
65
66
67
68
69
70
71
72
73
74
75
76
77
78
79
80
81
82
83
84
85
86
87
88
89
90
91
92
93
94
95
96
97
98
99
100
101
102
103
104
105
106
107
108
109
110
111
112
113
114
115
116
117
118
119
120
121
122
123
124
125
126
127
128
129
130
131
132
133
134
135
136
137
138
139
140
141
142
143
144
145
146
147
148
149
150
151
152
153
154
155
156
157
158
159
160
161
162
163
164
165
166
167
168
169
170
171
172
173
174
175
176
177
178
179
180
181
182
183
184
185
186
187
188
189
190
191
192
193
194
195
196
197
198
199
200
201
202
203
204
205
206
207
208
209
210
211
212
213
214
215
216
217
218
219
220
221
222
223
224
225
226
227
228
229
230
231
232
233
234
235
236
237
238
239
240
241
242
243
244
245
246
247
248
249
250
251
252
253
254
255
256
257
258
259
260
261
262
263
264
265
266
267
268
269
270
271
272
273
274
275
276
277
278
279
280
281
282
283
284
285
286
287
288
289
290
291
292
293
294
295
296
297
298
299
300
301
302
303
304
305
306
307
308
309
310
311
312
313
314
315
316
317
318
319
320
321
322
323
324
325
326
327
328
329
330
331
332
333
334
335