<?xml version='1.0' encoding='UTF-8'?>
<VTKFile xmlns='VTK' byte_order='LittleEndian' version='0.1' type='UnstructuredGrid'>
<UnstructuredGrid>
<Piece NumberOfCells='584' NumberOfPoints='584'>
<Points>
<DataArray NumberOfComponents='3' type='Float32' Name='Position' format='ascii'>
-0.075000 -0.075000 0.000000
-0.075000 -0.050000 0.000000
-0.075000 -0.025000 0.000000
-0.075000 0.000000 0.000000
-0.075000 0.025000 0.000000
-0.075000 0.050000 0.000000
-0.075000 0.075000 0.000000
-0.075000 0.100000 0.000000
-0.075000 0.125000 0.000000
-0.075000 0.150000 0.000000
-0.075000 0.175000 0.000000
-0.075000 0.200000 0.000000
-0.075000 0.225000 0.000000
-0.075000 0.250000 0.000000
-0.075000 0.275000 0.000000
-0.075000 0.300000 0.000000
-0.075000 0.325000 0.000000
-0.075000 0.350000 0.000000
-0.075000 0.375000 0.000000
-0.075000 0.400000 0.000000
-0.075000 0.425000 0.000000
-0.075000 0.450000 0.000000
-0.075000 0.475000 0.000000
-0.075000 0.500000 0.000000
-0.075000 0.525000 0.000000
-0.075000 0.550000 0.000000
-0.075000 0.575000 0.000000
-0.075000 0.600000 0.000000
-0.050000 -0.075000 0.000000
-0.050000 -0.050000 0.000000
-0.050000 -0.025000 0.000000
-0.050000 0.000000 0.000000
-0.050000 0.025000 0.000000
-0.050000 0.050000 0.000000
-0.050000 0.075000 0.000000
-0.050000 0.100000 0.000000
-0.050000 0.125000 0.000000
-0.050000 0.150000 0.000000
-0.050000 0.175000 0.000000
-0.050000 0.200000 0.000000
-0.050000 0.225000 0.000000
-0.050000 0.250000 0.000000
-0.050000 0.275000 0.000000
-0.050000 0.300000 0.000000
-0.050000 0.325000 0.000000
-0.050000 0.350000 0.000000
-0.050000 0.375000 0.000000
-0.050000 0.400000 0.000000
-0.050000 0.425000 0.000000
-0.050000 0.450000 0.000000
-0.050000 0.475000 0.000000
-0.050000 0.500000 0.000000
-0.050000 0.525000 0.000000
-0.050000 0.550000 0.000000
-0.050000 0.575000 0.000000
-0.050000 0.600000 0.000000
-0.025000 -0.075000 0.000000
-0.025000 -0.050000 0.000000
-0.025000 -0.025000 0.000000
-0.025000 0.000000 0.000000
-0.025000 0.025000 0.000000
-0.025000 0.050000 0.000000
-0.025000 0.075000 0.000000
-0.025000 0.100000 0.000000
-0.025000 0.125000 0.000000
-0.025000 0.150000 0.000000
-0.025000 0.175000 0.000000
-0.025000 0.200000 0.000000
-0.025000 0.225000 0.000000
-0.025000 0.250000 0.000000
-0.025000 0.275000 0.000000
-0.025000 0.300000 0.000000
-0.025000 0.325000 0.000000
-0.025000 0.350000 0.000000
-0.025000 0.375000 0.000000
-0.025000 0.400000 0.000000
-0.025000 0.425000 0.000000
-0.025000 0.450000 0.000000
-0.025000 0.475000 0.000000
-0.025000 0.500000 0.000000
-0.025000 0.525000 0.000000
-0.025000 0.550000 0.000000
-0.025000 0.575000 0.000000
-0.025000 0.600000 0.000000
0.000000 -0.075000 0.000000
0.000000 -0.050000 0.000000
0.000000 -0.025000 0.000000
0.000000 0.000000 0.000000
0.000000 0.025000 0.000000
0.000000 0.050000 0.000000
0.000000 0.075000 0.000000
0.000000 0.100000 0.000000
0.000000 0.125000 0.000000
0.000000 0.150000 0.000000
0.000000 0.175000 0.000000
0.000000 0.200000 0.000000
0.000000 0.225000 0.000000
0.000000 0.250000 0.000000
0.000000 0.275000 0.000000
0.000000 0.300000 0.000000
0.000000 0.325000 0.000000
0.000000 0.350000 0.000000
0.000000 0.375000 0.000000
0.000000 0.400000 0.000000
0.000000 0.425000 0.000000
0.000000 0.450000 0.000000
0.000000 0.475000 0.000000
0.000000 0.500000 0.000000
0.000000 0.525000 0.000000
0.000000 0.550000 0.000000
0.000000 0.575000 0.000000
0.000000 0.600000 0.000000
0.025000 -0.075000 0.000000
0.025000 -0.050000 0.000000
0.025000 -0.025000 0.000000
0.025000 0.000000 0.000000
0.120145 0.052538 0.000000
0.182456 0.128078 0.000000
0.135394 0.022344 0.000000
0.174342 0.023788 0.000000
0.230776 0.042777 0.000000
0.100394 0.112119 0.000000
0.295985 0.024541 0.000000
0.194603 0.031790 0.000000
0.171025 0.055707 0.000000
0.039045 0.258024 0.000000
0.214697 0.023106 0.000000
0.049738 0.177088 0.000000
0.111205 0.027231 0.000000
0.073055 0.051550 0.000000
0.114382 0.135584 0.000000
0.055191 0.047143 0.000000
0.040388 0.197182 0.000000
0.089931 0.029089 0.000000
0.071992 0.196914 0.000000
0.097439 0.056188 0.000000
0.050000 -0.075000 0.000000
0.050000 -0.050000 0.000000
0.050000 -0.025000 0.000000
0.050000 0.000000 0.000000
0.131986 0.207468 0.000000
0.070560 0.141867 0.000000
0.059569 0.232001 0.000000
0.025331 0.023630 0.000000
0.029600 0.155697 0.000000
0.430160 0.053585 0.000000
0.161671 0.110691 0.000000
0.581728 0.053738 0.000000
0.132799 0.163140 0.000000
0.219318 0.164904 0.000000
0.083163 0.100719 0.000000
0.222861 0.098703 0.000000
0.025213 0.281712 0.000000
0.135168 0.183242 0.000000
0.064086 0.078801 0.000000
0.021805 0.073326 0.000000
0.180893 0.088210 0.000000
0.199607 0.085713 0.000000
0.069596 0.319452 0.000000
0.040460 0.073375 0.000000
0.075000 -0.075000 0.000000
0.075000 -0.050000 0.000000
0.075000 -0.025000 0.000000
0.075000 0.000000 0.000000
0.105155 0.158468 0.000000
0.157688 0.087996 0.000000
0.382412 0.040652 0.000000
0.319113 0.025889 0.000000
0.453224 0.109814 0.000000
0.663143 0.026280 0.000000
0.686189 0.042968 0.000000
0.040389 0.140752 0.000000
0.400435 0.111053 0.000000
0.656308 0.044054 0.000000
0.436692 0.021739 0.000000
0.092666 0.139122 0.000000
0.192772 0.057733 0.000000
0.202719 0.117107 0.000000
0.235803 0.075274 0.000000
0.054883 0.100484 0.000000
0.138142 0.105297 0.000000
0.031285 0.040519 0.000000
0.150012 0.062590 0.000000
0.127452 0.072332 0.000000
0.100000 -0.075000 0.000000
0.100000 -0.050000 0.000000
0.100000 -0.025000 0.000000
0.100000 0.000000 0.000000
0.478484 0.022216 0.000000
0.349644 0.140057 0.000000
0.488460 0.052565 0.000000
0.813376 0.025722 0.000000
0.216915 0.065738 0.000000
0.743920 0.027996 0.000000
0.641547 0.088213 0.000000
0.253249 0.047919 0.000000
0.698849 0.020444 0.000000
0.707246 0.047819 0.000000
0.454124 0.034712 0.000000
0.324535 0.117085 0.000000
0.542408 0.041923 0.000000
0.609281 0.024646 0.000000
0.104051 0.196331 0.000000
0.245422 0.024003 0.000000
0.532590 0.022721 0.000000
0.262977 0.072717 0.000000
0.352210 0.078668 0.000000
0.219311 0.129302 0.000000
0.125000 -0.075000 0.000000
0.125000 -0.050000 0.000000
0.125000 -0.025000 0.000000
0.125000 0.000000 0.000000
0.726487 0.079851 0.000000
0.708022 0.152552 0.000000
0.989198 0.072689 0.000000
0.830800 0.032642 0.000000
0.574719 0.069861 0.000000
0.583594 0.027532 0.000000
0.209558 0.154028 0.000000
0.505386 0.070289 0.000000
0.785450 0.085361 0.000000
0.761806 0.059069 0.000000
0.875190 0.046374 0.000000
0.536747 0.063174 0.000000
0.499787 0.027639 0.000000
0.489126 0.094400 0.000000
0.405207 0.023436 0.000000
0.476178 0.106406 0.000000
0.313301 0.136624 0.000000
0.120279 0.094092 0.000000
0.468437 0.071943 0.000000
0.019892 0.184273 0.000000
0.150000 -0.075000 0.000000
0.150000 -0.050000 0.000000
0.150000 -0.025000 0.000000
0.150000 0.000000 0.000000
0.239796 0.116459 0.000000
0.963659 0.028875 0.000000
0.766519 0.101309 0.000000
0.282175 0.051142 0.000000
0.882107 0.023044 0.000000
0.151916 0.036147 0.000000
0.919261 0.040353 0.000000
0.428216 0.078435 0.000000
0.947017 0.053415 0.000000
0.595635 0.112354 0.000000
0.886619 0.100135 0.000000
0.724036 0.030601 0.000000
0.838609 0.063874 0.000000
0.824777 0.075882 0.000000
0.784169 0.020529 0.000000
0.626496 0.053585 0.000000
0.637699 0.022421 0.000000
0.670483 0.063103 0.000000
0.685182 0.077527 0.000000
0.264587 0.115026 0.000000
0.175000 -0.075000 0.000000
0.175000 -0.050000 0.000000
0.175000 -0.025000 0.000000
0.175000 0.000000 0.000000
0.061231 0.165483 0.000000
0.643234 0.103126 0.000000
0.898372 0.071106 0.000000
0.839662 0.086731 0.000000
0.984304 0.025919 0.000000
0.132265 0.268915 0.000000
0.854050 0.022918 0.000000
0.329791 0.055395 0.000000
0.367058 0.021657 0.000000
0.907040 0.027568 0.000000
0.557172 0.079493 0.000000
0.761880 0.082712 0.000000
0.421383 0.105001 0.000000
0.940120 0.021109 0.000000
0.984864 0.059963 0.000000
0.411311 0.045377 0.000000
1.003269 0.030032 0.000000
0.491011 0.118584 0.000000
0.184710 0.152401 0.000000
0.427290 0.134548 0.000000
0.200000 -0.075000 0.000000
0.200000 -0.050000 0.000000
0.200000 -0.025000 0.000000
0.200000 0.000000 0.000000
0.369569 0.086311 0.000000
0.092615 0.080004 0.000000
0.298163 0.089509 0.000000
0.804579 0.049673 0.000000
0.352879 0.049769 0.000000
0.299736 0.125622 0.000000
0.608244 0.046373 0.000000
0.950552 0.073991 0.000000
0.412386 0.127184 0.000000
0.020633 0.221210 0.000000
0.798941 0.079645 0.000000
0.708768 0.082232 0.000000
0.063679 0.019907 0.000000
0.459981 0.055814 0.000000
0.608178 0.080209 0.000000
0.068803 0.248291 0.000000
0.727587 0.064166 0.000000
0.374320 0.135995 0.000000
0.887828 0.062365 0.000000
0.724407 0.116810 0.000000
0.225000 -0.075000 0.000000
0.225000 -0.050000 0.000000
0.225000 -0.025000 0.000000
0.225000 0.000000 0.000000
0.282834 0.081163 0.000000
0.854593 0.050057 0.000000
0.584043 0.095539 0.000000
0.170290 0.155405 0.000000
0.043753 0.236185 0.000000
0.087799 0.260100 0.000000
0.448156 0.089423 0.000000
0.933355 0.062410 0.000000
0.632528 0.075090 0.000000
0.099162 0.184278 0.000000
0.685942 0.094840 0.000000
0.071646 0.399131 0.000000
0.343880 0.027610 0.000000
0.404901 0.070548 0.000000
0.061463 0.121304 0.000000
0.250466 0.185102 0.000000
0.515447 0.043108 0.000000
0.027861 0.102118 0.000000
0.251573 0.096823 0.000000
0.303159 0.050229 0.000000
0.250000 -0.075000 0.000000
0.250000 -0.050000 0.000000
0.250000 -0.025000 0.000000
0.250000 0.000000 0.000000
0.762568 0.032849 0.000000
0.362364 0.126124 0.000000
0.276444 0.130751 0.000000
0.318729 0.099098 0.000000
0.271840 0.027623 0.000000
0.391940 0.091267 0.000000
0.156936 0.141097 0.000000
0.265854 0.163625 0.000000
0.270390 0.148215 0.000000
0.517194 0.086461 0.000000
0.241676 0.154461 0.000000
0.038196 0.299423 0.000000
0.136258 0.131477 0.000000
0.564203 0.023644 0.000000
0.378729 0.060900 0.000000
0.322268 0.073005 0.000000
0.350593 0.104111 0.000000
0.782071 0.051731 0.000000
0.023232 0.122109 0.000000
0.536609 0.087492 0.000000
0.275000 -0.075000 0.000000
0.275000 -0.050000 0.000000
0.275000 -0.025000 0.000000
0.275000 0.000000 0.000000
0.300000 -0.075000 0.000000
0.300000 -0.050000 0.000000
0.300000 -0.025000 0.000000
0.300000 0.000000 0.000000
0.325000 -0.075000 0.000000
0.325000 -0.050000 0.000000
0.325000 -0.025000 0.000000
0.325000 0.000000 0.000000
0.350000 -0.075000 0.000000
0.350000 -0.050000 0.000000
0.350000 -0.025000 0.000000
0.350000 0.000000 0.000000
0.375000 -0.075000 0.000000
0.375000 -0.050000 0.000000
0.375000 -0.025000 0.000000
0.375000 0.000000 0.000000
0.400000 -0.075000 0.000000
0.400000 -0.050000 0.000000
0.400000 -0.025000 0.000000
0.400000 0.000000 0.000000
0.425000 -0.075000 0.000000
0.425000 -0.050000 0.000000
0.425000 -0.025000 0.000000
0.425000 0.000000 0.000000
0.450000 -0.075000 0.000000
0.450000 -0.050000 0.000000
0.450000 -0.025000 0.000000
0.450000 0.000000 0.000000
0.475000 -0.075000 0.000000
0.475000 -0.050000 0.000000
0.475000 -0.025000 0.000000
0.475000 0.000000 0.000000
0.500000 -0.075000 0.000000
0.500000 -0.050000 0.000000
0.500000 -0.025000 0.000000
0.500000 0.000000 0.000000
0.525000 -0.075000 0.000000
0.525000 -0.050000 0.000000
0.525000 -0.025000 0.000000
0.525000 0.000000 0.000000
0.550000 -0.075000 0.000000
0.550000 -0.050000 0.000000
0.550000 -0.025000 0.000000
0.550000 0.000000 0.000000
0.575000 -0.075000 0.000000
0.575000 -0.050000 0.000000
0.575000 -0.025000 0.000000
0.575000 0.000000 0.000000
0.600000 -0.075000 0.000000
0.600000 -0.050000 0.000000
0.600000 -0.025000 0.000000
0.600000 0.000000 0.000000
0.625000 -0.075000 0.000000
0.625000 -0.050000 0.000000
0.625000 -0.025000 0.000000
0.625000 0.000000 0.000000
0.650000 -0.075000 0.000000
0.650000 -0.050000 0.000000
0.650000 -0.025000 0.000000
0.650000 0.000000 0.000000
0.675000 -0.075000 0.000000
0.675000 -0.050000 0.000000
0.675000 -0.025000 0.000000
0.675000 0.000000 0.000000
0.700000 -0.075000 0.000000
0.700000 -0.050000 0.000000
0.700000 -0.025000 0.000000
0.700000 0.000000 0.000000
0.725000 -0.075000 0.000000
0.725000 -0.050000 0.000000
0.725000 -0.025000 0.000000
0.725000 0.000000 0.000000
0.750000 -0.075000 0.000000
0.750000 -0.050000 0.000000
0.750000 -0.025000 0.000000
0.750000 0.000000 0.000000
0.775000 -0.075000 0.000000
0.775000 -0.050000 0.000000
0.775000 -0.025000 0.000000
0.775000 0.000000 0.000000
0.800000 -0.075000 0.000000
0.800000 -0.050000 0.000000
0.800000 -0.025000 0.000000
0.800000 0.000000 0.000000
0.825000 -0.075000 0.000000
0.825000 -0.050000 0.000000
0.825000 -0.025000 0.000000
0.825000 0.000000 0.000000
0.850000 -0.075000 0.000000
0.850000 -0.050000 0.000000
0.850000 -0.025000 0.000000
0.850000 0.000000 0.000000
0.875000 -0.075000 0.000000
0.875000 -0.050000 0.000000
0.875000 -0.025000 0.000000
0.875000 0.000000 0.000000
0.900000 -0.075000 0.000000
0.900000 -0.050000 0.000000
0.900000 -0.025000 0.000000
0.900000 0.000000 0.000000
0.925000 -0.075000 0.000000
0.925000 -0.050000 0.000000
0.925000 -0.025000 0.000000
0.925000 0.000000 0.000000
0.950000 -0.075000 0.000000
0.950000 -0.050000 0.000000
0.950000 -0.025000 0.000000
0.950000 0.000000 0.000000
0.975000 -0.075000 0.000000
0.975000 -0.050000 0.000000
0.975000 -0.025000 0.000000
0.975000 0.000000 0.000000
1.000000 -0.075000 0.000000
1.000000 -0.050000 0.000000
1.000000 -0.025000 0.000000
1.000000 0.000000 0.000000
1.025000 -0.075000 0.000000
1.025000 -0.050000 0.000000
1.025000 -0.025000 0.000000
1.025000 0.000000 0.000000
1.025000 0.025000 0.000000
1.025000 0.050000 0.000000
1.025000 0.075000 0.000000
1.025000 0.100000 0.000000
1.025000 0.125000 0.000000
1.025000 0.150000 0.000000
1.025000 0.175000 0.000000
1.025000 0.200000 0.000000
1.025000 0.225000 0.000000
1.025000 0.250000 0.000000
1.025000 0.275000 0.000000
1.025000 0.300000 0.000000
1.025000 0.325000 0.000000
1.025000 0.350000 0.000000
1.025000 0.375000 0.000000
1.025000 0.400000 0.000000
1.025000 0.425000 0.000000
1.025000 0.450000 0.000000
1.025000 0.475000 0.000000
1.025000 0.500000 0.000000
1.025000 0.525000 0.000000
1.025000 0.550000 0.000000
1.025000 0.575000 0.000000
1.025000 0.600000 0.000000
1.050000 -0.075000 0.000000
1.050000 -0.050000 0.000000
1.050000 -0.025000 0.000000
1.050000 0.000000 0.000000
1.050000 0.025000 0.000000
1.050000 0.050000 0.000000
1.050000 0.075000 0.000000
1.050000 0.100000 0.000000
1.050000 0.125000 0.000000
1.050000 0.150000 0.000000
1.050000 0.175000 0.000000
1.050000 0.200000 0.000000
1.050000 0.225000 0.000000
1.050000 0.250000 0.000000
1.050000 0.275000 0.000000
1.050000 0.300000 0.000000
1.050000 0.325000 0.000000
1.050000 0.350000 0.000000
1.050000 0.375000 0.000000
1.050000 0.400000 0.000000
1.050000 0.425000 0.000000
1.050000 0.450000 0.000000
1.050000 0.475000 0.000000
1.050000 0.500000 0.000000
1.050000 0.525000 0.000000
1.050000 0.550000 0.000000
1.050000 0.575000 0.000000
1.050000 0.600000 0.000000
1.075000 -0.075000 0.000000
1.075000 -0.050000 0.000000
1.075000 -0.025000 0.000000
1.075000 0.000000 0.000000
1.075000 0.025000 0.000000
1.075000 0.050000 0.000000
1.075000 0.075000 0.000000
1.075000 0.100000 0.000000
1.075000 0.125000 0.000000
1.075000 0.150000 0.000000
1.075000 0.175000 0.000000
1.075000 0.200000 0.000000
1.075000 0.225000 0.000000
1.075000 0.250000 0.000000
1.075000 0.275000 0.000000
1.075000 0.300000 0.000000
1.075000 0.325000 0.000000
1.075000 0.350000 0.000000
1.075000 0.375000 0.000000
1.075000 0.400000 0.000000
1.075000 0.425000 0.000000
1.075000 0.450000 0.000000
1.075000 0.475000 0.000000
1.075000 0.500000 0.000000
1.075000 0.525000 0.000000
1.075000 0.550000 0.000000
1.075000 0.575000 0.000000
1.075000 0.600000 0.000000
1.100000 -0.075000 0.000000
1.100000 -0.050000 0.000000
1.100000 -0.025000 0.000000
1.100000 0.000000 0.000000
1.100000 0.025000 0.000000
1.100000 0.050000 0.000000
1.100000 0.075000 0.000000
1.100000 0.100000 0.000000
1.100000 0.125000 0.000000
1.100000 0.150000 0.000000
1.100000 0.175000 0.000000
1.100000 0.200000 0.000000
1.100000 0.225000 0.000000
1.100000 0.250000 0.000000
1.100000 0.275000 0.000000
1.100000 0.300000 0.000000
1.100000 0.325000 0.000000
1.100000 0.350000 0.000000
1.100000 0.375000 0.000000
1.100000 0.400000 0.000000
1.100000 0.425000 0.000000
1.100000 0.450000 0.000000
1.100000 0.475000 0.000000
1.100000 0.500000 0.000000
1.100000 0.525000 0.000000
1.100000 0.550000 0.000000
1.100000 0.575000 0.000000
1.100000 0.600000 0.000000
</DataArray>
</Points>
<PointData>
<DataArray NumberOfComponents='1' type='Int32' Name='ParticleType' format='ascii'>
3
3
3
3
3
3
3
3
3
3
3
3
3
3
3
3
3
3
3
3
3
3
3
3
3
3
2
2
3
3
3
3
3
3
3
3
3
3
3
3
3
3
3
3
3
3
3
3
3
3
3
3
3
3
2
2
3
3
2
2
2
2
2
2
2
2
2
2
2
2
2
2
2
2
2
2
2
2
2
2
2
2
2
2
3
3
2
2
2
2
2
2
2
2
2
2
2
2
2
2
2
2
2
2
2
2
2
2
2
2
2
2
3
3
2
2
0
0
0
0
0
0
0
0
0
0
0
0
0
0
0
0
0
0
0
0
3
3
2
2
0
0
0
0
0
0
0
0
0
0
0
0
0
0
0
0
0
0
0
0
3
3
2
2
0
0
0
0
0
0
0
0
0
0
0
0
0
0
0
0
0
0
0
0
3
3
2
2
0
0
0
0
0
0
0
0
0
0
0
0
0
0
0
0
0
0
0
0
3
3
2
2
0
0
0
0
0
0
0
0
0
0
0
0
0
0
0
0
0
0
0
0
3
3
2
2
0
0
0
0
0
0
0
0
0
0
0
0
0
0
0
0
0
0
0
0
3
3
2
2
0
0
0
0
0
0
0
0
0
0
0
0
0
0
0
0
0
0
0
0
3
3
2
2
0
0
0
0
0
0
0
0
0
0
0
0
0
0
0
0
0
0
0
0
3
3
2
2
0
0
0
0
0
0
0
0
0
0
0
0
0
0
0
0
0
0
0
0
3
3
2
2
0
0
0
0
0
0
0
0
0
0
0
0
0
0
0
0
0
0
0
0
3
3
2
2
3
3
2
2
3
3
2
2
3
3
2
2
3
3
2
2
3
3
2
2
3
3
2
2
3
3
2
2
3
3
2
2
3
3
2
2
3
3
2
2
3
3
2
2
3
3
2
2
3
3
2
2
3
3
2
2
3
3
2
2
3
3
2
2
3
3
2
2
3
3
2
2
3
3
2
2
3
3
2
2
3
3
2
2
3
3
2
2
3
3
2
2
3
3
2
2
3
3
2
2
3
3
2
2
3
3
2
2
3
3
2
2
3
3
2
2
3
3
2
2
2
2
2
2
2
2
2
2
2
2
2
2
2
2
2
2
2
2
2
2
2
2
2
2
3
3
2
2
2
2
2
2
2
2
2
2
2
2
2
2
2
2
2
2
2
2
2
2
2
2
2
2
3
3
3
3
3
3
3
3
3
3
3
3
3
3
3
3
3
3
3
3
3
3
3
3
3
3
2
2
3
3
3
3
3
3
3
3
3
3
3
3
3
3
3
3
3
3
3
3
3
3
3
3
3
3
2
2
</DataArray>
<DataArray NumberOfComponents='1' type='Float32' Name='Velocity' format='ascii'>
0.000000
0.000000
0.000000
0.000000
0.000000
0.000000
0.000000
0.000000
0.000000
0.000000
0.000000
0.000000
0.000000
0.000000
0.000000
0.000000
0.000000
0.000000
0.000000
0.000000
0.000000
0.000000
0.000000
0.000000
0.000000
0.000000
0.000000
0.000000
0.000000
0.000000
0.000000
0.000000
0.000000
0.000000
0.000000
0.000000
0.000000
0.000000
0.000000
0.000000
0.000000
0.000000
0.000000
0.000000
0.000000
0.000000
0.000000
0.000000
0.000000
0.000000
0.000000
0.000000
0.000000
0.000000
0.000000
0.000000
0.000000
0.000000
0.000000
0.000000
0.000000
0.000000
0.000000
0.000000
0.000000
0.000000
0.000000
0.000000
0.000000
0.000000
0.000000
0.000000
0.000000
0.000000
0.000000
0.000000
0.000000
0.000000
0.000000
0.000000
0.000000
0.000000
0.000000
0.000000
0.000000
0.000000
0.000000
0.000000
0.000000
0.000000
0.000000
0.000000
0.000000
0.000000
0.000000
0.000000
0.000000
0.000000
0.000000
0.000000
0.000000
0.000000
0.000000
0.000000
0.000000
0.000000
0.000000
0.000000
0.000000
0.000000
0.000000
0.000000
0.000000
0.000000
0.000000
0.000000
0.266000
0.718517
0.159123
0.107833
0.378843
0.207338
0.468312
0.379963
0.308187
0.403886
0.224846
0.300751
0.432354
0.393907
0.573957
0.467532
0.332549
0.411912
0.443506
0.504114
0.000000
0.000000
0.000000
0.000000
0.339396
0.508724
0.776943
0.139211
0.101953
0.321213
0.347452
0.558667
0.480353
0.687569
0.305046
0.590263
0.615561
0.115089
0.302202
0.068250
0.401733
0.336396
0.222736
0.263621
0.000000
0.000000
0.000000
0.000000
0.433851
0.017430
0.012975
0.223348
0.973507
0.443243
0.409951
0.349679
0.917382
0.394552
0.147680
0.525032
0.139936
0.196645
0.373362
0.329372
0.275698
0.083188
0.343570
0.216279
0.000000
0.000000
0.000000
0.000000
0.564278
1.012434
0.314020
0.488432
0.147831
0.379416
0.767146
0.325854
0.283734
0.540531
0.175548
0.498912
0.372393
0.187008
0.489157
0.314764
0.109672
0.424145
0.563376
0.915627
0.000000
0.000000
0.000000
0.000000
0.417662
0.961193
0.221180
0.349632
0.769974
0.327099
1.076423
0.749764
0.209078
0.320320
0.388546
0.717020
0.209736
0.698459
0.215531
0.951155
0.960346
0.149231
0.395574
0.469893
0.000000
0.000000
0.000000
0.000000
0.544813
0.187097
0.571822
0.335761
0.243639
0.185254
0.098019
0.422471
0.326332
1.698271
0.524990
0.461342
0.457400
0.556617
0.321664
0.199985
0.083567
0.398331
0.397710
0.737063
0.000000
0.000000
0.000000
0.000000
0.257491
0.648790
0.460478
0.646458
0.091763
0.367925
0.113186
0.230687
0.564657
0.028797
0.861978
0.422522
1.066763
0.100101
0.321944
0.434200
0.244936
0.489732
0.545264
0.607686
0.000000
0.000000
0.000000
0.000000
0.587889
0.277938
0.472834
0.340888
0.257190
0.902668
0.296537
0.192292
0.544930
0.458479
0.256906
0.347945
0.217187
0.229593
0.906417
0.588170
0.333076
0.700895
0.548169
0.247160
0.000000
0.000000
0.000000
0.000000
0.466502
0.361539
0.514169
0.812411
0.576797
0.699528
0.527602
0.162292
0.385613
0.303981
0.472814
0.696710
0.171199
0.513085
0.298225
0.737408
0.674668
0.437497
0.522315
0.592161
0.000000
0.000000
0.000000
0.000000
0.489486
0.954289
0.800532
0.742614
0.625054
0.498177
0.114067
0.482512
0.769145
0.549205
0.294007
0.127070
0.058445
0.427392
0.670094
0.437966
0.892545
0.229909
0.327023
0.978368
0.000000
0.000000
0.000000
0.000000
0.000000
0.000000
0.000000
0.000000
0.000000
0.000000
0.000000
0.000000
0.000000
0.000000
0.000000
0.000000
0.000000
0.000000
0.000000
0.000000
0.000000
0.000000
0.000000
0.000000
0.000000
0.000000
0.000000
0.000000
0.000000
0.000000
0.000000
0.000000
0.000000
0.000000
0.000000
0.000000
0.000000
0.000000
0.000000
0.000000
0.000000
0.000000
0.000000
0.000000
0.000000
0.000000
0.000000
0.000000
0.000000
0.000000
0.000000
0.000000
0.000000
0.000000
0.000000
0.000000
0.000000
0.000000
0.000000
0.000000
0.000000
0.000000
0.000000
0.000000
0.000000
0.000000
0.000000
0.000000
0.000000
0.000000
0.000000
0.000000
0.000000
0.000000
0.000000
0.000000
0.000000
0.000000
0.000000
0.000000
0.000000
0.000000
0.000000
0.000000
0.000000
0.000000
0.000000
0.000000
0.000000
0.000000
0.000000
0.000000
0.000000
0.000000
0.000000
0.000000
0.000000
0.000000
0.000000
0.000000
0.000000
0.000000
0.000000
0.000000
0.000000
0.000000
0.000000
0.000000
0.000000
0.000000
0.000000
0.000000
0.000000
0.000000
0.000000
0.000000
0.000000
0.000000
0.000000
0.000000
0.000000
0.000000
0.000000
0.000000
0.000000
0.000000
0.000000
0.000000
0.000000
0.000000
0.000000
0.000000
0.000000
0.000000
0.000000
0.000000
0.000000
0.000000
0.000000
0.000000
0.000000
0.000000
0.000000
0.000000
0.000000
0.000000
0.000000
0.000000
0.000000
0.000000
0.000000
0.000000
0.000000
0.000000
0.000000
0.000000
0.000000
0.000000
0.000000
0.000000
0.000000
0.000000
0.000000
0.000000
0.000000
0.000000
0.000000
0.000000
0.000000
0.000000
0.000000
0.000000
0.000000
0.000000
0.000000
0.000000
0.000000
0.000000
0.000000
0.000000
0.000000
0.000000
0.000000
0.000000
0.000000
0.000000
0.000000
0.000000
0.000000
0.000000
0.000000
0.000000
0.000000
0.000000
0.000000
0.000000
0.000000
0.000000
0.000000
0.000000
0.000000
0.000000
0.000000
0.000000
0.000000
0.000000
0.000000
0.000000
0.000000
0.000000
0.000000
0.000000
0.000000
0.000000
0.000000
0.000000
0.000000
0.000000
0.000000
0.000000
0.000000
0.000000
0.000000
0.000000
0.000000
0.000000
0.000000
0.000000
0.000000
0.000000
0.000000
0.000000
</DataArray>
<DataArray NumberOfComponents='1' type='Float32' Name='pressure' format='ascii'>
0.000000
0.000000
0.000000
0.000000
0.000000
0.000000
0.000000
0.000000
0.000000
0.000000
0.000000
0.000000
0.000000
0.000000
0.000000
0.000000
0.000000
0.000000
0.000000
0.000000
0.000000
0.000000
0.000000
0.000000
0.000000
0.000000
0.000000
0.000000
0.000000
0.000000
0.000000
0.000000
0.000000
0.000000
0.000000
0.000000
0.000000
0.000000
0.000000
0.000000
0.000000
0.000000
0.000000
0.000000
0.000000
0.000000
0.000000
0.000000
0.000000
0.000000
0.000000
0.000000
0.000000
0.000000
0.000000
0.000000
0.000000
0.000000
1890.852783
1602.477783
1033.879761
193.346573
1831.603516
0.000000
974.252808
0.000000
2575.771729
2861.364990
2421.777344
0.000000
0.000000
0.000000
0.000000
0.000000
0.000000
0.000000
0.000000
0.000000
0.000000
0.000000
0.000000
0.000000
0.000000
0.000000
0.000000
0.000000
2054.218018
2408.074463
585.314636
0.000000
1415.775024
475.805725
420.993896
0.000000
565.136780
1053.361084
0.000000
0.000000
0.000000
0.000000
0.000000
0.000000
0.000000
0.000000
0.000000
0.000000
0.000000
0.000000
0.000000
0.000000
0.000000
0.000000
0.000000
0.000000
2522.141113
2574.882568
1043.270142
890.851929
2131.601318
1680.586792
818.356812
0.000000
2504.383789
1320.412842
1256.739014
0.000000
2011.465698
953.697754
1059.573364
2049.705078
0.000000
466.388184
0.000000
191.623734
0.000000
473.289429
0.000000
0.000000
2769.579834
578.836670
0.000000
0.000000
0.000000
2295.617432
0.000000
0.000000
0.000000
0.000000
0.000000
0.000000
0.000000
2134.950928
0.000000
0.000000
338.868561
1877.276855
1801.614380
1409.721069
0.000000
647.330383
0.000000
0.000000
2546.686035
635.546204
0.000000
784.607361
0.000000
1470.819824
0.000000
794.763123
798.985474
355.600464
379.842529
0.000000
432.046448
0.000000
598.977722
0.000000
926.258118
0.000000
758.151672
191.213806
395.909637
818.063171
0.000000
0.000000
303.372742
0.000000
485.997131
0.000000
0.000000
0.000000
867.698914
884.466797
460.959961
1417.080566
0.000000
843.215820
76.504837
361.320801
449.651428
687.743225
0.000000
702.993225
1153.201294
311.352936
326.081055
0.000000
0.000000
0.000000
1697.772949
1668.806274
0.000000
0.000000
0.000000
588.666443
836.554443
1475.814941
545.116272
464.137909
0.000000
0.000000
1738.790283
2385.652588
2071.345215
0.000000
0.000000
0.000000
0.000000
694.497314
764.145386
0.000000
0.000000
0.000000
1520.265869
776.952942
387.192322
0.000000
0.000000
956.467224
1761.447632
1052.946533
709.776794
0.000000
156.885300
0.000000
0.000000
0.000000
1585.871704
0.000000
1255.523560
0.000000
0.000000
0.000000
395.604004
1190.810791
0.000000
0.000000
1787.537964
1517.700928
0.000000
0.000000
0.000000
0.000000
82.980698
0.000000
1063.201538
1042.864624
2139.256592
712.500427
0.000000
0.000000
625.143188
0.000000
0.000000
1304.404541
0.000000
0.000000
2222.253418
0.000000
0.000000
0.000000
1158.680420
702.522034
789.459351
0.000000
1108.119629
0.000000
396.051758
0.000000
1286.126465
0.000000
0.000000
0.000000
0.000000
0.000000
0.000000
1682.839111
0.000000
0.000000
0.000000
0.000000
448.150665
0.000000
0.000000
0.000000
1233.538940
1373.193359
842.567322
217.603851
0.000000
0.000000
0.000000
0.000000
0.000000
0.000000
345.536591
0.000000
0.000000
0.000000
1183.429077
471.688232
0.000000
0.000000
1756.854004
0.000000
1744.820679
870.029236
0.000000
0.000000
776.798645
451.316162
336.250946
339.415863
2747.021484
1171.926514
1565.307129
0.000000
0.000000
0.000000
191.150269
0.000000
0.000000
0.000000
0.000000
560.884338
403.865387
380.726959
0.000000
0.000000
0.000000
0.000000
0.000000
0.000000
0.000000
0.000000
0.000000
0.000000
460.871674
748.281799
0.000000
0.000000
412.438629
23.680782
0.000000
0.000000
1447.537231
1364.807373
0.000000
0.000000
2553.435547
2121.190186
0.000000
0.000000
2023.101929
487.626984
0.000000
0.000000
2206.126465
901.614075
0.000000
0.000000
2100.268799
489.562378
0.000000
0.000000
2677.016113
2739.024902
0.000000
0.000000
1220.792603
979.153259
0.000000
0.000000
2342.752686
1492.980957
0.000000
0.000000
2160.552246
2283.502686
0.000000
0.000000
1770.558472
2154.138184
0.000000
0.000000
1202.585693
1704.750000
0.000000
0.000000
1307.879028
329.739044
0.000000
0.000000
891.005371
365.979156
0.000000
0.000000
12.835752
0.000000
0.000000
0.000000
1807.662109
2429.390869
0.000000
0.000000
0.000000
0.000000
0.000000
0.000000
0.000000
0.000000
0.000000
0.000000
1690.612305
1561.815063
0.000000
0.000000
1438.719360
563.168762
0.000000
0.000000
400.191162
0.000000
0.000000
0.000000
1979.453857
2005.353882
0.000000
0.000000
1967.629517
2681.225586
0.000000
0.000000
646.972900
0.000000
0.000000
0.000000
1239.270630
23.770609
0.000000
0.000000
1491.750366
1046.290039
0.000000
0.000000
0.000000
541.867310
0.000000
0.000000
0.000000
0.000000
0.000000
0.000000
0.000000
84.495567
0.000000
0.000000
0.000000
0.000000
0.000000
0.000000
0.000000
0.000000
0.000000
0.000000
0.000000
0.000000
0.000000
0.000000
0.000000
0.000000
0.000000
0.000000
0.000000
0.000000
0.000000
0.000000
0.000000
0.000000
0.000000
0.000000
0.000000
22.700895
977.789368
0.000000
0.000000
0.000000
0.000000
0.000000
0.000000
0.000000
0.000000
0.000000
0.000000
0.000000
0.000000
0.000000
0.000000
0.000000
0.000000
0.000000
0.000000
0.000000
0.000000
0.000000
0.000000
0.000000
0.000000
0.000000
0.000000
0.000000
0.000000
0.000000
0.000000
0.000000
0.000000
0.000000
0.000000
0.000000
0.000000
0.000000
0.000000
0.000000
0.000000
0.000000
0.000000
0.000000
0.000000
0.000000
0.000000
0.000000
0.000000
0.000000
0.000000
0.000000
0.000000
0.000000
0.000000
0.000000
0.000000
0.000000
0.000000
0.000000
0.000000
0.000000
0.000000
0.000000
0.000000
0.000000
0.000000
0.000000
0.000000
0.000000
0.000000
0.000000
0.000000
0.000000
0.000000
0.000000
0.000000
0.000000
0.000000
0.000000
</DataArray>
</PointData>
<Cells>
<DataArray type='Int32' Name='connectivity' format='ascii'>
0
1
2
3
4
5
6
7
8
9
10
11
12
13
14
15
16
17
18
19
20
21
22
23
24
25
26
27
28
29
30
31
32
33
34
35
36
37
38
39
40
41
42
43
44
45
46
47
48
49
50
51
52
53
54
55
56
57
58
59
60
61
62
63
64
65
66
67
68
69
70
71
72
73
74
75
76
77
78
79
80
81
82
83
84
85
86
87
88
89
90
91
92
93
94
95
96
97
98
99
100
101
102
103
104
105
106
107
108
109
110
111
112
113
114
115
116
117
118
119
120
121
122
123
124
125
126
127
128
129
130
131
132
133
134
135
136
137
138
139
140
141
142
143
144
145
146
147
148
149
150
151
152
153
154
155
156
157
158
159
160
161
162
163
164
165
166
167
168
169
170
171
172
173
174
175
176
177
178
179
180
181
182
183
184
185
186
187
188
189
190
191
192
193
194
195
196
197
198
199
200
201
202
203
204
205
206
207
208
209
210
211
212
213
214
215
216
217
218
219
220
221
222
223
224
225
226
227
228
229
230
231
232
233
234
235
236
237
238
239
240
241
242
243
244
245
246
247
248
249
250
251
252
253
254
255
256
257
258
259
260
261
262
263
264
265
266
267
268
269
270
271
272
273
274
275
276
277
278
279
280
281
282
283
284
285
286
287
288
289
290
291
292
293
294
295
296
297
298
299
300
301
302
303
304
305
306
307
308
309
310
311
312
313
314
315
316
317
318
319
320
321