<?xml version='1.0' encoding='UTF-8'?>
<VTKFile xmlns='VTK' byte_order='LittleEndian' version='0.1' type='UnstructuredGrid'>
<UnstructuredGrid>
<Piece NumberOfCells='584' NumberOfPoints='584'>
<Points>
<DataArray NumberOfComponents='3' type='Float32' Name='Position' format='ascii'>
-0.075000 -0.075000 0.000000
-0.075000 -0.050000 0.000000
-0.075000 -0.025000 0.000000
-0.075000 0.000000 0.000000
-0.075000 0.025000 0.000000
-0.075000 0.050000 0.000000
-0.075000 0.075000 0.000000
-0.075000 0.100000 0.000000
-0.075000 0.125000 0.000000
-0.075000 0.150000 0.000000
-0.075000 0.175000 0.000000
-0.075000 0.200000 0.000000
-0.075000 0.225000 0.000000
-0.075000 0.250000 0.000000
-0.075000 0.275000 0.000000
-0.075000 0.300000 0.000000
-0.075000 0.325000 0.000000
-0.075000 0.350000 0.000000
-0.075000 0.375000 0.000000
-0.075000 0.400000 0.000000
-0.075000 0.425000 0.000000
-0.075000 0.450000 0.000000
-0.075000 0.475000 0.000000
-0.075000 0.500000 0.000000
-0.075000 0.525000 0.000000
-0.075000 0.550000 0.000000
-0.075000 0.575000 0.000000
-0.075000 0.600000 0.000000
-0.050000 -0.075000 0.000000
-0.050000 -0.050000 0.000000
-0.050000 -0.025000 0.000000
-0.050000 0.000000 0.000000
-0.050000 0.025000 0.000000
-0.050000 0.050000 0.000000
-0.050000 0.075000 0.000000
-0.050000 0.100000 0.000000
-0.050000 0.125000 0.000000
-0.050000 0.150000 0.000000
-0.050000 0.175000 0.000000
-0.050000 0.200000 0.000000
-0.050000 0.225000 0.000000
-0.050000 0.250000 0.000000
-0.050000 0.275000 0.000000
-0.050000 0.300000 0.000000
-0.050000 0.325000 0.000000
-0.050000 0.350000 0.000000
-0.050000 0.375000 0.000000
-0.050000 0.400000 0.000000
-0.050000 0.425000 0.000000
-0.050000 0.450000 0.000000
-0.050000 0.475000 0.000000
-0.050000 0.500000 0.000000
-0.050000 0.525000 0.000000
-0.050000 0.550000 0.000000
-0.050000 0.575000 0.000000
-0.050000 0.600000 0.000000
-0.025000 -0.075000 0.000000
-0.025000 -0.050000 0.000000
-0.025000 -0.025000 0.000000
-0.025000 0.000000 0.000000
-0.025000 0.025000 0.000000
-0.025000 0.050000 0.000000
-0.025000 0.075000 0.000000
-0.025000 0.100000 0.000000
-0.025000 0.125000 0.000000
-0.025000 0.150000 0.000000
-0.025000 0.175000 0.000000
-0.025000 0.200000 0.000000
-0.025000 0.225000 0.000000
-0.025000 0.250000 0.000000
-0.025000 0.275000 0.000000
-0.025000 0.300000 0.000000
-0.025000 0.325000 0.000000
-0.025000 0.350000 0.000000
-0.025000 0.375000 0.000000
-0.025000 0.400000 0.000000
-0.025000 0.425000 0.000000
-0.025000 0.450000 0.000000
-0.025000 0.475000 0.000000
-0.025000 0.500000 0.000000
-0.025000 0.525000 0.000000
-0.025000 0.550000 0.000000
-0.025000 0.575000 0.000000
-0.025000 0.600000 0.000000
0.000000 -0.075000 0.000000
0.000000 -0.050000 0.000000
0.000000 -0.025000 0.000000
0.000000 0.000000 0.000000
0.000000 0.025000 0.000000
0.000000 0.050000 0.000000
0.000000 0.075000 0.000000
0.000000 0.100000 0.000000
0.000000 0.125000 0.000000
0.000000 0.150000 0.000000
0.000000 0.175000 0.000000
0.000000 0.200000 0.000000
0.000000 0.225000 0.000000
0.000000 0.250000 0.000000
0.000000 0.275000 0.000000
0.000000 0.300000 0.000000
0.000000 0.325000 0.000000
0.000000 0.350000 0.000000
0.000000 0.375000 0.000000
0.000000 0.400000 0.000000
0.000000 0.425000 0.000000
0.000000 0.450000 0.000000
0.000000 0.475000 0.000000
0.000000 0.500000 0.000000
0.000000 0.525000 0.000000
0.000000 0.550000 0.000000
0.000000 0.575000 0.000000
0.000000 0.600000 0.000000
0.025000 -0.075000 0.000000
0.025000 -0.050000 0.000000
0.025000 -0.025000 0.000000
0.025000 0.000000 0.000000
0.148113 0.026174 0.000000
0.121354 0.023196 0.000000
0.096211 0.026430 0.000000
0.071276 0.023899 0.000000
0.165497 0.053509 0.000000
0.030959 0.022121 0.000000
0.188085 0.064352 0.000000
0.131051 0.042838 0.000000
0.090112 0.047300 0.000000
0.066567 0.054559 0.000000
0.116925 0.072932 0.000000
0.096846 0.068419 0.000000
0.051660 0.035327 0.000000
0.026016 0.044169 0.000000
0.026236 0.068259 0.000000
0.034434 0.084704 0.000000
0.060705 0.105911 0.000000
0.020551 0.112667 0.000000
0.034634 0.140147 0.000000
0.039008 0.123963 0.000000
0.050000 -0.075000 0.000000
0.050000 -0.050000 0.000000
0.050000 -0.025000 0.000000
0.050000 0.000000 0.000000
0.172578 0.024570 0.000000
0.186319 0.040708 0.000000
0.242417 0.052747 0.000000
0.300986 0.041760 0.000000
0.258770 0.074980 0.000000
0.261516 0.101113 0.000000
0.232683 0.075666 0.000000
0.327789 0.093831 0.000000
0.144301 0.062195 0.000000
0.221866 0.037678 0.000000
0.192612 0.086376 0.000000
0.209956 0.064152 0.000000
0.053456 0.072272 0.000000
0.147124 0.080946 0.000000
0.096868 0.090220 0.000000
0.131907 0.096028 0.000000
0.070989 0.091437 0.000000
0.101356 0.113960 0.000000
0.064890 0.133839 0.000000
0.081076 0.130118 0.000000
0.075000 -0.075000 0.000000
0.075000 -0.050000 0.000000
0.075000 -0.025000 0.000000
0.075000 0.000000 0.000000
0.209636 0.022092 0.000000
0.279954 0.050492 0.000000
0.290601 0.019151 0.000000
0.259122 0.040243 0.000000
0.347401 0.043020 0.000000
0.444489 0.020478 0.000000
0.453652 0.050092 0.000000
0.286544 0.070107 0.000000
0.350034 0.078512 0.000000
0.371301 0.116394 0.000000
0.316459 0.078860 0.000000
0.225051 0.093568 0.000000
0.190720 0.103606 0.000000
0.167099 0.119171 0.000000
0.149907 0.111632 0.000000
0.125561 0.121524 0.000000
0.152871 0.137777 0.000000
0.210307 0.133904 0.000000
0.193220 0.123898 0.000000
0.104491 0.134974 0.000000
0.100000 -0.075000 0.000000
0.100000 -0.050000 0.000000
0.100000 -0.025000 0.000000
0.100000 0.000000 0.000000
0.343222 0.020007 0.000000
0.317322 0.031630 0.000000
0.408316 0.030077 0.000000
0.558947 0.060176 0.000000
0.245232 0.020905 0.000000
0.501302 0.029037 0.000000
0.501199 0.056937 0.000000
0.476630 0.043588 0.000000
0.432430 0.042912 0.000000
0.456620 0.079043 0.000000
0.327885 0.059712 0.000000
0.367726 0.040086 0.000000
0.367735 0.060771 0.000000
0.356704 0.100143 0.000000
0.291063 0.091428 0.000000
0.169177 0.152858 0.000000
0.324081 0.121847 0.000000
0.293295 0.112470 0.000000
0.260216 0.117998 0.000000
0.231011 0.114028 0.000000
0.125000 -0.075000 0.000000
0.125000 -0.050000 0.000000
0.125000 -0.025000 0.000000
0.125000 0.000000 0.000000
0.605522 0.026014 0.000000
0.472265 0.023926 0.000000
0.770234 0.031054 0.000000
0.749442 0.023379 0.000000
0.738996 0.050628 0.000000
0.391726 0.019924 0.000000
0.540405 0.029485 0.000000
0.580566 0.024606 0.000000
0.564606 0.030607 0.000000
0.479563 0.071640 0.000000
0.585147 0.070573 0.000000
0.524131 0.060590 0.000000
0.431133 0.070369 0.000000
0.334566 0.135174 0.000000
0.309729 0.133572 0.000000
0.378088 0.094975 0.000000
0.481837 0.094386 0.000000
0.285418 0.135497 0.000000
0.393265 0.104702 0.000000
0.267985 0.143177 0.000000
0.150000 -0.075000 0.000000
0.150000 -0.050000 0.000000
0.150000 -0.025000 0.000000
0.150000 0.000000 0.000000
0.881531 0.031797 0.000000
0.790417 0.024487 0.000000
0.874004 0.055490 0.000000
0.816053 0.062614 0.000000
0.859203 0.024607 0.000000
0.883033 0.075652 0.000000
0.723177 0.023806 0.000000
0.807940 0.039332 0.000000
0.698129 0.028767 0.000000
0.700109 0.072614 0.000000
0.671727 0.022246 0.000000
0.522676 0.024300 0.000000
0.623813 0.027651 0.000000
0.652360 0.027863 0.000000
0.522036 0.085689 0.000000
0.434396 0.099673 0.000000
0.406277 0.053091 0.000000
0.451281 0.104617 0.000000
0.421288 0.086192 0.000000
0.390531 0.064144 0.000000
0.175000 -0.075000 0.000000
0.175000 -0.050000 0.000000
0.175000 -0.025000 0.000000
0.175000 0.000000 0.000000
0.926240 0.198993 0.000000
0.923656 0.025889 0.000000
0.984071 0.046841 0.000000
0.997773 0.020815 0.000000
0.968917 0.029132 0.000000
0.897317 0.061120 0.000000
0.948991 0.024383 0.000000
0.940557 0.051599 0.000000
0.860854 0.095759 0.000000
0.903075 0.026737 0.000000
0.778501 0.059097 0.000000
0.838565 0.062626 0.000000
0.689049 0.045528 0.000000
0.649685 0.076298 0.000000
0.599915 0.059485 0.000000
0.718490 0.058417 0.000000
0.637150 0.046615 0.000000
0.538378 0.074709 0.000000
0.495207 0.112934 0.000000
0.504686 0.090064 0.000000
0.200000 -0.075000 0.000000
0.200000 -0.050000 0.000000
0.200000 -0.025000 0.000000
0.200000 0.000000 0.000000
0.948102 0.471513 0.000000
1.001404 0.053966 0.000000
0.963237 0.321807 0.000000
1.002906 0.079196 0.000000
0.966021 0.155057 0.000000
0.982441 0.178114 0.000000
0.960042 0.190052 0.000000
0.990124 0.097413 0.000000
0.964026 0.063268 0.000000
0.951762 0.162041 0.000000
0.969906 0.095188 0.000000
0.826400 0.022728 0.000000
0.941162 0.097845 0.000000
0.844952 0.038594 0.000000
0.668460 0.079104 0.000000
0.730800 0.080271 0.000000
0.773037 0.077081 0.000000
0.669612 0.061207 0.000000
0.632355 0.073338 0.000000
0.569801 0.072865 0.000000
0.225000 -0.075000 0.000000
0.225000 -0.050000 0.000000
0.225000 -0.025000 0.000000
0.225000 0.000000 0.000000
1.001459 0.156179 0.000000
0.979196 0.691724 0.000000
1.002005 0.128094 0.000000
0.931730 0.318331 0.000000
0.982145 0.137444 0.000000
0.946513 0.341181 0.000000
0.975726 0.313389 0.000000
0.996385 0.220355 0.000000
1.002191 0.192392 0.000000
1.001489 0.241741 0.000000
0.983653 0.207187 0.000000
0.961387 0.261917 0.000000
0.913712 0.204397 0.000000
0.931381 0.181393 0.000000
0.951255 0.076711 0.000000
0.921150 0.089120 0.000000
0.907462 0.091081 0.000000
0.799146 0.065150 0.000000
0.717313 0.089889 0.000000
0.616596 0.069361 0.000000
0.250000 -0.075000 0.000000
0.250000 -0.050000 0.000000
0.250000 -0.025000 0.000000
0.250000 0.000000 0.000000
0.996795 0.668111 0.000000
0.937832 0.580826 0.000000
0.961136 0.353141 0.000000
0.974595 0.346391 0.000000
0.910169 0.658192 0.000000
1.008401 0.401553 0.000000
0.901219 0.572276 0.000000
0.952541 0.509828 0.000000
0.884997 0.363391 0.000000
0.984968 0.297437 0.000000
0.934418 0.248900 0.000000
0.939054 0.262098 0.000000
0.973054 0.267394 0.000000
0.872522 0.221723 0.000000
0.954789 0.229456 0.000000
0.941696 0.131464 0.000000
0.976854 0.115884 0.000000
0.919880 0.053787 0.000000
0.848040 0.077603 0.000000
0.752112 0.066302 0.000000
0.275000 -0.075000 0.000000
0.275000 -0.050000 0.000000
0.275000 -0.025000 0.000000
0.275000 0.000000 0.000000
0.300000 -0.075000 0.000000
0.300000 -0.050000 0.000000
0.300000 -0.025000 0.000000
0.300000 0.000000 0.000000
0.325000 -0.075000 0.000000
0.325000 -0.050000 0.000000
0.325000 -0.025000 0.000000
0.325000 0.000000 0.000000
0.350000 -0.075000 0.000000
0.350000 -0.050000 0.000000
0.350000 -0.025000 0.000000
0.350000 0.000000 0.000000
0.375000 -0.075000 0.000000
0.375000 -0.050000 0.000000
0.375000 -0.025000 0.000000
0.375000 0.000000 0.000000
0.400000 -0.075000 0.000000
0.400000 -0.050000 0.000000
0.400000 -0.025000 0.000000
0.400000 0.000000 0.000000
0.425000 -0.075000 0.000000
0.425000 -0.050000 0.000000
0.425000 -0.025000 0.000000
0.425000 0.000000 0.000000
0.450000 -0.075000 0.000000
0.450000 -0.050000 0.000000
0.450000 -0.025000 0.000000
0.450000 0.000000 0.000000
0.475000 -0.075000 0.000000
0.475000 -0.050000 0.000000
0.475000 -0.025000 0.000000
0.475000 0.000000 0.000000
0.500000 -0.075000 0.000000
0.500000 -0.050000 0.000000
0.500000 -0.025000 0.000000
0.500000 0.000000 0.000000
0.525000 -0.075000 0.000000
0.525000 -0.050000 0.000000
0.525000 -0.025000 0.000000
0.525000 0.000000 0.000000
0.550000 -0.075000 0.000000
0.550000 -0.050000 0.000000
0.550000 -0.025000 0.000000
0.550000 0.000000 0.000000
0.575000 -0.075000 0.000000
0.575000 -0.050000 0.000000
0.575000 -0.025000 0.000000
0.575000 0.000000 0.000000
0.600000 -0.075000 0.000000
0.600000 -0.050000 0.000000
0.600000 -0.025000 0.000000
0.600000 0.000000 0.000000
0.625000 -0.075000 0.000000
0.625000 -0.050000 0.000000
0.625000 -0.025000 0.000000
0.625000 0.000000 0.000000
0.650000 -0.075000 0.000000
0.650000 -0.050000 0.000000
0.650000 -0.025000 0.000000
0.650000 0.000000 0.000000
0.675000 -0.075000 0.000000
0.675000 -0.050000 0.000000
0.675000 -0.025000 0.000000
0.675000 0.000000 0.000000
0.700000 -0.075000 0.000000
0.700000 -0.050000 0.000000
0.700000 -0.025000 0.000000
0.700000 0.000000 0.000000
0.725000 -0.075000 0.000000
0.725000 -0.050000 0.000000
0.725000 -0.025000 0.000000
0.725000 0.000000 0.000000
0.750000 -0.075000 0.000000
0.750000 -0.050000 0.000000
0.750000 -0.025000 0.000000
0.750000 0.000000 0.000000
0.775000 -0.075000 0.000000
0.775000 -0.050000 0.000000
0.775000 -0.025000 0.000000
0.775000 0.000000 0.000000
0.800000 -0.075000 0.000000
0.800000 -0.050000 0.000000
0.800000 -0.025000 0.000000
0.800000 0.000000 0.000000
0.825000 -0.075000 0.000000
0.825000 -0.050000 0.000000
0.825000 -0.025000 0.000000
0.825000 0.000000 0.000000
0.850000 -0.075000 0.000000
0.850000 -0.050000 0.000000
0.850000 -0.025000 0.000000
0.850000 0.000000 0.000000
0.875000 -0.075000 0.000000
0.875000 -0.050000 0.000000
0.875000 -0.025000 0.000000
0.875000 0.000000 0.000000
0.900000 -0.075000 0.000000
0.900000 -0.050000 0.000000
0.900000 -0.025000 0.000000
0.900000 0.000000 0.000000
0.925000 -0.075000 0.000000
0.925000 -0.050000 0.000000
0.925000 -0.025000 0.000000
0.925000 0.000000 0.000000
0.950000 -0.075000 0.000000
0.950000 -0.050000 0.000000
0.950000 -0.025000 0.000000
0.950000 0.000000 0.000000
0.975000 -0.075000 0.000000
0.975000 -0.050000 0.000000
0.975000 -0.025000 0.000000
0.975000 0.000000 0.000000
1.000000 -0.075000 0.000000
1.000000 -0.050000 0.000000
1.000000 -0.025000 0.000000
1.000000 0.000000 0.000000
1.025000 -0.075000 0.000000
1.025000 -0.050000 0.000000
1.025000 -0.025000 0.000000
1.025000 0.000000 0.000000
1.025000 0.025000 0.000000
1.025000 0.050000 0.000000
1.025000 0.075000 0.000000
1.025000 0.100000 0.000000
1.025000 0.125000 0.000000
1.025000 0.150000 0.000000
1.025000 0.175000 0.000000
1.025000 0.200000 0.000000
1.025000 0.225000 0.000000
1.025000 0.250000 0.000000
1.025000 0.275000 0.000000
1.025000 0.300000 0.000000
1.025000 0.325000 0.000000
1.025000 0.350000 0.000000
1.025000 0.375000 0.000000
1.025000 0.400000 0.000000
1.025000 0.425000 0.000000
1.025000 0.450000 0.000000
1.025000 0.475000 0.000000
1.025000 0.500000 0.000000
1.025000 0.525000 0.000000
1.025000 0.550000 0.000000
1.025000 0.575000 0.000000
1.025000 0.600000 0.000000
1.050000 -0.075000 0.000000
1.050000 -0.050000 0.000000
1.050000 -0.025000 0.000000
1.050000 0.000000 0.000000
1.050000 0.025000 0.000000
1.050000 0.050000 0.000000
1.050000 0.075000 0.000000
1.050000 0.100000 0.000000
1.050000 0.125000 0.000000
1.050000 0.150000 0.000000
1.050000 0.175000 0.000000
1.050000 0.200000 0.000000
1.050000 0.225000 0.000000
1.050000 0.250000 0.000000
1.050000 0.275000 0.000000
1.050000 0.300000 0.000000
1.050000 0.325000 0.000000
1.050000 0.350000 0.000000
1.050000 0.375000 0.000000
1.050000 0.400000 0.000000
1.050000 0.425000 0.000000
1.050000 0.450000 0.000000
1.050000 0.475000 0.000000
1.050000 0.500000 0.000000
1.050000 0.525000 0.000000
1.050000 0.550000 0.000000
1.050000 0.575000 0.000000
1.050000 0.600000 0.000000
1.075000 -0.075000 0.000000
1.075000 -0.050000 0.000000
1.075000 -0.025000 0.000000
1.075000 0.000000 0.000000
1.075000 0.025000 0.000000
1.075000 0.050000 0.000000
1.075000 0.075000 0.000000
1.075000 0.100000 0.000000
1.075000 0.125000 0.000000
1.075000 0.150000 0.000000
1.075000 0.175000 0.000000
1.075000 0.200000 0.000000
1.075000 0.225000 0.000000
1.075000 0.250000 0.000000
1.075000 0.275000 0.000000
1.075000 0.300000 0.000000
1.075000 0.325000 0.000000
1.075000 0.350000 0.000000
1.075000 0.375000 0.000000
1.075000 0.400000 0.000000
1.075000 0.425000 0.000000
1.075000 0.450000 0.000000
1.075000 0.475000 0.000000
1.075000 0.500000 0.000000
1.075000 0.525000 0.000000
1.075000 0.550000 0.000000
1.075000 0.575000 0.000000
1.075000 0.600000 0.000000
1.100000 -0.075000 0.000000
1.100000 -0.050000 0.000000
1.100000 -0.025000 0.000000
1.100000 0.000000 0.000000
1.100000 0.025000 0.000000
1.100000 0.050000 0.000000
1.100000 0.075000 0.000000
1.100000 0.100000 0.000000
1.100000 0.125000 0.000000
1.100000 0.150000 0.000000
1.100000 0.175000 0.000000
1.100000 0.200000 0.000000
1.100000 0.225000 0.000000
1.100000 0.250000 0.000000
1.100000 0.275000 0.000000
1.100000 0.300000 0.000000
1.100000 0.325000 0.000000
1.100000 0.350000 0.000000
1.100000 0.375000 0.000000
1.100000 0.400000 0.000000
1.100000 0.425000 0.000000
1.100000 0.450000 0.000000
1.100000 0.475000 0.000000
1.100000 0.500000 0.000000
1.100000 0.525000 0.000000
1.100000 0.550000 0.000000
1.100000 0.575000 0.000000
1.100000 0.600000 0.000000
</DataArray>
</Points>
<PointData>
<DataArray NumberOfComponents='1' type='Int32' Name='ParticleType' format='ascii'>
3
3
3
3
3
3
3
3
3
3
3
3
3
3
3
3
3
3
3
3
3
3
3
3
3
3
2
2
3
3
3
3
3
3
3
3
3
3
3
3
3
3
3
3
3
3
3
3
3
3
3
3
3
3
2
2
3
3
2
2
2
2
2
2
2
2
2
2
2
2
2
2
2
2
2
2
2
2
2
2
2
2
2
2
3
3
2
2
2
2
2
2
2
2
2
2
2
2
2
2
2
2
2
2
2
2
2
2
2
2
2
2
3
3
2
2
0
0
0
0
0
0
0
0
0
0
0
0
0
0
0
0
0
0
0
0
3
3
2
2
0
0
0
0
0
0
0
0
0
0
0
0
0
0
0
0
0
0
0
0
3
3
2
2
0
0
0
0
0
0
0
0
0
0
0
0
0
0
0
0
0
0
0
0
3
3
2
2
0
0
0
0
0
0
0
0
0
0
0
0
0
0
0
0
0
0
0
0
3
3
2
2
0
0
0
0
0
0
0
0
0
0
0
0
0
0
0
0
0
0
0
0
3
3
2
2
0
0
0
0
0
0
0
0
0
0
0
0
0
0
0
0
0
0
0
0
3
3
2
2
0
0
0
0
0
0
0
0
0
0
0
0
0
0
0
0
0
0
0
0
3
3
2
2
0
0
0
0
0
0
0
0
0
0
0
0
0
0
0
0
0
0
0
0
3
3
2
2
0
0
0
0
0
0
0
0
0
0
0
0
0
0
0
0
0
0
0
0
3
3
2
2
0
0
0
0
0
0
0
0
0
0
0
0
0
0
0
0
0
0
0
0
3
3
2
2
3
3
2
2
3
3
2
2
3
3
2
2
3
3
2
2
3
3
2
2
3
3
2
2
3
3
2
2
3
3
2
2
3
3
2
2
3
3
2
2
3
3
2
2
3
3
2
2
3
3
2
2
3
3
2
2
3
3
2
2
3
3
2
2
3
3
2
2
3
3
2
2
3
3
2
2
3
3
2
2
3
3
2
2
3
3
2
2
3
3
2
2
3
3
2
2
3
3
2
2
3
3
2
2
3
3
2
2
3
3
2
2
3
3
2
2
3
3
2
2
2
2
2
2
2
2
2
2
2
2
2
2
2
2
2
2
2
2
2
2
2
2
2
2
3
3
2
2
2
2
2
2
2
2
2
2
2
2
2
2
2
2
2
2
2
2
2
2
2
2
2
2
3
3
3
3
3
3
3
3
3
3
3
3
3
3
3
3
3
3
3
3
3
3
3
3
3
3
2
2
3
3
3
3
3
3
3
3
3
3
3
3
3
3
3
3
3
3
3
3
3
3
3
3
3
3
2
2
</DataArray>
<DataArray NumberOfComponents='1' type='Float32' Name='Velocity' format='ascii'>
0.000000
0.000000
0.000000
0.000000
0.000000
0.000000
0.000000
0.000000
0.000000
0.000000
0.000000
0.000000
0.000000
0.000000
0.000000
0.000000
0.000000
0.000000
0.000000
0.000000
0.000000
0.000000
0.000000
0.000000
0.000000
0.000000
0.000000
0.000000
0.000000
0.000000
0.000000
0.000000
0.000000
0.000000
0.000000
0.000000
0.000000
0.000000
0.000000
0.000000
0.000000
0.000000
0.000000
0.000000
0.000000
0.000000
0.000000
0.000000
0.000000
0.000000
0.000000
0.000000
0.000000
0.000000
0.000000
0.000000
0.000000
0.000000
0.000000
0.000000
0.000000
0.000000
0.000000
0.000000
0.000000
0.000000
0.000000
0.000000
0.000000
0.000000
0.000000
0.000000
0.000000
0.000000
0.000000
0.000000
0.000000
0.000000
0.000000
0.000000
0.000000
0.000000
0.000000
0.000000
0.000000
0.000000
0.000000
0.000000
0.000000
0.000000
0.000000
0.000000
0.000000
0.000000
0.000000
0.000000
0.000000
0.000000
0.000000
0.000000
0.000000
0.000000
0.000000
0.000000
0.000000
0.000000
0.000000
0.000000
0.000000
0.000000
0.000000
0.000000
0.000000
0.000000
0.000000
0.000000
0.477625
0.460826
0.349962
0.046338
0.586726
0.098447
0.788360
0.311735
0.151809
0.304382
0.341801
0.574212
0.182185
0.282332
0.516929
0.319097
0.350136
0.183047
0.441487
0.586233
0.000000
0.000000
0.000000
0.000000
0.549685
0.358458
0.979746
0.544984
0.848922
0.684809
0.728809
1.312768
0.631026
0.992410
0.827587
0.897690
0.082299
0.922604
0.160172
0.661496
0.538766
0.635840
0.521042
0.564449
0.000000
0.000000
0.000000
0.000000
0.519639
0.658544
0.078008
0.831423
0.926626
0.994198
1.715873
0.763529
1.033973
1.256907
0.656224
0.397049
0.544038
0.575006
0.654562
0.533276
0.649635
0.867405
0.500120
0.696745
0.000000
0.000000
0.000000
0.000000
0.176713
0.692691
0.881115
1.832336
0.259983
1.348617
1.343332
1.201517
1.132034
1.287890
0.942704
0.657066
0.825626
1.300413
1.013763
0.475163
1.068163
1.093380
0.755397
0.567560
0.000000
0.000000
0.000000
0.000000
1.633465
1.244522
2.050694
2.101049
1.801312
1.020160
1.399004
1.541398
1.331518
1.219556
1.477622
1.438181
1.177937
1.075890
0.756658
1.282429
1.547647
0.681665
1.177567
0.653831
0.000000
0.000000
0.000000
0.000000
1.517699
1.916509
1.942289
2.118082
1.691711
1.914498
1.894996
2.169698
1.917441
1.410397
1.852940
1.518282
1.427079
2.101740
1.340788
1.502459
1.146514
1.352532
1.203412
1.077804
0.000000
0.000000
0.000000
0.000000
1.686403
1.046658
0.402072
0.371805
1.050244
1.813745
0.887519
1.227653
1.635918
1.274102
2.248640
2.109890
2.010537
1.448436
1.558881
2.502596
2.133810
1.262587
1.499972
1.560307
0.000000
0.000000
0.000000
0.000000
2.454950
1.061320
1.854161
1.098383
2.078913
1.892933
1.866094
1.183977
0.454076
2.072182
2.119743
1.879460
2.094274
1.466414
1.510981
1.771823
2.192168
1.900616
2.037683
1.765495
0.000000
0.000000
0.000000
0.000000
1.326636
3.465906
2.540227
1.413200
2.044674
1.596983
1.939076
1.720290
1.241932
1.909844
1.657178
1.728499
1.599879
1.624853
1.341013
2.007689
1.704859
1.927495
1.723963
1.596709
0.000000
0.000000
0.000000
0.000000
2.734372
2.790870
1.942116
2.052675
2.972677
2.137261
2.714921
2.418965
1.713850
1.911418
1.116788
1.067945
1.939850
1.302181
1.788556
0.939970
2.199533
1.421909
2.329935
2.279435
0.000000
0.000000
0.000000
0.000000
0.000000
0.000000
0.000000
0.000000
0.000000
0.000000
0.000000
0.000000
0.000000
0.000000
0.000000
0.000000
0.000000
0.000000
0.000000
0.000000
0.000000
0.000000
0.000000
0.000000
0.000000
0.000000
0.000000
0.000000
0.000000
0.000000
0.000000
0.000000
0.000000
0.000000
0.000000
0.000000
0.000000
0.000000
0.000000
0.000000
0.000000
0.000000
0.000000
0.000000
0.000000
0.000000
0.000000
0.000000
0.000000
0.000000
0.000000
0.000000
0.000000
0.000000
0.000000
0.000000
0.000000
0.000000
0.000000
0.000000
0.000000
0.000000
0.000000
0.000000
0.000000
0.000000
0.000000
0.000000
0.000000
0.000000
0.000000
0.000000
0.000000
0.000000
0.000000
0.000000
0.000000
0.000000
0.000000
0.000000
0.000000
0.000000
0.000000
0.000000
0.000000
0.000000
0.000000
0.000000
0.000000
0.000000
0.000000
0.000000
0.000000
0.000000
0.000000
0.000000
0.000000
0.000000
0.000000
0.000000
0.000000
0.000000
0.000000
0.000000
0.000000
0.000000
0.000000
0.000000
0.000000
0.000000
0.000000
0.000000
0.000000
0.000000
0.000000
0.000000
0.000000
0.000000
0.000000
0.000000
0.000000
0.000000
0.000000
0.000000
0.000000
0.000000
0.000000
0.000000
0.000000
0.000000
0.000000
0.000000
0.000000
0.000000
0.000000
0.000000
0.000000
0.000000
0.000000
0.000000
0.000000
0.000000
0.000000
0.000000
0.000000
0.000000
0.000000
0.000000
0.000000
0.000000
0.000000
0.000000
0.000000
0.000000
0.000000
0.000000
0.000000
0.000000
0.000000
0.000000
0.000000
0.000000
0.000000
0.000000
0.000000
0.000000
0.000000
0.000000
0.000000
0.000000
0.000000
0.000000
0.000000
0.000000
0.000000
0.000000
0.000000
0.000000
0.000000
0.000000
0.000000
0.000000
0.000000
0.000000
0.000000
0.000000
0.000000
0.000000
0.000000
0.000000
0.000000
0.000000
0.000000
0.000000
0.000000
0.000000
0.000000
0.000000
0.000000
0.000000
0.000000
0.000000
0.000000
0.000000
0.000000
0.000000
0.000000
0.000000
0.000000
0.000000
0.000000
0.000000
0.000000
0.000000
0.000000
0.000000
0.000000
0.000000
0.000000
0.000000
0.000000
0.000000
0.000000
0.000000
0.000000
0.000000
0.000000
0.000000
0.000000
0.000000
0.000000
0.000000
</DataArray>
<DataArray NumberOfComponents='1' type='Float32' Name='pressure' format='ascii'>
0.000000
0.000000
0.000000
0.000000
0.000000
0.000000
0.000000
0.000000
0.000000
0.000000
0.000000
0.000000
0.000000
0.000000
0.000000
0.000000
0.000000
0.000000
0.000000
0.000000
0.000000
0.000000
0.000000
0.000000
0.000000
0.000000
0.000000
0.000000
0.000000
0.000000
0.000000
0.000000
0.000000
0.000000
0.000000
0.000000
0.000000
0.000000
0.000000
0.000000
0.000000
0.000000
0.000000
0.000000
0.000000
0.000000
0.000000
0.000000
0.000000
0.000000
0.000000
0.000000
0.000000
0.000000
0.000000
0.000000
0.000000
0.000000
0.000000
0.000000
0.000000
0.000000
0.000000
0.000000
0.000000
0.000000
0.000000
0.000000
0.000000
0.000000
0.000000
0.000000
0.000000
0.000000
0.000000
0.000000
0.000000
0.000000
0.000000
0.000000
0.000000
0.000000
0.000000
0.000000
0.000000
0.000000
0.000000
0.000000
0.000000
0.000000
0.000000
0.000000
0.000000
0.000000
0.000000
0.000000
0.000000
0.000000
0.000000
0.000000
0.000000
0.000000
0.000000
0.000000
0.000000
0.000000
0.000000
0.000000
0.000000
0.000000
0.000000
0.000000
0.000000
0.000000
31.997364
0.000000
1674.559448
566.980713
1022.180359
849.260498
0.000000
0.000000
744.436401
662.332336
1485.744873
96.470032
0.000000
1095.567505
357.253571
0.000000
106.807816
0.000000
154.884064
0.000000
0.000000
26.499298
0.000000
0.000000
0.000000
0.000000
1031.825562
1896.425781
1396.253662
2088.451904
0.000000
0.000000
1142.093628
0.000000
2771.150146
381.397491
0.000000
0.000000
0.000000
0.000000
0.000000
1408.414917
835.727844
548.743713
0.000000
0.000000
0.000000
0.000000
500.650665
0.000000
806.703735
1218.895630
218.184662
313.473663
1305.000610
306.025299
0.000000
0.000000
176.822464
0.000000
0.000000
0.000000
386.632202
555.229309
306.690643
0.000000
0.000000
0.000000
0.000000
0.000000
0.000000
0.000000
465.166595
1010.399963
251.141586
0.000000
922.763245
0.000000
0.000000
0.000000
0.000000
929.191528
0.000000
298.553314
0.000000
464.077698
453.093506
0.000000
0.000000
0.000000
0.000000
1451.349487
0.000000
0.000000
0.000000
0.000000
2002.503784
3362.974609
0.000000
2524.211182
0.000000
0.000000
1195.409424
1556.697388
0.000000
0.000000
0.000000
256.267792
0.000000
0.000000
3026.547119
0.000000
0.000000
291.896851
0.000000
0.000000
0.000000
0.000000
0.000000
0.000000
1139.283203
1413.867798
1171.211182
0.000000
333.238464
0.000000
1200.350342
0.000000
0.000000
1044.534180
0.000000
0.000000
0.000000
323.219360
0.000000
0.000000
0.000000
0.000000
0.000000
0.000000
0.000000
0.000000
0.000000
0.000000
1619.510376
443.145447
0.000000
4540.323730
3600.051270
0.000000
2445.213867
1548.723267
4286.466309
825.373352
0.000000
3544.991699
2033.656006
0.000000
0.000000
0.000000
0.000000
2227.971924
0.000000
0.000000
0.000000
0.000000
0.000000
0.000000
2414.143555
986.350281
0.000000
4036.812744
0.000000
1922.164307
622.696838
0.000000
0.000000
4762.700684
3081.195068
0.000000
1332.546509
0.000000
0.000000
1521.048340
0.000000
0.000000
0.000000
0.000000
893.425537
0.000000
0.000000
0.000000
3043.001709
1822.715332
0.000000
0.000000
1923.253906
0.000000
2503.665527
0.000000
0.000000
0.000000
0.000000
0.000000
0.000000
0.000000
0.000000
0.000000
3290.556152
235.124588
0.000000
0.000000
0.000000
0.000000
0.000000
0.000000
3807.654053
1946.308594
0.000000
0.000000
0.000000
0.000000
0.000000
0.000000
0.000000
0.000000
0.000000
0.000000
0.000000
0.000000
0.000000
0.000000
0.000000
0.000000
745.782349
1213.757080
0.000000
0.000000
0.000000
0.000000
3819.707275
0.000000
0.000000
0.000000
4741.216797
3845.304443
0.000000
0.000000
3464.564941
1485.176270
0.000000
0.000000
4417.228516
2782.392822
0.000000
0.000000
3304.923340
0.000000
0.000000
0.000000
4019.505127
2787.224365
0.000000
0.000000
2492.780518
0.000000
0.000000
0.000000
3517.157715
3688.773682
0.000000
0.000000
1469.016724
1408.328369
0.000000
0.000000
0.000000
0.000000
0.000000
0.000000
0.000000
0.000000
0.000000
0.000000
0.000000
0.000000
0.000000
0.000000
0.000000
0.000000
0.000000
0.000000
0.000000
0.000000
0.000000
0.000000
0.000000
0.000000
0.000000
0.000000
0.000000
0.000000
0.000000
0.000000
0.000000
826.962708
0.000000
0.000000
0.000000
0.000000
0.000000
0.000000
0.000000
0.000000
0.000000
0.000000
0.000000
411.379700
0.000000
0.000000
0.000000
0.000000
0.000000
0.000000
0.000000
0.000000
0.000000
0.000000
647.077026
1018.515991
0.000000
0.000000
0.000000
291.798950
0.000000
0.000000
0.000000
0.000000
0.000000
0.000000
28.792547
0.000000
0.000000
0.000000
1055.651855
1340.094971
0.000000
0.000000
2212.317627
1996.964233
0.000000
0.000000
2259.986328
1624.552124
0.000000
0.000000
4440.013184
4507.028809
0.000000
0.000000
3053.668457
3281.533203
448.101288
4146.622559
5120.378906
0.000000
823.466064
708.210938
0.000000
966.087097
88.888306
0.000000
0.000000
0.000000
0.000000
0.000000
0.000000
1615.492798
0.000000
0.000000
0.000000
0.000000
0.000000
0.000000
0.000000
0.000000
0.000000
0.000000
2879.401611
2638.758301
1895.853394
3405.214600
3918.612793
1779.272095
2098.182617
1342.987183
519.626892
934.685608
0.000000
31.621120
0.000000
0.000000
0.000000
0.000000
1250.728882
4915.779785
1930.781738
0.000000
0.000000
0.000000
0.000000
0.000000
0.000000
0.000000
0.000000
0.000000
0.000000
0.000000
0.000000
0.000000
0.000000
0.000000
0.000000
0.000000
0.000000
0.000000
0.000000
0.000000
0.000000
0.000000
0.000000
0.000000
0.000000
0.000000
0.000000
0.000000
0.000000
0.000000
0.000000
0.000000
0.000000
0.000000
0.000000
0.000000
0.000000
0.000000
0.000000
0.000000
0.000000
0.000000
0.000000
0.000000
0.000000
0.000000
0.000000
0.000000
0.000000
0.000000
0.000000
0.000000
0.000000
0.000000
0.000000
0.000000
0.000000
0.000000
0.000000
0.000000
0.000000
0.000000
</DataArray>
</PointData>
<Cells>
<DataArray type='Int32' Name='connectivity' format='ascii'>
0
1
2
3
4
5
6
7
8
9
10
11
12
13
14
15
16
17
18
19
20
21
22
23
24
25
26
27
28
29
30
31
32
33
34
35
36
37
38
39
40
41
42
43
44
45
46
47
48
49
50
51
52
53
54
55
56
57
58
59
60
61
62
63
64
65
66
67
68
69
70
71
72
73
74
75
76
77
78
79
80
81
82
83
84
85
86
87
88
89
90
91
92
93
94
95
96
97
98
99
100
101
102
103
104
105
106
107
108
109
110
111
112
113
114
115
116
117
118
119
120
121
122
123
124
125
126
127
128
129
130
131
132
133
134
135
136
137
138
139
140
141
142
143
144
145
146
147
148
149
150
151
152
153
154
155
156
157
158
159
160
161
162
163
164
165
166
167
168
169
170
171
172
173
174
175
176
177
178
179
180
181
182
183
184
185
186
187
188
189
190
191
192
193
194
195
196
197
198
199
200
201
202
203
204
205
206
207
208
209
210
211
212
213
214
215
216
217
218
219
220
221
222
223
224
225
226
227
228
229
230
231
232
233
234
235
236
237
238
239
240
241
242
243
244
245
246
247
248
249
250
251
252
253
254
255
256
257
258
259
260
261
262
263
264
265
266
267
268
269
270
271
272
273
274
275
276
277
278
279
280
281
282
283
284
285
286
287
288
289
290
291
292
293
294
295
296
297
298
299
300
301
302
303
304
305
306
307
308
309
310
311
312
313
314
315
316
317
318
319
320
321
322
323
324
325
326
327
328
329
330
331
332
333
334
335
336
337
338
339
340
341
342
343
344