<?xml version='1.0' encoding='UTF-8'?>
<VTKFile xmlns='VTK' byte_order='LittleEndian' version='0.1' type='UnstructuredGrid'>
<UnstructuredGrid>
<Piece NumberOfCells='584' NumberOfPoints='584'>
<Points>
<DataArray NumberOfComponents='3' type='Float32' Name='Position' format='ascii'>
-0.075000 -0.075000 0.000000
-0.075000 -0.050000 0.000000
-0.075000 -0.025000 0.000000
-0.075000 0.000000 0.000000
-0.075000 0.025000 0.000000
-0.075000 0.050000 0.000000
-0.075000 0.075000 0.000000
-0.075000 0.100000 0.000000
-0.075000 0.125000 0.000000
-0.075000 0.150000 0.000000
-0.075000 0.175000 0.000000
-0.075000 0.200000 0.000000
-0.075000 0.225000 0.000000
-0.075000 0.250000 0.000000
-0.075000 0.275000 0.000000
-0.075000 0.300000 0.000000
-0.075000 0.325000 0.000000
-0.075000 0.350000 0.000000
-0.075000 0.375000 0.000000
-0.075000 0.400000 0.000000
-0.075000 0.425000 0.000000
-0.075000 0.450000 0.000000
-0.075000 0.475000 0.000000
-0.075000 0.500000 0.000000
-0.075000 0.525000 0.000000
-0.075000 0.550000 0.000000
-0.075000 0.575000 0.000000
-0.075000 0.600000 0.000000
-0.050000 -0.075000 0.000000
-0.050000 -0.050000 0.000000
-0.050000 -0.025000 0.000000
-0.050000 0.000000 0.000000
-0.050000 0.025000 0.000000
-0.050000 0.050000 0.000000
-0.050000 0.075000 0.000000
-0.050000 0.100000 0.000000
-0.050000 0.125000 0.000000
-0.050000 0.150000 0.000000
-0.050000 0.175000 0.000000
-0.050000 0.200000 0.000000
-0.050000 0.225000 0.000000
-0.050000 0.250000 0.000000
-0.050000 0.275000 0.000000
-0.050000 0.300000 0.000000
-0.050000 0.325000 0.000000
-0.050000 0.350000 0.000000
-0.050000 0.375000 0.000000
-0.050000 0.400000 0.000000
-0.050000 0.425000 0.000000
-0.050000 0.450000 0.000000
-0.050000 0.475000 0.000000
-0.050000 0.500000 0.000000
-0.050000 0.525000 0.000000
-0.050000 0.550000 0.000000
-0.050000 0.575000 0.000000
-0.050000 0.600000 0.000000
-0.025000 -0.075000 0.000000
-0.025000 -0.050000 0.000000
-0.025000 -0.025000 0.000000
-0.025000 0.000000 0.000000
-0.025000 0.025000 0.000000
-0.025000 0.050000 0.000000
-0.025000 0.075000 0.000000
-0.025000 0.100000 0.000000
-0.025000 0.125000 0.000000
-0.025000 0.150000 0.000000
-0.025000 0.175000 0.000000
-0.025000 0.200000 0.000000
-0.025000 0.225000 0.000000
-0.025000 0.250000 0.000000
-0.025000 0.275000 0.000000
-0.025000 0.300000 0.000000
-0.025000 0.325000 0.000000
-0.025000 0.350000 0.000000
-0.025000 0.375000 0.000000
-0.025000 0.400000 0.000000
-0.025000 0.425000 0.000000
-0.025000 0.450000 0.000000
-0.025000 0.475000 0.000000
-0.025000 0.500000 0.000000
-0.025000 0.525000 0.000000
-0.025000 0.550000 0.000000
-0.025000 0.575000 0.000000
-0.025000 0.600000 0.000000
0.000000 -0.075000 0.000000
0.000000 -0.050000 0.000000
0.000000 -0.025000 0.000000
0.000000 0.000000 0.000000
0.000000 0.025000 0.000000
0.000000 0.050000 0.000000
0.000000 0.075000 0.000000
0.000000 0.100000 0.000000
0.000000 0.125000 0.000000
0.000000 0.150000 0.000000
0.000000 0.175000 0.000000
0.000000 0.200000 0.000000
0.000000 0.225000 0.000000
0.000000 0.250000 0.000000
0.000000 0.275000 0.000000
0.000000 0.300000 0.000000
0.000000 0.325000 0.000000
0.000000 0.350000 0.000000
0.000000 0.375000 0.000000
0.000000 0.400000 0.000000
0.000000 0.425000 0.000000
0.000000 0.450000 0.000000
0.000000 0.475000 0.000000
0.000000 0.500000 0.000000
0.000000 0.525000 0.000000
0.000000 0.550000 0.000000
0.000000 0.575000 0.000000
0.000000 0.600000 0.000000
0.025000 -0.075000 0.000000
0.025000 -0.050000 0.000000
0.025000 -0.025000 0.000000
0.025000 0.000000 0.000000
0.194508 0.023809 0.000000
0.175483 0.027507 0.000000
0.144031 0.022764 0.000000
0.102271 0.027505 0.000000
0.249211 0.050607 0.000000
0.049687 0.023743 0.000000
0.331741 0.046771 0.000000
0.216049 0.037251 0.000000
0.128317 0.029701 0.000000
0.091624 0.047767 0.000000
0.168811 0.047835 0.000000
0.140942 0.058578 0.000000
0.082649 0.023655 0.000000
0.023749 0.024360 0.000000
0.032773 0.051179 0.000000
0.025902 0.071231 0.000000
0.071515 0.060025 0.000000
0.043206 0.091791 0.000000
0.026716 0.093175 0.000000
0.069030 0.083730 0.000000
0.050000 -0.075000 0.000000
0.050000 -0.050000 0.000000
0.050000 -0.025000 0.000000
0.050000 0.000000 0.000000
0.230869 0.025100 0.000000
0.289209 0.065673 0.000000
0.394497 0.073833 0.000000
0.389653 0.055186 0.000000
0.370543 0.087140 0.000000
0.403159 0.099577 0.000000
0.348761 0.051200 0.000000
0.499060 0.045930 0.000000
0.272903 0.041182 0.000000
0.298135 0.023634 0.000000
0.345298 0.076595 0.000000
0.294563 0.048095 0.000000
0.051862 0.044216 0.000000
0.317855 0.078218 0.000000
0.153733 0.086962 0.000000
0.196964 0.063354 0.000000
0.121079 0.064589 0.000000
0.169655 0.069494 0.000000
0.082426 0.082312 0.000000
0.107026 0.071367 0.000000
0.075000 -0.075000 0.000000
0.075000 -0.050000 0.000000
0.075000 -0.025000 0.000000
0.075000 0.000000 0.000000
0.260725 0.018886 0.000000
0.372058 0.043037 0.000000
0.383178 0.025867 0.000000
0.345934 0.021794 0.000000
0.535229 0.048465 0.000000
0.602227 0.024753 0.000000
0.627729 0.023705 0.000000
0.419591 0.063026 0.000000
0.548866 0.098462 0.000000
0.557844 0.052637 0.000000
0.426103 0.039700 0.000000
0.309286 0.118469 0.000000
0.305516 0.092935 0.000000
0.266794 0.074323 0.000000
0.251743 0.070881 0.000000
0.182576 0.085420 0.000000
0.212540 0.074966 0.000000
0.329037 0.098349 0.000000
0.289764 0.110131 0.000000
0.135410 0.095491 0.000000
0.100000 -0.075000 0.000000
0.100000 -0.050000 0.000000
0.100000 -0.025000 0.000000
0.100000 0.000000 0.000000
0.434348 0.022007 0.000000
0.405036 0.025857 0.000000
0.579808 0.023744 0.000000
0.817881 0.027895 0.000000
0.321438 0.026809 0.000000
0.706842 0.025881 0.000000
0.713795 0.044920 0.000000
0.685173 0.069996 0.000000
0.633282 0.048229 0.000000
0.665866 0.021391 0.000000
0.455988 0.043088 0.000000
0.471996 0.027264 0.000000
0.539475 0.075793 0.000000
0.566436 0.077878 0.000000
0.463278 0.084683 0.000000
0.222978 0.061156 0.000000
0.472229 0.054792 0.000000
0.480963 0.080560 0.000000
0.367982 0.106792 0.000000
0.350757 0.104791 0.000000
0.125000 -0.075000 0.000000
0.125000 -0.050000 0.000000
0.125000 -0.025000 0.000000
0.125000 0.000000 0.000000
0.840250 0.026019 0.000000
0.684176 0.042311 0.000000
0.977641 0.069368 0.000000
0.944398 0.025138 0.000000
0.965963 0.096771 0.000000
0.492191 0.025071 0.000000
0.798776 0.046682 0.000000
0.867567 0.065288 0.000000
0.794581 0.024131 0.000000
0.696940 0.074911 0.000000
0.829159 0.074146 0.000000
0.770251 0.044586 0.000000
0.640748 0.084573 0.000000
0.519574 0.062342 0.000000
0.442036 0.073966 0.000000
0.555908 0.031266 0.000000
0.739546 0.051774 0.000000
0.419638 0.089812 0.000000
0.595744 0.069597 0.000000
0.395089 0.114220 0.000000
0.150000 -0.075000 0.000000
0.150000 -0.050000 0.000000
0.150000 -0.025000 0.000000
0.150000 0.000000 0.000000
0.985785 0.129872 0.000000
0.956366 0.073107 0.000000
0.983959 0.234754 0.000000
0.956547 0.291638 0.000000
0.979688 0.046748 0.000000
0.935880 0.337124 0.000000
0.937744 0.068107 0.000000
0.933430 0.125816 0.000000
0.932825 0.045607 0.000000
0.917861 0.084778 0.000000
0.914659 0.025064 0.000000
0.761493 0.028134 0.000000
0.861782 0.025643 0.000000
0.895635 0.024835 0.000000
0.735130 0.021600 0.000000
0.647443 0.061001 0.000000
0.588873 0.050531 0.000000
0.664919 0.042619 0.000000
0.615142 0.057739 0.000000
0.532289 0.019027 0.000000
0.175000 -0.075000 0.000000
0.175000 -0.050000 0.000000
0.175000 -0.025000 0.000000
0.175000 0.000000 0.000000
0.780450 0.343047 0.000000
0.986854 0.100001 0.000000
1.000308 0.212932 0.000000
1.004606 0.111770 0.000000
0.999674 0.073179 0.000000
0.967681 0.282807 0.000000
0.991530 0.021391 0.000000
0.985709 0.154932 0.000000
0.944634 0.225445 0.000000
1.003332 0.044277 0.000000
0.952584 0.171005 0.000000
0.995720 0.184100 0.000000
0.916150 0.122096 0.000000
0.896464 0.072369 0.000000
0.843608 0.067104 0.000000
0.941526 0.161513 0.000000
0.911267 0.056359 0.000000
0.807850 0.079086 0.000000
0.727487 0.061980 0.000000
0.766663 0.062205 0.000000
0.200000 -0.075000 0.000000
0.200000 -0.050000 0.000000
0.200000 -0.025000 0.000000
0.200000 0.000000 0.000000
0.893156 0.734219 0.000000
1.004777 0.251097 0.000000
0.934964 0.490898 0.000000
0.990229 0.295837 0.000000
0.936492 0.359251 0.000000
0.933791 0.389690 0.000000
0.960398 0.405105 0.000000
1.005154 0.361782 0.000000
0.975261 0.263791 0.000000
0.914292 0.340770 0.000000
0.989827 0.324243 0.000000
0.964810 0.028099 0.000000
0.904423 0.325091 0.000000
0.959501 0.122636 0.000000
0.888284 0.103897 0.000000
0.947400 0.193527 0.000000
0.983868 0.214923 0.000000
0.926254 0.102985 0.000000
0.874789 0.038206 0.000000
0.822260 0.054525 0.000000
0.225000 -0.075000 0.000000
0.225000 -0.050000 0.000000
0.225000 -0.025000 0.000000
0.225000 0.000000 0.000000
0.964950 0.386843 0.000000
0.968419 1.119939 0.000000
0.951042 0.350306 0.000000
0.874647 0.410925 0.000000
0.798050 0.314519 0.000000
0.880140 0.461706 0.000000
0.951629 0.496476 0.000000
0.991921 0.414761 0.000000
0.992429 0.375075 0.000000
0.933514 0.414880 0.000000
0.989969 0.393680 0.000000
0.919251 0.411021 0.000000
0.780246 0.317376 0.000000
0.871136 0.308882 0.000000
0.956596 0.312462 0.000000
0.969184 0.321147 0.000000
0.916780 0.276919 0.000000
0.957435 0.140343 0.000000
0.903914 0.139986 0.000000
0.877399 0.076890 0.000000
0.250000 -0.075000 0.000000
0.250000 -0.050000 0.000000
0.250000 -0.025000 0.000000
0.250000 0.000000 0.000000
0.980099 0.979068 0.000000
0.876184 0.896865 0.000000
0.886170 0.528476 0.000000
0.929270 0.545448 0.000000
0.800789 0.994849 0.000000
0.961476 0.615434 0.000000
0.805427 0.869745 0.000000
0.870953 0.761941 0.000000
0.768531 0.485420 0.000000
0.961453 0.476128 0.000000
0.854380 0.328213 0.000000
0.912042 0.389711 0.000000
0.927802 0.448225 0.000000
0.707150 0.222233 0.000000
0.908172 0.372311 0.000000
0.858086 0.151544 0.000000
0.870668 0.338078 0.000000
1.000924 0.158300 0.000000
0.924436 0.224978 0.000000
0.961335 0.193754 0.000000
0.275000 -0.075000 0.000000
0.275000 -0.050000 0.000000
0.275000 -0.025000 0.000000
0.275000 0.000000 0.000000
0.300000 -0.075000 0.000000
0.300000 -0.050000 0.000000
0.300000 -0.025000 0.000000
0.300000 0.000000 0.000000
0.325000 -0.075000 0.000000
0.325000 -0.050000 0.000000
0.325000 -0.025000 0.000000
0.325000 0.000000 0.000000
0.350000 -0.075000 0.000000
0.350000 -0.050000 0.000000
0.350000 -0.025000 0.000000
0.350000 0.000000 0.000000
0.375000 -0.075000 0.000000
0.375000 -0.050000 0.000000
0.375000 -0.025000 0.000000
0.375000 0.000000 0.000000
0.400000 -0.075000 0.000000
0.400000 -0.050000 0.000000
0.400000 -0.025000 0.000000
0.400000 0.000000 0.000000
0.425000 -0.075000 0.000000
0.425000 -0.050000 0.000000
0.425000 -0.025000 0.000000
0.425000 0.000000 0.000000
0.450000 -0.075000 0.000000
0.450000 -0.050000 0.000000
0.450000 -0.025000 0.000000
0.450000 0.000000 0.000000
0.475000 -0.075000 0.000000
0.475000 -0.050000 0.000000
0.475000 -0.025000 0.000000
0.475000 0.000000 0.000000
0.500000 -0.075000 0.000000
0.500000 -0.050000 0.000000
0.500000 -0.025000 0.000000
0.500000 0.000000 0.000000
0.525000 -0.075000 0.000000
0.525000 -0.050000 0.000000
0.525000 -0.025000 0.000000
0.525000 0.000000 0.000000
0.550000 -0.075000 0.000000
0.550000 -0.050000 0.000000
0.550000 -0.025000 0.000000
0.550000 0.000000 0.000000
0.575000 -0.075000 0.000000
0.575000 -0.050000 0.000000
0.575000 -0.025000 0.000000
0.575000 0.000000 0.000000
0.600000 -0.075000 0.000000
0.600000 -0.050000 0.000000
0.600000 -0.025000 0.000000
0.600000 0.000000 0.000000
0.625000 -0.075000 0.000000
0.625000 -0.050000 0.000000
0.625000 -0.025000 0.000000
0.625000 0.000000 0.000000
0.650000 -0.075000 0.000000
0.650000 -0.050000 0.000000
0.650000 -0.025000 0.000000
0.650000 0.000000 0.000000
0.675000 -0.075000 0.000000
0.675000 -0.050000 0.000000
0.675000 -0.025000 0.000000
0.675000 0.000000 0.000000
0.700000 -0.075000 0.000000
0.700000 -0.050000 0.000000
0.700000 -0.025000 0.000000
0.700000 0.000000 0.000000
0.725000 -0.075000 0.000000
0.725000 -0.050000 0.000000
0.725000 -0.025000 0.000000
0.725000 0.000000 0.000000
0.750000 -0.075000 0.000000
0.750000 -0.050000 0.000000
0.750000 -0.025000 0.000000
0.750000 0.000000 0.000000
0.775000 -0.075000 0.000000
0.775000 -0.050000 0.000000
0.775000 -0.025000 0.000000
0.775000 0.000000 0.000000
0.800000 -0.075000 0.000000
0.800000 -0.050000 0.000000
0.800000 -0.025000 0.000000
0.800000 0.000000 0.000000
0.825000 -0.075000 0.000000
0.825000 -0.050000 0.000000
0.825000 -0.025000 0.000000
0.825000 0.000000 0.000000
0.850000 -0.075000 0.000000
0.850000 -0.050000 0.000000
0.850000 -0.025000 0.000000
0.850000 0.000000 0.000000
0.875000 -0.075000 0.000000
0.875000 -0.050000 0.000000
0.875000 -0.025000 0.000000
0.875000 0.000000 0.000000
0.900000 -0.075000 0.000000
0.900000 -0.050000 0.000000
0.900000 -0.025000 0.000000
0.900000 0.000000 0.000000
0.925000 -0.075000 0.000000
0.925000 -0.050000 0.000000
0.925000 -0.025000 0.000000
0.925000 0.000000 0.000000
0.950000 -0.075000 0.000000
0.950000 -0.050000 0.000000
0.950000 -0.025000 0.000000
0.950000 0.000000 0.000000
0.975000 -0.075000 0.000000
0.975000 -0.050000 0.000000
0.975000 -0.025000 0.000000
0.975000 0.000000 0.000000
1.000000 -0.075000 0.000000
1.000000 -0.050000 0.000000
1.000000 -0.025000 0.000000
1.000000 0.000000 0.000000
1.025000 -0.075000 0.000000
1.025000 -0.050000 0.000000
1.025000 -0.025000 0.000000
1.025000 0.000000 0.000000
1.025000 0.025000 0.000000
1.025000 0.050000 0.000000
1.025000 0.075000 0.000000
1.025000 0.100000 0.000000
1.025000 0.125000 0.000000
1.025000 0.150000 0.000000
1.025000 0.175000 0.000000
1.025000 0.200000 0.000000
1.025000 0.225000 0.000000
1.025000 0.250000 0.000000
1.025000 0.275000 0.000000
1.025000 0.300000 0.000000
1.025000 0.325000 0.000000
1.025000 0.350000 0.000000
1.025000 0.375000 0.000000
1.025000 0.400000 0.000000
1.025000 0.425000 0.000000
1.025000 0.450000 0.000000
1.025000 0.475000 0.000000
1.025000 0.500000 0.000000
1.025000 0.525000 0.000000
1.025000 0.550000 0.000000
1.025000 0.575000 0.000000
1.025000 0.600000 0.000000
1.050000 -0.075000 0.000000
1.050000 -0.050000 0.000000
1.050000 -0.025000 0.000000
1.050000 0.000000 0.000000
1.050000 0.025000 0.000000
1.050000 0.050000 0.000000
1.050000 0.075000 0.000000
1.050000 0.100000 0.000000
1.050000 0.125000 0.000000
1.050000 0.150000 0.000000
1.050000 0.175000 0.000000
1.050000 0.200000 0.000000
1.050000 0.225000 0.000000
1.050000 0.250000 0.000000
1.050000 0.275000 0.000000
1.050000 0.300000 0.000000
1.050000 0.325000 0.000000
1.050000 0.350000 0.000000
1.050000 0.375000 0.000000
1.050000 0.400000 0.000000
1.050000 0.425000 0.000000
1.050000 0.450000 0.000000
1.050000 0.475000 0.000000
1.050000 0.500000 0.000000
1.050000 0.525000 0.000000
1.050000 0.550000 0.000000
1.050000 0.575000 0.000000
1.050000 0.600000 0.000000
1.075000 -0.075000 0.000000
1.075000 -0.050000 0.000000
1.075000 -0.025000 0.000000
1.075000 0.000000 0.000000
1.075000 0.025000 0.000000
1.075000 0.050000 0.000000
1.075000 0.075000 0.000000
1.075000 0.100000 0.000000
1.075000 0.125000 0.000000
1.075000 0.150000 0.000000
1.075000 0.175000 0.000000
1.075000 0.200000 0.000000
1.075000 0.225000 0.000000
1.075000 0.250000 0.000000
1.075000 0.275000 0.000000
1.075000 0.300000 0.000000
1.075000 0.325000 0.000000
1.075000 0.350000 0.000000
1.075000 0.375000 0.000000
1.075000 0.400000 0.000000
1.075000 0.425000 0.000000
1.075000 0.450000 0.000000
1.075000 0.475000 0.000000
1.075000 0.500000 0.000000
1.075000 0.525000 0.000000
1.075000 0.550000 0.000000
1.075000 0.575000 0.000000
1.075000 0.600000 0.000000
1.100000 -0.075000 0.000000
1.100000 -0.050000 0.000000
1.100000 -0.025000 0.000000
1.100000 0.000000 0.000000
1.100000 0.025000 0.000000
1.100000 0.050000 0.000000
1.100000 0.075000 0.000000
1.100000 0.100000 0.000000
1.100000 0.125000 0.000000
1.100000 0.150000 0.000000
1.100000 0.175000 0.000000
1.100000 0.200000 0.000000
1.100000 0.225000 0.000000
1.100000 0.250000 0.000000
1.100000 0.275000 0.000000
1.100000 0.300000 0.000000
1.100000 0.325000 0.000000
1.100000 0.350000 0.000000
1.100000 0.375000 0.000000
1.100000 0.400000 0.000000
1.100000 0.425000 0.000000
1.100000 0.450000 0.000000
1.100000 0.475000 0.000000
1.100000 0.500000 0.000000
1.100000 0.525000 0.000000
1.100000 0.550000 0.000000
1.100000 0.575000 0.000000
1.100000 0.600000 0.000000
</DataArray>
</Points>
<PointData>
<DataArray NumberOfComponents='1' type='Int32' Name='ParticleType' format='ascii'>
3
3
3
3
3
3
3
3
3
3
3
3
3
3
3
3
3
3
3
3
3
3
3
3
3
3
2
2
3
3
3
3
3
3
3
3
3
3
3
3
3
3
3
3
3
3
3
3
3
3
3
3
3
3
2
2
3
3
2
2
2
2
2
2
2
2
2
2
2
2
2
2
2
2
2
2
2
2
2
2
2
2
2
2
3
3
2
2
2
2
2
2
2
2
2
2
2
2
2
2
2
2
2
2
2
2
2
2
2
2
2
2
3
3
2
2
0
0
0
0
0
0
0
0
0
0
0
0
0
0
0
0
0
0
0
0
3
3
2
2
0
0
0
0
0
0
0
0
0
0
0
0
0
0
0
0
0
0
0
0
3
3
2
2
0
0
0
0
0
0
0
0
0
0
0
0
0
0
0
0
0
0
0
0
3
3
2
2
0
0
0
0
0
0
0
0
0
0
0
0
0
0
0
0
0
0
0
0
3
3
2
2
0
0
0
0
0
0
0
0
0
0
0
0
0
0
0
0
0
0
0
0
3
3
2
2
0
0
0
0
0
0
0
0
0
0
0
0
0
0
0
0
0
0
0
0
3
3
2
2
0
0
0
0
0
0
0
0
0
0
0
0
0
0
0
0
0
0
0
0
3
3
2
2
0
0
0
0
0
0
0
0
0
0
0
0
0
0
0
0
0
0
0
0
3
3
2
2
0
0
0
0
0
0
0
0
0
0
0
0
0
0
0
0
0
0
0
0
3
3
2
2
0
0
0
0
0
0
0
0
0
0
0
0
0
0
0
0
0
0
0
0
3
3
2
2
3
3
2
2
3
3
2
2
3
3
2
2
3
3
2
2
3
3
2
2
3
3
2
2
3
3
2
2
3
3
2
2
3
3
2
2
3
3
2
2
3
3
2
2
3
3
2
2
3
3
2
2
3
3
2
2
3
3
2
2
3
3
2
2
3
3
2
2
3
3
2
2
3
3
2
2
3
3
2
2
3
3
2
2
3
3
2
2
3
3
2
2
3
3
2
2
3
3
2
2
3
3
2
2
3
3
2
2
3
3
2
2
3
3
2
2
3
3
2
2
2
2
2
2
2
2
2
2
2
2
2
2
2
2
2
2
2
2
2
2
2
2
2
2
3
3
2
2
2
2
2
2
2
2
2
2
2
2
2
2
2
2
2
2
2
2
2
2
2
2
2
2
3
3
3
3
3
3
3
3
3
3
3
3
3
3
3
3
3
3
3
3
3
3
3
3
3
3
2
2
3
3
3
3
3
3
3
3
3
3
3
3
3
3
3
3
3
3
3
3
3
3
3
3
3
3
2
2
</DataArray>
<DataArray NumberOfComponents='1' type='Float32' Name='Velocity' format='ascii'>
0.000000
0.000000
0.000000
0.000000
0.000000
0.000000
0.000000
0.000000
0.000000
0.000000
0.000000
0.000000
0.000000
0.000000
0.000000
0.000000
0.000000
0.000000
0.000000
0.000000
0.000000
0.000000
0.000000
0.000000
0.000000
0.000000
0.000000
0.000000
0.000000
0.000000
0.000000
0.000000
0.000000
0.000000
0.000000
0.000000
0.000000
0.000000
0.000000
0.000000
0.000000
0.000000
0.000000
0.000000
0.000000
0.000000
0.000000
0.000000
0.000000
0.000000
0.000000
0.000000
0.000000
0.000000
0.000000
0.000000
0.000000
0.000000
0.000000
0.000000
0.000000
0.000000
0.000000
0.000000
0.000000
0.000000
0.000000
0.000000
0.000000
0.000000
0.000000
0.000000
0.000000
0.000000
0.000000
0.000000
0.000000
0.000000
0.000000
0.000000
0.000000
0.000000
0.000000
0.000000
0.000000
0.000000
0.000000
0.000000
0.000000
0.000000
0.000000
0.000000
0.000000
0.000000
0.000000
0.000000
0.000000
0.000000
0.000000
0.000000
0.000000
0.000000
0.000000
0.000000
0.000000
0.000000
0.000000
0.000000
0.000000
0.000000
0.000000
0.000000
0.000000
0.000000
0.000000
0.000000
0.330095
0.352974
0.152235
0.115547
0.752184
0.216261
1.030596
0.369915
0.416365
0.263815
0.307061
0.334510
0.348170
0.199969
0.223832
0.129362
0.091891
0.418978
0.367599
0.271709
0.000000
0.000000
0.000000
0.000000
0.623851
0.756549
1.145979
0.625111
0.764505
1.304217
0.767625
1.164197
0.769360
0.840976
0.865628
0.535525
0.096831
0.759780
0.474961
0.339443
0.304098
0.326490
0.283137
0.275660
0.000000
0.000000
0.000000
0.000000
0.298983
0.648601
0.856053
0.770014
1.724525
0.826981
1.333753
0.958206
1.346635
1.077171
0.574804
0.812263
1.198636
0.374377
0.608796
0.429810
0.420322
0.891245
0.399067
0.368403
0.000000
0.000000
0.000000
0.000000
0.779224
0.843378
1.019729
1.112970
0.487269
1.307613
1.363416
1.394805
1.316245
1.229082
0.929010
0.859293
1.023126
1.424168
1.209364
0.494285
0.992138
1.175578
0.627252
0.590788
0.000000
0.000000
0.000000
0.000000
1.211250
1.461273
0.613989
0.389177
0.859143
0.945941
1.945478
1.611245
1.291793
1.505059
1.454835
1.082583
1.390957
1.288422
1.332211
1.127796
1.691618
1.157037
1.522124
0.988167
0.000000
0.000000
0.000000
0.000000
0.934124
0.743039
1.775463
1.418882
0.387768
1.255333
0.613029
0.814910
1.168970
1.368941
0.877268
1.405196
1.244424
1.098195
1.372486
1.143912
1.289137
1.424527
1.267596
0.493285
0.000000
0.000000
0.000000
0.000000
1.104638
0.798328
0.856676
0.875787
0.747274
1.223960
0.113318
0.734827
0.840235
0.129764
1.051560
0.942995
0.827212
0.938878
1.593127
1.468924
1.010099
1.840965
1.408808
1.587928
0.000000
0.000000
0.000000
0.000000
0.928642
0.857122
0.329172
1.056079
0.752891
0.734153
0.704573
0.810185
1.379773
0.294788
1.061130
0.610627
0.766758
0.957430
0.951061
1.018873
1.116364
1.262948
1.000079
1.545104
0.000000
0.000000
0.000000
0.000000
1.173189
1.898443
0.706595
0.409563
1.221610
0.415629
0.395020
0.926387
0.779024
0.520603
0.664388
0.490179
0.929971
0.511695
0.916715
0.755793
0.762885
0.787293
0.738224
1.647245
0.000000
0.000000
0.000000
0.000000
1.169051
1.256669
0.565552
0.544496
1.490964
0.631183
1.234920
0.945836
0.728098
0.368306
0.581592
0.665880
0.450827
1.292410
0.479688
0.829342
1.122611
0.540352
0.638139
0.969522
0.000000
0.000000
0.000000
0.000000
0.000000
0.000000
0.000000
0.000000
0.000000
0.000000
0.000000
0.000000
0.000000
0.000000
0.000000
0.000000
0.000000
0.000000
0.000000
0.000000
0.000000
0.000000
0.000000
0.000000
0.000000
0.000000
0.000000
0.000000
0.000000
0.000000
0.000000
0.000000
0.000000
0.000000
0.000000
0.000000
0.000000
0.000000
0.000000
0.000000
0.000000
0.000000
0.000000
0.000000
0.000000
0.000000
0.000000
0.000000
0.000000
0.000000
0.000000
0.000000
0.000000
0.000000
0.000000
0.000000
0.000000
0.000000
0.000000
0.000000
0.000000
0.000000
0.000000
0.000000
0.000000
0.000000
0.000000
0.000000
0.000000
0.000000
0.000000
0.000000
0.000000
0.000000
0.000000
0.000000
0.000000
0.000000
0.000000
0.000000
0.000000
0.000000
0.000000
0.000000
0.000000
0.000000
0.000000
0.000000
0.000000
0.000000
0.000000
0.000000
0.000000
0.000000
0.000000
0.000000
0.000000
0.000000
0.000000
0.000000
0.000000
0.000000
0.000000
0.000000
0.000000
0.000000
0.000000
0.000000
0.000000
0.000000
0.000000
0.000000
0.000000
0.000000
0.000000
0.000000
0.000000
0.000000
0.000000
0.000000
0.000000
0.000000
0.000000
0.000000
0.000000
0.000000
0.000000
0.000000
0.000000
0.000000
0.000000
0.000000
0.000000
0.000000
0.000000
0.000000
0.000000
0.000000
0.000000
0.000000
0.000000
0.000000
0.000000
0.000000
0.000000
0.000000
0.000000
0.000000
0.000000
0.000000
0.000000
0.000000
0.000000
0.000000
0.000000
0.000000
0.000000
0.000000
0.000000
0.000000
0.000000
0.000000
0.000000
0.000000
0.000000
0.000000
0.000000
0.000000
0.000000
0.000000
0.000000
0.000000
0.000000
0.000000
0.000000
0.000000
0.000000
0.000000
0.000000
0.000000
0.000000
0.000000
0.000000
0.000000
0.000000
0.000000
0.000000
0.000000
0.000000
0.000000
0.000000
0.000000
0.000000
0.000000
0.000000
0.000000
0.000000
0.000000
0.000000
0.000000
0.000000
0.000000
0.000000
0.000000
0.000000
0.000000
0.000000
0.000000
0.000000
0.000000
0.000000
0.000000
0.000000
0.000000
0.000000
0.000000
0.000000
0.000000
0.000000
0.000000
0.000000
0.000000
0.000000
0.000000
0.000000
0.000000
0.000000
0.000000
0.000000
0.000000
0.000000
0.000000
</DataArray>
<DataArray NumberOfComponents='1' type='Float32' Name='pressure' format='ascii'>
0.000000
0.000000
0.000000
0.000000
0.000000
0.000000
0.000000
0.000000
0.000000
0.000000
0.000000
0.000000
0.000000
0.000000
0.000000
0.000000
0.000000
0.000000
0.000000
0.000000
0.000000
0.000000
0.000000
0.000000
0.000000
0.000000
0.000000
0.000000
0.000000
0.000000
0.000000
0.000000
0.000000
0.000000
0.000000
0.000000
0.000000
0.000000
0.000000
0.000000
0.000000
0.000000
0.000000
0.000000
0.000000
0.000000
0.000000
0.000000
0.000000
0.000000
0.000000
0.000000
0.000000
0.000000
0.000000
0.000000
0.000000
0.000000
997.098145
728.656494
533.279663
0.000000
0.000000
0.000000
0.000000
0.000000
0.000000
0.000000
0.000000
0.000000
0.000000
0.000000
0.000000
0.000000
0.000000
0.000000
0.000000
0.000000
0.000000
0.000000
0.000000
0.000000
0.000000
0.000000
0.000000
0.000000
1172.615479
1554.574341
0.000000
0.000000
0.000000
0.000000
0.000000
0.000000
0.000000
0.000000
0.000000
0.000000
0.000000
0.000000
0.000000
0.000000
0.000000
0.000000
0.000000
0.000000
0.000000
0.000000
0.000000
0.000000
0.000000
0.000000
0.000000
0.000000
1484.731934
1940.972046
668.815735
514.914062
791.087769
975.544189
1096.233887
385.104401
1331.585815
1461.870117
13.691140
235.729874
0.000000
0.000000
826.752258
591.514343
938.396912
597.344482
502.094452
0.000000
0.000000
0.000000
0.000000
0.000000
1530.559326
1460.068848
0.000000
0.000000
1465.975586
1172.743408
149.428467
0.000000
244.570358
0.000000
1480.296265
400.980560
0.000000
1808.216064
200.933487
636.350525
0.000000
0.000000
288.804047
187.882889
0.000000
0.000000
0.000000
0.000000
919.735779
104.600456
857.598938
1128.492310
1655.532471
982.762817
0.000000
0.000000
0.000000
0.000000
0.000000
459.278137
0.000000
0.000000
136.420410
0.000000
0.000000
0.000000
0.000000
0.000000
0.000000
0.000000
0.000000
0.000000
0.000000
305.011475
1134.108154
1804.158447
0.000000
625.230591
1737.601196
0.000000
578.681885
0.000000
179.792984
0.000000
0.000000
1399.872925
0.000000
0.000000
0.000000
525.222534
0.000000
0.000000
0.000000
0.000000
0.000000
0.000000
0.000000
0.000000
0.000000
0.000000
4526.013672
2295.069580
0.000000
0.000000
0.000000
1940.974487
0.000000
0.000000
0.000000
357.458649
0.000000
0.000000
0.000000
238.685944
0.000000
0.000000
0.000000
0.000000
0.000000
0.000000
998.979492
424.586395
0.000000
2724.312012
0.000000
0.000000
2816.979980
0.000000
3484.880859
1452.585815
2240.462891
2062.453613
3454.735840
0.000000
1977.114990
2254.287598
0.000000
0.000000
0.000000
0.000000
0.000000
0.000000
0.000000
0.000000
13.040737
114.593353
0.000000
1904.723999
646.915344
904.161682
450.897552
0.000000
3074.552002
0.000000
0.000000
4269.661133
0.000000
0.000000
0.000000
3491.145020
0.000000
0.000000
1572.179321
0.000000
0.000000
0.000000
0.000000
0.000000
1690.811890
1946.394287
0.000000
0.000000
0.000000
0.000000
35.614738
123.561943
0.000000
0.000000
0.000000
0.000000
0.000000
2186.034912
0.000000
1909.480835
0.000000
0.000000
0.000000
1582.252075
352.934814
771.110229
0.000000
0.000000
2152.006836
1215.672363
0.000000
0.000000
0.000000
0.000000
0.000000
0.000000
0.000000
0.000000
0.000000
0.000000
0.000000
0.000000
0.000000
0.000000
0.000000
0.000000
0.000000
0.000000
0.000000
1135.536011
0.000000
0.000000
4825.785645
4140.679199
0.000000
0.000000
0.000000
0.000000
0.000000
0.000000
0.000000
0.000000
0.000000
0.000000
0.000000
0.000000
0.000000
0.000000
0.000000
0.000000
0.000000
0.000000
0.000000
0.000000
0.000000
0.000000
4671.519531
2704.283203
0.000000
0.000000
3508.191895
2646.587891
0.000000
0.000000
2446.227295
3765.394531
0.000000
0.000000
2978.531250
1677.532593
0.000000
0.000000
900.627014
0.000000
0.000000
0.000000
810.153687
1051.260864
0.000000
0.000000
1714.809692
1821.905762
0.000000
0.000000
764.617920
0.000000
0.000000
0.000000
0.000000
0.000000
0.000000
0.000000
286.105133
0.000000
0.000000
0.000000
2852.576172
294.994171
0.000000
0.000000
2022.660278
265.628876
0.000000
0.000000
1339.533447
986.889282
0.000000
0.000000
784.319397
1836.260010
0.000000
0.000000
633.376831
0.000000
0.000000
0.000000
253.286301
0.000000
0.000000
0.000000
489.404297
0.000000
0.000000
0.000000
0.000000
0.000000
0.000000
0.000000
487.637970
0.000000
0.000000
0.000000
59.554497
0.000000
0.000000
0.000000
0.000000
0.000000
0.000000
0.000000
0.000000
0.000000
0.000000
0.000000
0.000000
0.000000
0.000000
0.000000
0.000000
855.958679
0.000000
0.000000
579.192627
1829.082275
0.000000
0.000000
2203.415527
3305.997559
0.000000
0.000000
2180.326904
3173.578857
0.000000
0.000000
2530.701904
2509.001465
0.000000
0.000000
2975.091309
2919.084961
0.000000
0.000000
3446.392334
2690.697510
0.000000
0.000000
2030.178345
718.122864
0.000000
3271.130371
0.000000
195.277069
0.000000
0.000000
0.000000
0.000000
0.000000
0.000000
0.000000
0.000000
0.000000
0.000000
445.230774
0.000000
0.000000
0.000000
0.000000
0.000000
0.000000
0.000000
0.000000
0.000000
0.000000
0.000000
1714.286987
1633.766724
1538.779785
2728.251465
1126.022339
1654.459106
782.980774
0.000000
0.000000
0.000000
0.000000
1105.462402
0.000000
0.000000
0.000000
1564.983032
1357.345581
0.000000
0.000000
0.000000
0.000000
0.000000
0.000000
0.000000
0.000000
0.000000
0.000000
0.000000
0.000000
0.000000
0.000000
0.000000
0.000000
0.000000
0.000000
0.000000
0.000000
0.000000
0.000000
0.000000
0.000000
0.000000
0.000000
0.000000
0.000000
0.000000
0.000000
0.000000
0.000000
0.000000
0.000000
0.000000
0.000000
0.000000
0.000000
0.000000
0.000000
0.000000
0.000000
0.000000
0.000000
0.000000
0.000000
0.000000
0.000000
0.000000
0.000000
0.000000
0.000000
0.000000
0.000000
0.000000
0.000000
0.000000
0.000000
0.000000
0.000000
0.000000
0.000000
0.000000
0.000000
0.000000
</DataArray>
</PointData>
<Cells>
<DataArray type='Int32' Name='connectivity' format='ascii'>
0
1
2
3
4
5
6
7
8
9
10
11
12
13
14
15
16
17
18
19
20
21
22
23
24
25
26
27
28
29
30
31
32
33
34
35
36
37
38
39
40
41
42
43
44
45
46
47
48
49
50
51
52
53
54
55
56
57
58
59
60
61
62
63
64
65
66
67
68
69
70
71
72
73
74
75
76
77
78
79
80
81
82
83
84
85
86
87
88
89
90
91
92
93
94
95
96
97
98
99
100
101
102
103
104
105
106
107
108
109
110
111
112
113
114
115
116
117
118
119
120
121
122
123
124
125
126
127
128
129
130
131
132
133
134
135
136
137
138
139
140
141
142
143
144
145
146
147
148
149
150
151
152
153
154
155
156
157
158
159
160
161
162
163
164
165
166
167
168
169
170
171
172
173
174
175
176
177
178
179
180
181
182
183
184
185
186
187
188
189
190
191
192
193
194
195
196
197
198
199
200
201
202
203
204
205
206
207
208
209
210
211
212
213
214
215
216
217
218
219
220
221
222
223
224
225
226
227
228
229
230
231
232
233
234
235
236
237
238
239
240
241
242
243
244
245
246
247
248
249
250
251
252
253
254
255
256
257
258
259
260
261
262
263
264
265
266
267
268
269
270
271
272
273
274
275
276
277
278
279
280
281
282
283
284
285
286
287
288
289
290
291
292
293
294
295
296
297
298
299
300
301
302
303
304
305
306
307
308
309
310
311
312
313
314
315
316
317
318
319
320
321
322
323
324
325
326
327
328
329
330
331
332
333
334
335
336
337
338
339
340
341
342
343