<?xml version='1.0' encoding='UTF-8'?>
<VTKFile xmlns='VTK' byte_order='LittleEndian' version='0.1' type='UnstructuredGrid'>
<UnstructuredGrid>
<Piece NumberOfCells='584' NumberOfPoints='584'>
<Points>
<DataArray NumberOfComponents='3' type='Float32' Name='Position' format='ascii'>
-0.075000 -0.075000 0.000000
-0.075000 -0.050000 0.000000
-0.075000 -0.025000 0.000000
-0.075000 0.000000 0.000000
-0.075000 0.025000 0.000000
-0.075000 0.050000 0.000000
-0.075000 0.075000 0.000000
-0.075000 0.100000 0.000000
-0.075000 0.125000 0.000000
-0.075000 0.150000 0.000000
-0.075000 0.175000 0.000000
-0.075000 0.200000 0.000000
-0.075000 0.225000 0.000000
-0.075000 0.250000 0.000000
-0.075000 0.275000 0.000000
-0.075000 0.300000 0.000000
-0.075000 0.325000 0.000000
-0.075000 0.350000 0.000000
-0.075000 0.375000 0.000000
-0.075000 0.400000 0.000000
-0.075000 0.425000 0.000000
-0.075000 0.450000 0.000000
-0.075000 0.475000 0.000000
-0.075000 0.500000 0.000000
-0.075000 0.525000 0.000000
-0.075000 0.550000 0.000000
-0.075000 0.575000 0.000000
-0.075000 0.600000 0.000000
-0.050000 -0.075000 0.000000
-0.050000 -0.050000 0.000000
-0.050000 -0.025000 0.000000
-0.050000 0.000000 0.000000
-0.050000 0.025000 0.000000
-0.050000 0.050000 0.000000
-0.050000 0.075000 0.000000
-0.050000 0.100000 0.000000
-0.050000 0.125000 0.000000
-0.050000 0.150000 0.000000
-0.050000 0.175000 0.000000
-0.050000 0.200000 0.000000
-0.050000 0.225000 0.000000
-0.050000 0.250000 0.000000
-0.050000 0.275000 0.000000
-0.050000 0.300000 0.000000
-0.050000 0.325000 0.000000
-0.050000 0.350000 0.000000
-0.050000 0.375000 0.000000
-0.050000 0.400000 0.000000
-0.050000 0.425000 0.000000
-0.050000 0.450000 0.000000
-0.050000 0.475000 0.000000
-0.050000 0.500000 0.000000
-0.050000 0.525000 0.000000
-0.050000 0.550000 0.000000
-0.050000 0.575000 0.000000
-0.050000 0.600000 0.000000
-0.025000 -0.075000 0.000000
-0.025000 -0.050000 0.000000
-0.025000 -0.025000 0.000000
-0.025000 0.000000 0.000000
-0.025000 0.025000 0.000000
-0.025000 0.050000 0.000000
-0.025000 0.075000 0.000000
-0.025000 0.100000 0.000000
-0.025000 0.125000 0.000000
-0.025000 0.150000 0.000000
-0.025000 0.175000 0.000000
-0.025000 0.200000 0.000000
-0.025000 0.225000 0.000000
-0.025000 0.250000 0.000000
-0.025000 0.275000 0.000000
-0.025000 0.300000 0.000000
-0.025000 0.325000 0.000000
-0.025000 0.350000 0.000000
-0.025000 0.375000 0.000000
-0.025000 0.400000 0.000000
-0.025000 0.425000 0.000000
-0.025000 0.450000 0.000000
-0.025000 0.475000 0.000000
-0.025000 0.500000 0.000000
-0.025000 0.525000 0.000000
-0.025000 0.550000 0.000000
-0.025000 0.575000 0.000000
-0.025000 0.600000 0.000000
0.000000 -0.075000 0.000000
0.000000 -0.050000 0.000000
0.000000 -0.025000 0.000000
0.000000 0.000000 0.000000
0.000000 0.025000 0.000000
0.000000 0.050000 0.000000
0.000000 0.075000 0.000000
0.000000 0.100000 0.000000
0.000000 0.125000 0.000000
0.000000 0.150000 0.000000
0.000000 0.175000 0.000000
0.000000 0.200000 0.000000
0.000000 0.225000 0.000000
0.000000 0.250000 0.000000
0.000000 0.275000 0.000000
0.000000 0.300000 0.000000
0.000000 0.325000 0.000000
0.000000 0.350000 0.000000
0.000000 0.375000 0.000000
0.000000 0.400000 0.000000
0.000000 0.425000 0.000000
0.000000 0.450000 0.000000
0.000000 0.475000 0.000000
0.000000 0.500000 0.000000
0.000000 0.525000 0.000000
0.000000 0.550000 0.000000
0.000000 0.575000 0.000000
0.000000 0.600000 0.000000
0.025000 -0.075000 0.000000
0.025000 -0.050000 0.000000
0.025000 -0.025000 0.000000
0.025000 0.000000 0.000000
0.313794 0.079418 0.000000
0.164232 0.110975 0.000000
0.290135 0.052673 0.000000
0.271827 0.029207 0.000000
0.310349 0.047098 0.000000
0.216778 0.050359 0.000000
0.387985 0.020508 0.000000
0.328440 0.099594 0.000000
0.245794 0.124559 0.000000
0.160236 0.128142 0.000000
0.294914 0.024042 0.000000
0.201669 0.070153 0.000000
0.247231 0.023105 0.000000
0.227109 0.027195 0.000000
0.174303 0.073079 0.000000
0.111505 0.039108 0.000000
0.023476 0.137018 0.000000
0.145827 0.021002 0.000000
0.067477 0.075714 0.000000
0.276898 0.076967 0.000000
0.050000 -0.075000 0.000000
0.050000 -0.050000 0.000000
0.050000 -0.025000 0.000000
0.050000 0.000000 0.000000
0.096913 0.157103 0.000000
0.162021 0.050123 0.000000
0.084271 0.091088 0.000000
0.063889 0.021675 0.000000
0.023814 0.073638 0.000000
0.501548 0.061022 0.000000
0.267533 0.118372 0.000000
0.629939 0.026454 0.000000
0.118083 0.099850 0.000000
0.297491 0.151958 0.000000
0.196213 0.022516 0.000000
0.271321 0.155932 0.000000
0.042037 0.169801 0.000000
0.363985 0.156730 0.000000
0.242985 0.053965 0.000000
0.048627 0.039951 0.000000
0.295379 0.089631 0.000000
0.354071 0.081647 0.000000
0.091532 0.116551 0.000000
0.136516 0.040823 0.000000
0.075000 -0.075000 0.000000
0.075000 -0.050000 0.000000
0.075000 -0.025000 0.000000
0.075000 0.000000 0.000000
0.226431 0.077362 0.000000
0.197175 0.117914 0.000000
0.466987 0.133970 0.000000
0.417786 0.026787 0.000000
0.488950 0.143383 0.000000
0.569283 0.136739 0.000000
0.592819 0.113098 0.000000
0.083109 0.061030 0.000000
0.389897 0.067171 0.000000
0.620349 0.052296 0.000000
0.502074 0.025678 0.000000
0.118461 0.062098 0.000000
0.291754 0.112969 0.000000
0.260997 0.179765 0.000000
0.360779 0.060168 0.000000
0.080546 0.038321 0.000000
0.182580 0.088926 0.000000
0.045769 0.064413 0.000000
0.213047 0.097250 0.000000
0.264675 0.054411 0.000000
0.100000 -0.075000 0.000000
0.100000 -0.050000 0.000000
0.100000 -0.025000 0.000000
0.100000 0.000000 0.000000
0.550128 0.025889 0.000000
0.392139 0.194018 0.000000
0.517868 0.134619 0.000000
0.789849 0.021656 0.000000
0.329738 0.061823 0.000000
0.721128 0.024446 0.000000
0.574885 0.070248 0.000000
0.342280 0.042146 0.000000
0.683534 0.042331 0.000000
0.712235 0.070122 0.000000
0.529420 0.024581 0.000000
0.379702 0.090605 0.000000
0.535614 0.130127 0.000000
0.673259 0.080249 0.000000
0.061999 0.130248 0.000000
0.321643 0.022370 0.000000
0.552777 0.077508 0.000000
0.376056 0.042424 0.000000
0.399304 0.096751 0.000000
0.137308 0.113842 0.000000
0.125000 -0.075000 0.000000
0.125000 -0.050000 0.000000
0.125000 -0.025000 0.000000
0.125000 0.000000 0.000000
0.729679 0.077824 0.000000
0.619822 0.077641 0.000000
0.993290 0.073914 0.000000
0.853209 0.026978 0.000000
0.550844 0.117758 0.000000
0.668648 0.055506 0.000000
0.040939 0.138547 0.000000
0.519612 0.077141 0.000000
0.795341 0.071827 0.000000
0.753992 0.046622 0.000000
0.858285 0.062239 0.000000
0.540542 0.057864 0.000000
0.574613 0.047504 0.000000
0.413178 0.125601 0.000000
0.480920 0.024567 0.000000
0.432471 0.149810 0.000000
0.208344 0.146382 0.000000
0.247387 0.082184 0.000000
0.448884 0.131826 0.000000
0.056178 0.106571 0.000000
0.150000 -0.075000 0.000000
0.150000 -0.050000 0.000000
0.150000 -0.025000 0.000000
0.150000 0.000000 0.000000
0.187452 0.176675 0.000000
0.976906 0.029811 0.000000
0.692122 0.071596 0.000000
0.400709 0.049245 0.000000
0.899663 0.025488 0.000000
0.258647 0.100575 0.000000
0.908754 0.070695 0.000000
0.441178 0.184416 0.000000
0.948216 0.046607 0.000000
0.532334 0.193317 0.000000
0.948204 0.024988 0.000000
0.697987 0.026255 0.000000
0.894490 0.075849 0.000000
0.823304 0.061422 0.000000
0.771120 0.032855 0.000000
0.597982 0.081666 0.000000
0.661895 0.019436 0.000000
0.605303 0.116646 0.000000
0.636582 0.088440 0.000000
0.346666 0.102930 0.000000
0.175000 -0.075000 0.000000
0.175000 -0.050000 0.000000
0.175000 -0.025000 0.000000
0.175000 0.000000 0.000000
0.145525 0.067751 0.000000
0.511708 0.161096 0.000000
0.897900 0.048805 0.000000
0.793740 0.058565 0.000000
0.996568 0.022894 0.000000
0.142560 0.088813 0.000000
0.874685 0.024018 0.000000
0.454600 0.041980 0.000000
0.477840 0.047113 0.000000
0.924746 0.024223 0.000000
0.544209 0.096190 0.000000
0.743154 0.077503 0.000000
0.464848 0.085099 0.000000
0.924157 0.054035 0.000000
0.981561 0.059373 0.000000
0.521311 0.049309 0.000000
1.002267 0.048233 0.000000
0.515791 0.100690 0.000000
0.120152 0.123070 0.000000
0.432047 0.089885 0.000000
0.200000 -0.075000 0.000000
0.200000 -0.050000 0.000000
0.200000 -0.025000 0.000000
0.200000 0.000000 0.000000
0.395138 0.120207 0.000000
0.171648 0.028402 0.000000
0.322141 0.123201 0.000000
0.828680 0.023952 0.000000
0.469608 0.110441 0.000000
0.386984 0.165305 0.000000
0.642912 0.040566 0.000000
0.958771 0.062417 0.000000
0.416587 0.150343 0.000000
0.104635 0.078161 0.000000
0.811041 0.036615 0.000000
0.643442 0.072723 0.000000
0.100085 0.022846 0.000000
0.457478 0.181543 0.000000
0.574139 0.024341 0.000000
0.239525 0.139719 0.000000
0.717913 0.044877 0.000000
0.431592 0.201944 0.000000
0.872173 0.057754 0.000000
0.678548 0.096527 0.000000
0.225000 -0.075000 0.000000
0.225000 -0.050000 0.000000
0.225000 -0.025000 0.000000
0.225000 0.000000 0.000000
0.442796 0.070447 0.000000
0.837985 0.053121 0.000000
0.541839 0.181712 0.000000
0.333212 0.152097 0.000000
0.057600 0.163607 0.000000
0.084142 0.131079 0.000000
0.494094 0.165151 0.000000
0.935750 0.083613 0.000000
0.596433 0.046606 0.000000
0.042829 0.093668 0.000000
0.579219 0.095394 0.000000
0.202658 0.162797 0.000000
0.442932 0.022633 0.000000
0.497977 0.094219 0.000000
0.193252 0.044540 0.000000
0.217603 0.117163 0.000000
0.559529 0.144965 0.000000
0.027595 0.022761 0.000000
0.295252 0.138814 0.000000
0.428001 0.046400 0.000000
0.250000 -0.075000 0.000000
0.250000 -0.050000 0.000000
0.250000 -0.025000 0.000000
0.250000 0.000000 0.000000
0.748748 0.025276 0.000000
0.424285 0.179609 0.000000
0.337035 0.165670 0.000000
0.419125 0.073112 0.000000
0.355798 0.024418 0.000000
0.377033 0.142867 0.000000
0.127347 0.157211 0.000000
0.386263 0.182253 0.000000
0.346098 0.134762 0.000000
0.491699 0.120174 0.000000
0.244067 0.176585 0.000000
0.021813 0.109101 0.000000
0.180702 0.135608 0.000000
0.603263 0.023562 0.000000
0.440203 0.110467 0.000000
0.476798 0.070255 0.000000
0.371746 0.115921 0.000000
0.760476 0.069058 0.000000
0.024493 0.047063 0.000000
0.504025 0.180153 0.000000
0.275000 -0.075000 0.000000
0.275000 -0.050000 0.000000
0.275000 -0.025000 0.000000
0.275000 0.000000 0.000000
0.300000 -0.075000 0.000000
0.300000 -0.050000 0.000000
0.300000 -0.025000 0.000000
0.300000 0.000000 0.000000
0.325000 -0.075000 0.000000
0.325000 -0.050000 0.000000
0.325000 -0.025000 0.000000
0.325000 0.000000 0.000000
0.350000 -0.075000 0.000000
0.350000 -0.050000 0.000000
0.350000 -0.025000 0.000000
0.350000 0.000000 0.000000
0.375000 -0.075000 0.000000
0.375000 -0.050000 0.000000
0.375000 -0.025000 0.000000
0.375000 0.000000 0.000000
0.400000 -0.075000 0.000000
0.400000 -0.050000 0.000000
0.400000 -0.025000 0.000000
0.400000 0.000000 0.000000
0.425000 -0.075000 0.000000
0.425000 -0.050000 0.000000
0.425000 -0.025000 0.000000
0.425000 0.000000 0.000000
0.450000 -0.075000 0.000000
0.450000 -0.050000 0.000000
0.450000 -0.025000 0.000000
0.450000 0.000000 0.000000
0.475000 -0.075000 0.000000
0.475000 -0.050000 0.000000
0.475000 -0.025000 0.000000
0.475000 0.000000 0.000000
0.500000 -0.075000 0.000000
0.500000 -0.050000 0.000000
0.500000 -0.025000 0.000000
0.500000 0.000000 0.000000
0.525000 -0.075000 0.000000
0.525000 -0.050000 0.000000
0.525000 -0.025000 0.000000
0.525000 0.000000 0.000000
0.550000 -0.075000 0.000000
0.550000 -0.050000 0.000000
0.550000 -0.025000 0.000000
0.550000 0.000000 0.000000
0.575000 -0.075000 0.000000
0.575000 -0.050000 0.000000
0.575000 -0.025000 0.000000
0.575000 0.000000 0.000000
0.600000 -0.075000 0.000000
0.600000 -0.050000 0.000000
0.600000 -0.025000 0.000000
0.600000 0.000000 0.000000
0.625000 -0.075000 0.000000
0.625000 -0.050000 0.000000
0.625000 -0.025000 0.000000
0.625000 0.000000 0.000000
0.650000 -0.075000 0.000000
0.650000 -0.050000 0.000000
0.650000 -0.025000 0.000000
0.650000 0.000000 0.000000
0.675000 -0.075000 0.000000
0.675000 -0.050000 0.000000
0.675000 -0.025000 0.000000
0.675000 0.000000 0.000000
0.700000 -0.075000 0.000000
0.700000 -0.050000 0.000000
0.700000 -0.025000 0.000000
0.700000 0.000000 0.000000
0.725000 -0.075000 0.000000
0.725000 -0.050000 0.000000
0.725000 -0.025000 0.000000
0.725000 0.000000 0.000000
0.750000 -0.075000 0.000000
0.750000 -0.050000 0.000000
0.750000 -0.025000 0.000000
0.750000 0.000000 0.000000
0.775000 -0.075000 0.000000
0.775000 -0.050000 0.000000
0.775000 -0.025000 0.000000
0.775000 0.000000 0.000000
0.800000 -0.075000 0.000000
0.800000 -0.050000 0.000000
0.800000 -0.025000 0.000000
0.800000 0.000000 0.000000
0.825000 -0.075000 0.000000
0.825000 -0.050000 0.000000
0.825000 -0.025000 0.000000
0.825000 0.000000 0.000000
0.850000 -0.075000 0.000000
0.850000 -0.050000 0.000000
0.850000 -0.025000 0.000000
0.850000 0.000000 0.000000
0.875000 -0.075000 0.000000
0.875000 -0.050000 0.000000
0.875000 -0.025000 0.000000
0.875000 0.000000 0.000000
0.900000 -0.075000 0.000000
0.900000 -0.050000 0.000000
0.900000 -0.025000 0.000000
0.900000 0.000000 0.000000
0.925000 -0.075000 0.000000
0.925000 -0.050000 0.000000
0.925000 -0.025000 0.000000
0.925000 0.000000 0.000000
0.950000 -0.075000 0.000000
0.950000 -0.050000 0.000000
0.950000 -0.025000 0.000000
0.950000 0.000000 0.000000
0.975000 -0.075000 0.000000
0.975000 -0.050000 0.000000
0.975000 -0.025000 0.000000
0.975000 0.000000 0.000000
1.000000 -0.075000 0.000000
1.000000 -0.050000 0.000000
1.000000 -0.025000 0.000000
1.000000 0.000000 0.000000
1.025000 -0.075000 0.000000
1.025000 -0.050000 0.000000
1.025000 -0.025000 0.000000
1.025000 0.000000 0.000000
1.025000 0.025000 0.000000
1.025000 0.050000 0.000000
1.025000 0.075000 0.000000
1.025000 0.100000 0.000000
1.025000 0.125000 0.000000
1.025000 0.150000 0.000000
1.025000 0.175000 0.000000
1.025000 0.200000 0.000000
1.025000 0.225000 0.000000
1.025000 0.250000 0.000000
1.025000 0.275000 0.000000
1.025000 0.300000 0.000000
1.025000 0.325000 0.000000
1.025000 0.350000 0.000000
1.025000 0.375000 0.000000
1.025000 0.400000 0.000000
1.025000 0.425000 0.000000
1.025000 0.450000 0.000000
1.025000 0.475000 0.000000
1.025000 0.500000 0.000000
1.025000 0.525000 0.000000
1.025000 0.550000 0.000000
1.025000 0.575000 0.000000
1.025000 0.600000 0.000000
1.050000 -0.075000 0.000000
1.050000 -0.050000 0.000000
1.050000 -0.025000 0.000000
1.050000 0.000000 0.000000
1.050000 0.025000 0.000000
1.050000 0.050000 0.000000
1.050000 0.075000 0.000000
1.050000 0.100000 0.000000
1.050000 0.125000 0.000000
1.050000 0.150000 0.000000
1.050000 0.175000 0.000000
1.050000 0.200000 0.000000
1.050000 0.225000 0.000000
1.050000 0.250000 0.000000
1.050000 0.275000 0.000000
1.050000 0.300000 0.000000
1.050000 0.325000 0.000000
1.050000 0.350000 0.000000
1.050000 0.375000 0.000000
1.050000 0.400000 0.000000
1.050000 0.425000 0.000000
1.050000 0.450000 0.000000
1.050000 0.475000 0.000000
1.050000 0.500000 0.000000
1.050000 0.525000 0.000000
1.050000 0.550000 0.000000
1.050000 0.575000 0.000000
1.050000 0.600000 0.000000
1.075000 -0.075000 0.000000
1.075000 -0.050000 0.000000
1.075000 -0.025000 0.000000
1.075000 0.000000 0.000000
1.075000 0.025000 0.000000
1.075000 0.050000 0.000000
1.075000 0.075000 0.000000
1.075000 0.100000 0.000000
1.075000 0.125000 0.000000
1.075000 0.150000 0.000000
1.075000 0.175000 0.000000
1.075000 0.200000 0.000000
1.075000 0.225000 0.000000
1.075000 0.250000 0.000000
1.075000 0.275000 0.000000
1.075000 0.300000 0.000000
1.075000 0.325000 0.000000
1.075000 0.350000 0.000000
1.075000 0.375000 0.000000
1.075000 0.400000 0.000000
1.075000 0.425000 0.000000
1.075000 0.450000 0.000000
1.075000 0.475000 0.000000
1.075000 0.500000 0.000000
1.075000 0.525000 0.000000
1.075000 0.550000 0.000000
1.075000 0.575000 0.000000
1.075000 0.600000 0.000000
1.100000 -0.075000 0.000000
1.100000 -0.050000 0.000000
1.100000 -0.025000 0.000000
1.100000 0.000000 0.000000
1.100000 0.025000 0.000000
1.100000 0.050000 0.000000
1.100000 0.075000 0.000000
1.100000 0.100000 0.000000
1.100000 0.125000 0.000000
1.100000 0.150000 0.000000
1.100000 0.175000 0.000000
1.100000 0.200000 0.000000
1.100000 0.225000 0.000000
1.100000 0.250000 0.000000
1.100000 0.275000 0.000000
1.100000 0.300000 0.000000
1.100000 0.325000 0.000000
1.100000 0.350000 0.000000
1.100000 0.375000 0.000000
1.100000 0.400000 0.000000
1.100000 0.425000 0.000000
1.100000 0.450000 0.000000
1.100000 0.475000 0.000000
1.100000 0.500000 0.000000
1.100000 0.525000 0.000000
1.100000 0.550000 0.000000
1.100000 0.575000 0.000000
1.100000 0.600000 0.000000
</DataArray>
</Points>
<PointData>
<DataArray NumberOfComponents='1' type='Int32' Name='ParticleType' format='ascii'>
3
3
3
3
3
3
3
3
3
3
3
3
3
3
3
3
3
3
3
3
3
3
3
3
3
3
2
2
3
3
3
3
3
3
3
3
3
3
3
3
3
3
3
3
3
3
3
3
3
3
3
3
3
3
2
2
3
3
2
2
2
2
2
2
2
2
2
2
2
2
2
2
2
2
2
2
2
2
2
2
2
2
2
2
3
3
2
2
2
2
2
2
2
2
2
2
2
2
2
2
2
2
2
2
2
2
2
2
2
2
2
2
3
3
2
2
0
0
0
0
0
0
0
0
0
0
0
0
0
0
0
0
0
0
0
0
3
3
2
2
0
0
0
0
0
0
0
0
0
0
0
0
0
0
0
0
0
0
0
0
3
3
2
2
0
0
0
0
0
0
0
0
0
0
0
0
0
0
0
0
0
0
0
0
3
3
2
2
0
0
0
0
0
0
0
0
0
0
0
0
0
0
0
0
0
0
0
0
3
3
2
2
0
0
0
0
0
0
0
0
0
0
0
0
0
0
0
0
0
0
0
0
3
3
2
2
0
0
0
0
0
0
0
0
0
0
0
0
0
0
0
0
0
0
0
0
3
3
2
2
0
0
0
0
0
0
0
0
0
0
0
0
0
0
0
0
0
0
0
0
3
3
2
2
0
0
0
0
0
0
0
0
0
0
0
0
0
0
0
0
0
0
0
0
3
3
2
2
0
0
0
0
0
0
0
0
0
0
0
0
0
0
0
0
0
0
0
0
3
3
2
2
0
0
0
0
0
0
0
0
0
0
0
0
0
0
0
0
0
0
0
0
3
3
2
2
3
3
2
2
3
3
2
2
3
3
2
2
3
3
2
2
3
3
2
2
3
3
2
2
3
3
2
2
3
3
2
2
3
3
2
2
3
3
2
2
3
3
2
2
3
3
2
2
3
3
2
2
3
3
2
2
3
3
2
2
3
3
2
2
3
3
2
2
3
3
2
2
3
3
2
2
3
3
2
2
3
3
2
2
3
3
2
2
3
3
2
2
3
3
2
2
3
3
2
2
3
3
2
2
3
3
2
2
3
3
2
2
3
3
2
2
3
3
2
2
2
2
2
2
2
2
2
2
2
2
2
2
2
2
2
2
2
2
2
2
2
2
2
2
3
3
2
2
2
2
2
2
2
2
2
2
2
2
2
2
2
2
2
2
2
2
2
2
2
2
2
2
3
3
3
3
3
3
3
3
3
3
3
3
3
3
3
3
3
3
3
3
3
3
3
3
3
3
2
2
3
3
3
3
3
3
3
3
3
3
3
3
3
3
3
3
3
3
3
3
3
3
3
3
3
3
2
2
</DataArray>
<DataArray NumberOfComponents='1' type='Float32' Name='Velocity' format='ascii'>
0.000000
0.000000
0.000000
0.000000
0.000000
0.000000
0.000000
0.000000
0.000000
0.000000
0.000000
0.000000
0.000000
0.000000
0.000000
0.000000
0.000000
0.000000
0.000000
0.000000
0.000000
0.000000
0.000000
0.000000
0.000000
0.000000
0.000000
0.000000
0.000000
0.000000
0.000000
0.000000
0.000000
0.000000
0.000000
0.000000
0.000000
0.000000
0.000000
0.000000
0.000000
0.000000
0.000000
0.000000
0.000000
0.000000
0.000000
0.000000
0.000000
0.000000
0.000000
0.000000
0.000000
0.000000
0.000000
0.000000
0.000000
0.000000
0.000000
0.000000
0.000000
0.000000
0.000000
0.000000
0.000000
0.000000
0.000000
0.000000
0.000000
0.000000
0.000000
0.000000
0.000000
0.000000
0.000000
0.000000
0.000000
0.000000
0.000000
0.000000
0.000000
0.000000
0.000000
0.000000
0.000000
0.000000
0.000000
0.000000
0.000000
0.000000
0.000000
0.000000
0.000000
0.000000
0.000000
0.000000
0.000000
0.000000
0.000000
0.000000
0.000000
0.000000
0.000000
0.000000
0.000000
0.000000
0.000000
0.000000
0.000000
0.000000
0.000000
0.000000
0.000000
0.000000
0.000000
0.000000
0.483839
0.418627
0.290200
0.470322
0.381155
0.357937
0.392856
0.405727
0.101975
0.417462
0.222808
0.325342
0.352464
0.503584
0.441155
0.279287
0.026845
0.298828
0.194038
0.300550
0.000000
0.000000
0.000000
0.000000
0.613486
0.552083
0.212399
0.364714
0.069849
0.904363
0.450623
0.279665
0.034921
0.336071
0.388952
0.224468
0.254975
0.668275
0.307780
0.036653
0.582780
0.471009
0.282822
0.064194
0.000000
0.000000
0.000000
0.000000
0.353608
0.454847
0.541687
0.348646
0.748910
0.451499
0.736423
0.173256
0.516290
0.633317
0.718029
0.115001
0.396980
0.082595
0.557071
0.211829
0.146425
0.263450
0.392807
0.163334
0.000000
0.000000
0.000000
0.000000
0.816930
0.399192
0.495684
0.205954
0.265684
0.014421
0.716843
0.414221
0.316552
0.533739
0.596640
0.658780
0.556732
0.638298
0.139309
0.501773
0.479047
0.467537
0.611872
0.424316
0.000000
0.000000
0.000000
0.000000
0.418981
0.588338
0.163655
0.162944
0.678546
0.627927
0.292628
0.768726
0.347253
0.226846
0.200102
0.908797
0.582541
0.642366
0.653957
0.590080
0.290094
0.464984
0.791753
0.159068
0.000000
0.000000
0.000000
0.000000
0.261679
0.118113
0.503937
0.794224
0.170098
0.371443
0.317470
0.325581
0.256826
0.619380
0.304519
0.180215
0.236462
0.082872
0.131699
0.356839
0.382590
0.777711
0.477741
0.462211
0.000000
0.000000
0.000000
0.000000
0.303688
0.044762
0.180694
0.410763
0.100839
0.474013
0.175425
0.757680
0.575300
0.124514
0.590333
0.425463
0.724509
0.171759
0.145617
0.873123
0.186158
0.694117
0.078151
0.944878
0.000000
0.000000
0.000000
0.000000
0.363741
0.235122
0.234743
0.269831
0.582254
0.547173
0.689436
0.107059
0.651552
0.345585
0.187021
0.286609
0.308285
0.553468
0.702744
0.278635
0.063730
0.631106
0.149406
0.106758
0.000000
0.000000
0.000000
0.000000
0.778882
0.054584
0.601736
0.514229
0.290591
0.253694
0.435277
0.349843
0.489355
0.354722
0.628344
0.302086
0.479602
0.819549
0.517939
0.230042
0.478847
0.170345
0.046586
0.641772
0.000000
0.000000
0.000000
0.000000
0.192350
0.479233
0.611019
0.537334
0.363801
0.690445
0.106530
0.525442
0.621582
0.670098
0.263558
0.326556
0.178744
0.792945
0.559798
0.782728
0.701370
0.752587
0.076052
0.499055
0.000000
0.000000
0.000000
0.000000
0.000000
0.000000
0.000000
0.000000
0.000000
0.000000
0.000000
0.000000
0.000000
0.000000
0.000000
0.000000
0.000000
0.000000
0.000000
0.000000
0.000000
0.000000
0.000000
0.000000
0.000000
0.000000
0.000000
0.000000
0.000000
0.000000
0.000000
0.000000
0.000000
0.000000
0.000000
0.000000
0.000000
0.000000
0.000000
0.000000
0.000000
0.000000
0.000000
0.000000
0.000000
0.000000
0.000000
0.000000
0.000000
0.000000
0.000000
0.000000
0.000000
0.000000
0.000000
0.000000
0.000000
0.000000
0.000000
0.000000
0.000000
0.000000
0.000000
0.000000
0.000000
0.000000
0.000000
0.000000
0.000000
0.000000
0.000000
0.000000
0.000000
0.000000
0.000000
0.000000
0.000000
0.000000
0.000000
0.000000
0.000000
0.000000
0.000000
0.000000
0.000000
0.000000
0.000000
0.000000
0.000000
0.000000
0.000000
0.000000
0.000000
0.000000
0.000000
0.000000
0.000000
0.000000
0.000000
0.000000
0.000000
0.000000
0.000000
0.000000
0.000000
0.000000
0.000000
0.000000
0.000000
0.000000
0.000000
0.000000
0.000000
0.000000
0.000000
0.000000
0.000000
0.000000
0.000000
0.000000
0.000000
0.000000
0.000000
0.000000
0.000000
0.000000
0.000000
0.000000
0.000000
0.000000
0.000000
0.000000
0.000000
0.000000
0.000000
0.000000
0.000000
0.000000
0.000000
0.000000
0.000000
0.000000
0.000000
0.000000
0.000000
0.000000
0.000000
0.000000
0.000000
0.000000
0.000000
0.000000
0.000000
0.000000
0.000000
0.000000
0.000000
0.000000
0.000000
0.000000
0.000000
0.000000
0.000000
0.000000
0.000000
0.000000
0.000000
0.000000
0.000000
0.000000
0.000000
0.000000
0.000000
0.000000
0.000000
0.000000
0.000000
0.000000
0.000000
0.000000
0.000000
0.000000
0.000000
0.000000
0.000000
0.000000
0.000000
0.000000
0.000000
0.000000
0.000000
0.000000
0.000000
0.000000
0.000000
0.000000
0.000000
0.000000
0.000000
0.000000
0.000000
0.000000
0.000000
0.000000
0.000000
0.000000
0.000000
0.000000
0.000000
0.000000
0.000000
0.000000
0.000000
0.000000
0.000000
0.000000
0.000000
0.000000
0.000000
0.000000
0.000000
0.000000
0.000000
0.000000
0.000000
0.000000
0.000000
0.000000
0.000000
0.000000
0.000000
0.000000
</DataArray>
<DataArray NumberOfComponents='1' type='Float32' Name='pressure' format='ascii'>
0.000000
0.000000
0.000000
0.000000
0.000000
0.000000
0.000000
0.000000
0.000000
0.000000
0.000000
0.000000
0.000000
0.000000
0.000000
0.000000
0.000000
0.000000
0.000000
0.000000
0.000000
0.000000
0.000000
0.000000
0.000000
0.000000
0.000000
0.000000
0.000000
0.000000
0.000000
0.000000
0.000000
0.000000
0.000000
0.000000
0.000000
0.000000
0.000000
0.000000
0.000000
0.000000
0.000000
0.000000
0.000000
0.000000
0.000000
0.000000
0.000000
0.000000
0.000000
0.000000
0.000000
0.000000
0.000000
0.000000
0.000000
0.000000
1836.967529
1617.444824
808.893433
1949.920410
2343.189453
2523.573242
2162.913818
318.731934
0.000000
0.000000
0.000000
0.000000
0.000000
0.000000
0.000000
0.000000
0.000000
0.000000
0.000000
0.000000
0.000000
0.000000
0.000000
0.000000
0.000000
0.000000
0.000000
0.000000
2115.033691
1647.813477
436.947235
2694.543213
2122.364258
1279.411621
1269.489258
0.000000
0.000000
0.000000
0.000000
0.000000
0.000000
0.000000
0.000000
0.000000
0.000000
0.000000
0.000000
0.000000
0.000000
0.000000
0.000000
0.000000
0.000000
0.000000
0.000000
0.000000
3216.336182
3068.004883
191.106064
0.000000
265.598694
317.645935
1159.360229
1129.042847
227.774323
14.946165
0.000000
0.000000
569.630920
912.300903
2087.156250
1411.461548
875.450439
1880.338745
182.818024
2127.340576
1767.344727
0.000000
0.000000
0.000000
3161.886230
1883.140747
0.000000
1784.025757
371.358734
2809.009521
1213.521851
1017.936279
0.000000
562.535706
1028.330078
0.000000
1911.088135
0.000000
0.000000
0.000000
486.895782
1316.798950
0.000000
0.000000
410.469086
1589.822144
0.000000
0.000000
3403.943604
2840.824463
850.303467
180.327759
0.000000
521.657104
0.000000
0.000000
0.000000
1342.098755
0.000000
0.000000
0.000000
1750.195679
0.000000
0.000000
243.932556
961.745850
661.586487
2819.188721
0.000000
1205.099976
0.000000
0.000000
3167.232666
1929.797119
0.000000
0.000000
0.000000
0.000000
250.286270
1131.923340
215.656845
0.000000
402.973938
0.000000
778.151550
0.000000
0.000000
0.000000
0.000000
0.000000
1004.710083
667.842590
0.000000
0.000000
0.000000
0.000000
2068.996826
0.000000
0.000000
244.883850
0.000000
611.470520
625.192505
0.000000
163.086395
333.368683
0.000000
0.000000
0.000000
0.000000
0.000000
0.000000
445.875977
0.000000
0.000000
134.078873
532.575684
1101.164673
0.000000
0.000000
3473.171143
2733.794434
0.000000
0.000000
120.005058
0.000000
0.000000
1603.750854
0.000000
0.000000
845.989685
0.000000
814.972351
103.830597
0.000000
0.000000
219.539658
139.470352
0.000000
0.000000
0.000000
0.000000
0.000000
0.000000
1403.835815
1693.203979
1481.003784
0.000000
1339.890991
0.000000
1252.468628
1031.109131
0.000000
0.000000
0.000000
433.982422
0.000000
0.000000
0.000000
0.000000
0.000000
469.657928
853.992981
720.771912
0.000000
0.000000
0.000000
0.000000
2408.922363
1863.124756
86.320137
2095.046875
0.000000
779.289429
1250.212891
0.000000
0.000000
0.000000
0.000000
2066.120850
0.000000
313.854767
2623.754639
0.000000
723.173950
0.000000
0.000000
0.000000
321.008240
0.000000
0.000000
0.000000
587.447571
277.547272
46.155365
65.711449
0.000000
0.000000
0.000000
0.000000
0.000000
0.000000
0.000000
145.635086
0.000000
0.000000
308.776276
0.000000
1660.145996
593.393860
0.000000
1096.787842
0.000000
0.000000
0.000000
0.000000
1550.776123
1926.667358
0.000000
0.000000
0.000000
0.000000
0.000000
0.000000
0.000000
56.293385
0.000000
453.827423
0.000000
0.000000
0.000000
0.000000
0.000000
0.000000
0.000000
0.000000
2571.042480
0.000000
0.000000
0.000000
59.713871
0.000000
0.000000
0.000000
1430.436646
1793.628296
0.000000
0.000000
2115.182373
2179.196289
0.000000
0.000000
1292.522339
0.000000
0.000000
0.000000
2017.551025
820.527649
0.000000
0.000000
1860.323730
428.421906
0.000000
0.000000
290.549866
51.281353
0.000000
0.000000
703.244507
0.000000
0.000000
0.000000
6.315079
0.000000
0.000000
0.000000
0.000000
0.000000
0.000000
0.000000
656.655029
1272.828491
0.000000
0.000000
639.517517
1665.271973
0.000000
0.000000
1130.837158
1541.931030
0.000000
0.000000
1142.630859
527.164368
0.000000
0.000000
82.772003
0.000000
0.000000
0.000000
2010.968994
754.900391
0.000000
0.000000
1779.407593
0.000000
0.000000
0.000000
18.303936
0.000000
0.000000
0.000000
483.164124
987.180786
0.000000
0.000000
322.989502
0.000000
0.000000
0.000000
947.558472
0.000000
0.000000
0.000000
1580.102173
1178.531372
0.000000
0.000000
1106.587524
720.043640
0.000000
0.000000
105.429802
362.624542
0.000000
0.000000
1062.958984
1408.335449
0.000000
0.000000
600.221680
1050.361206
0.000000
0.000000
812.065186
1125.123901
0.000000
0.000000
246.020950
0.000000
0.000000
0.000000
0.000000
0.000000
0.000000
0.000000
928.299255
1526.511719
0.000000
0.000000
125.800484
0.000000
0.000000
276.956451
0.000000
0.000000
0.000000
0.000000
0.000000
0.000000
0.000000
0.000000
0.000000
0.000000
0.000000
0.000000
0.000000
0.000000
0.000000
0.000000
0.000000
0.000000
0.000000
0.000000
0.000000
0.000000
0.000000
0.000000
0.000000
0.000000
0.000000
412.039154
0.000000
0.000000
0.000000
0.000000
0.000000
0.000000
0.000000
0.000000
0.000000
0.000000
0.000000
0.000000
0.000000
0.000000
0.000000
0.000000
0.000000
0.000000
0.000000
0.000000
0.000000
0.000000
0.000000
0.000000
0.000000
0.000000
0.000000
0.000000
0.000000
0.000000
0.000000
0.000000
0.000000
0.000000
0.000000
0.000000
0.000000
0.000000
0.000000
0.000000
0.000000
0.000000
0.000000
0.000000
0.000000
0.000000
0.000000
0.000000
0.000000
0.000000
0.000000
0.000000
0.000000
0.000000
0.000000
0.000000
0.000000
0.000000
0.000000
0.000000
0.000000
0.000000
0.000000
0.000000
0.000000
0.000000
0.000000
0.000000
0.000000
0.000000
0.000000
0.000000
0.000000
0.000000
0.000000
0.000000
0.000000
0.000000
</DataArray>
</PointData>
<Cells>
<DataArray type='Int32' Name='connectivity' format='ascii'>
0
1
2
3
4
5
6
7
8
9
10
11
12
13
14
15
16
17
18
19
20
21
22
23
24
25
26
27
28
29
30
31
32
33
34
35
36
37
38
39
40
41
42
43
44
45
46
47
48
49
50
51
52
53
54
55
56
57
58
59
60
61
62
63
64
65
66
67
68
69
70
71
72
73
74
75
76
77
78
79
80
81
82
83
84
85
86
87
88
89
90
91
92
93
94
95
96
97
98
99
100
101
102
103
104
105
106
107
108
109
110
111
112
113
114
115
116
117
118
119
120
121
122
123
124
125
126
127
128
129
130
131
132
133
134
135
136
137
138
139
140
141
142
143
144
145
146
147
148
149
150
151
152
153
154
155
156
157
158
159
160
161
162
163
164
165
166
167
168
169
170
171
172
173
174
175
176
177
178
179
180
181
182
183
184
185
186
187
188
189
190
191
192
193
194
195
196
197
198
199
200
201
202
203
204
205
206
207
208
209
210
211
212
213
214
215
216
217
218
219
220
221
222
223
224
225
226
227
228
229
230
231
232
233
234
235
236
237
238
239
240
241
242
243
244
245
246
247
248
249
250
251
252
253
254
255
256
257
258
259
260
261
262
263
264
265
266
267
268
269
270
271
272
273
274
275
276
277
278
279
280
281
282
283
284
285
286
287
288
289
290
291
292
293
294
295
296
297
298
299
300
301
302
303
304
305
306
307
308
309
310
311
312
313
314
315
316
317
318
319
320
321
322
323
324
325
326
327
328
329
330
331
332