<?xml version='1.0' encoding='UTF-8'?>
<VTKFile xmlns='VTK' byte_order='LittleEndian' version='0.1' type='UnstructuredGrid'>
<UnstructuredGrid>
<Piece NumberOfCells='584' NumberOfPoints='584'>
<Points>
<DataArray NumberOfComponents='3' type='Float32' Name='Position' format='ascii'>
-0.075000 -0.075000 0.000000
-0.075000 -0.050000 0.000000
-0.075000 -0.025000 0.000000
-0.075000 0.000000 0.000000
-0.075000 0.025000 0.000000
-0.075000 0.050000 0.000000
-0.075000 0.075000 0.000000
-0.075000 0.100000 0.000000
-0.075000 0.125000 0.000000
-0.075000 0.150000 0.000000
-0.075000 0.175000 0.000000
-0.075000 0.200000 0.000000
-0.075000 0.225000 0.000000
-0.075000 0.250000 0.000000
-0.075000 0.275000 0.000000
-0.075000 0.300000 0.000000
-0.075000 0.325000 0.000000
-0.075000 0.350000 0.000000
-0.075000 0.375000 0.000000
-0.075000 0.400000 0.000000
-0.075000 0.425000 0.000000
-0.075000 0.450000 0.000000
-0.075000 0.475000 0.000000
-0.075000 0.500000 0.000000
-0.075000 0.525000 0.000000
-0.075000 0.550000 0.000000
-0.075000 0.575000 0.000000
-0.075000 0.600000 0.000000
-0.050000 -0.075000 0.000000
-0.050000 -0.050000 0.000000
-0.050000 -0.025000 0.000000
-0.050000 0.000000 0.000000
-0.050000 0.025000 0.000000
-0.050000 0.050000 0.000000
-0.050000 0.075000 0.000000
-0.050000 0.100000 0.000000
-0.050000 0.125000 0.000000
-0.050000 0.150000 0.000000
-0.050000 0.175000 0.000000
-0.050000 0.200000 0.000000
-0.050000 0.225000 0.000000
-0.050000 0.250000 0.000000
-0.050000 0.275000 0.000000
-0.050000 0.300000 0.000000
-0.050000 0.325000 0.000000
-0.050000 0.350000 0.000000
-0.050000 0.375000 0.000000
-0.050000 0.400000 0.000000
-0.050000 0.425000 0.000000
-0.050000 0.450000 0.000000
-0.050000 0.475000 0.000000
-0.050000 0.500000 0.000000
-0.050000 0.525000 0.000000
-0.050000 0.550000 0.000000
-0.050000 0.575000 0.000000
-0.050000 0.600000 0.000000
-0.025000 -0.075000 0.000000
-0.025000 -0.050000 0.000000
-0.025000 -0.025000 0.000000
-0.025000 0.000000 0.000000
-0.025000 0.025000 0.000000
-0.025000 0.050000 0.000000
-0.025000 0.075000 0.000000
-0.025000 0.100000 0.000000
-0.025000 0.125000 0.000000
-0.025000 0.150000 0.000000
-0.025000 0.175000 0.000000
-0.025000 0.200000 0.000000
-0.025000 0.225000 0.000000
-0.025000 0.250000 0.000000
-0.025000 0.275000 0.000000
-0.025000 0.300000 0.000000
-0.025000 0.325000 0.000000
-0.025000 0.350000 0.000000
-0.025000 0.375000 0.000000
-0.025000 0.400000 0.000000
-0.025000 0.425000 0.000000
-0.025000 0.450000 0.000000
-0.025000 0.475000 0.000000
-0.025000 0.500000 0.000000
-0.025000 0.525000 0.000000
-0.025000 0.550000 0.000000
-0.025000 0.575000 0.000000
-0.025000 0.600000 0.000000
0.000000 -0.075000 0.000000
0.000000 -0.050000 0.000000
0.000000 -0.025000 0.000000
0.000000 0.000000 0.000000
0.000000 0.025000 0.000000
0.000000 0.050000 0.000000
0.000000 0.075000 0.000000
0.000000 0.100000 0.000000
0.000000 0.125000 0.000000
0.000000 0.150000 0.000000
0.000000 0.175000 0.000000
0.000000 0.200000 0.000000
0.000000 0.225000 0.000000
0.000000 0.250000 0.000000
0.000000 0.275000 0.000000
0.000000 0.300000 0.000000
0.000000 0.325000 0.000000
0.000000 0.350000 0.000000
0.000000 0.375000 0.000000
0.000000 0.400000 0.000000
0.000000 0.425000 0.000000
0.000000 0.450000 0.000000
0.000000 0.475000 0.000000
0.000000 0.500000 0.000000
0.000000 0.525000 0.000000
0.000000 0.550000 0.000000
0.000000 0.575000 0.000000
0.000000 0.600000 0.000000
0.025000 -0.075000 0.000000
0.025000 -0.050000 0.000000
0.025000 -0.025000 0.000000
0.025000 0.000000 0.000000
0.250983 0.025229 0.000000
0.230736 0.025257 0.000000
0.204801 0.032327 0.000000
0.157101 0.022236 0.000000
0.349210 0.027816 0.000000
0.068253 0.025004 0.000000
0.448859 0.024376 0.000000
0.285555 0.021673 0.000000
0.187082 0.024294 0.000000
0.152006 0.056649 0.000000
0.238471 0.055249 0.000000
0.168855 0.046343 0.000000
0.137460 0.032683 0.000000
0.038553 0.018624 0.000000
0.021198 0.041586 0.000000
0.031487 0.058929 0.000000
0.096568 0.023152 0.000000
0.073445 0.046036 0.000000
0.066984 0.060332 0.000000
0.113941 0.032584 0.000000
0.050000 -0.075000 0.000000
0.050000 -0.050000 0.000000
0.050000 -0.025000 0.000000
0.050000 0.000000 0.000000
0.309976 0.029146 0.000000
0.488753 0.072301 0.000000
0.610866 0.037957 0.000000
0.567154 0.053193 0.000000
0.588569 0.057531 0.000000
0.648012 0.051793 0.000000
0.510008 0.026472 0.000000
0.740647 0.086121 0.000000
0.372925 0.023133 0.000000
0.371521 0.064781 0.000000
0.533247 0.074659 0.000000
0.432553 0.061538 0.000000
0.047837 0.049939 0.000000
0.412191 0.016620 0.000000
0.222183 0.056450 0.000000
0.268051 0.041167 0.000000
0.170479 0.070400 0.000000
0.275690 0.065606 0.000000
0.109777 0.060631 0.000000
0.122143 0.057691 0.000000
0.075000 -0.075000 0.000000
0.075000 -0.050000 0.000000
0.075000 -0.025000 0.000000
0.075000 0.000000 0.000000
0.329291 0.028616 0.000000
0.529415 0.044172 0.000000
0.535714 0.021851 0.000000
0.476753 0.023871 0.000000
0.831333 0.072555 0.000000
0.828229 0.024170 0.000000
0.850702 0.036640 0.000000
0.653004 0.065436 0.000000
0.767313 0.044525 0.000000
0.761500 0.018341 0.000000
0.585890 0.026158 0.000000
0.453446 0.041690 0.000000
0.419448 0.055910 0.000000
0.339666 0.071647 0.000000
0.335604 0.059542 0.000000
0.289880 0.066678 0.000000
0.293379 0.049579 0.000000
0.479379 0.047607 0.000000
0.396621 0.066974 0.000000
0.199144 0.056826 0.000000
0.100000 -0.075000 0.000000
0.100000 -0.050000 0.000000
0.100000 -0.025000 0.000000
0.100000 0.000000 0.000000
0.617981 0.020140 0.000000
0.564098 0.027617 0.000000
0.790184 0.029852 0.000000
0.921333 0.022747 0.000000
0.398771 0.048534 0.000000
0.895984 0.025351 0.000000
0.938971 0.082690 0.000000
0.871486 0.102873 0.000000
0.870727 0.022093 0.000000
0.887859 0.049120 0.000000
0.654471 0.023299 0.000000
0.672352 0.028678 0.000000
0.790636 0.064072 0.000000
0.808744 0.029050 0.000000
0.698026 0.062918 0.000000
0.370898 0.044947 0.000000
0.722720 0.037157 0.000000
0.766860 0.070960 0.000000
0.546439 0.054459 0.000000
0.495710 0.047730 0.000000
0.125000 -0.075000 0.000000
0.125000 -0.050000 0.000000
0.125000 -0.025000 0.000000
0.125000 0.000000 0.000000
0.933120 0.055557 0.000000
0.897298 0.092213 0.000000
0.994083 0.156388 0.000000
0.964599 0.023829 0.000000
0.981723 0.209140 0.000000
0.695521 0.042828 0.000000
0.903266 0.161460 0.000000
0.957432 0.184736 0.000000
0.925565 0.122940 0.000000
0.908218 0.112821 0.000000
0.946395 0.134773 0.000000
0.892795 0.180817 0.000000
0.848010 0.131317 0.000000
0.738328 0.070465 0.000000
0.666538 0.059497 0.000000
0.748903 0.044899 0.000000
0.917143 0.142648 0.000000
0.576273 0.118168 0.000000
0.839386 0.086925 0.000000
0.607127 0.057063 0.000000
0.150000 -0.075000 0.000000
0.150000 -0.050000 0.000000
0.150000 -0.025000 0.000000
0.150000 0.000000 0.000000
0.872603 0.190295 0.000000
1.000121 0.103500 0.000000
0.968183 0.279251 0.000000
0.824590 0.249827 0.000000
1.001709 0.072324 0.000000
0.846299 0.283891 0.000000
0.977967 0.131074 0.000000
0.856137 0.148711 0.000000
1.002999 0.133059 0.000000
0.950381 0.210108 0.000000
0.978847 0.049361 0.000000
0.911962 0.052760 0.000000
0.943501 0.030222 0.000000
0.959653 0.056500 0.000000
0.918281 0.079068 0.000000
0.857705 0.087591 0.000000
0.835732 0.050790 0.000000
0.885859 0.071963 0.000000
0.864354 0.057058 0.000000
0.711481 0.020097 0.000000
0.175000 -0.075000 0.000000
0.175000 -0.050000 0.000000
0.175000 -0.025000 0.000000
0.175000 0.000000 0.000000
0.524724 0.127257 0.000000
1.002308 0.182078 0.000000
1.001355 0.249459 0.000000
1.002354 0.217249 0.000000
0.979396 0.182300 0.000000
0.887295 0.261531 0.000000
0.992939 0.022123 0.000000
0.914199 0.229225 0.000000
0.860818 0.214668 0.000000
1.001582 0.044240 0.000000
0.932019 0.253249 0.000000
0.973864 0.227754 0.000000
0.806040 0.104982 0.000000
0.972887 0.156320 0.000000
0.953936 0.114726 0.000000
0.880801 0.221768 0.000000
0.978050 0.108044 0.000000
0.924537 0.166215 0.000000
0.869158 0.135549 0.000000
0.926056 0.190767 0.000000
0.200000 -0.075000 0.000000
0.200000 -0.050000 0.000000
0.200000 -0.025000 0.000000
0.200000 0.000000 0.000000
0.817603 0.685799 0.000000
0.866003 0.235805 0.000000
0.875187 0.359554 0.000000
1.001682 0.274452 0.000000
0.888206 0.293273 0.000000
0.922167 0.305610 0.000000
0.959509 0.376551 0.000000
0.970354 0.320673 0.000000
0.926874 0.270020 0.000000
0.794767 0.173934 0.000000
1.003071 0.309860 0.000000
0.981883 0.080138 0.000000
0.738301 0.118473 0.000000
0.853886 0.199039 0.000000
0.925531 0.209034 0.000000
0.894333 0.241030 0.000000
0.967094 0.265734 0.000000
0.875081 0.169023 0.000000
0.947261 0.161924 0.000000
0.957427 0.086745 0.000000
0.225000 -0.075000 0.000000
0.225000 -0.050000 0.000000
0.225000 -0.025000 0.000000
0.225000 0.000000 0.000000
0.888883 0.354278 0.000000
0.953601 1.299096 0.000000
0.935389 0.293579 0.000000
0.750990 0.148058 0.000000
0.551744 0.138724 0.000000
0.765228 0.229835 0.000000
0.920043 0.343298 0.000000
0.997524 0.380451 0.000000
0.945288 0.325118 0.000000
0.860589 0.292900 0.000000
0.987131 0.324371 0.000000
0.816671 0.261256 0.000000
0.575826 0.079313 0.000000
0.801307 0.070839 0.000000
0.868777 0.275022 0.000000
0.904809 0.274731 0.000000
0.786216 0.144255 0.000000
0.824538 0.182952 0.000000
0.834239 0.171174 0.000000
0.825425 0.147224 0.000000
0.250000 -0.075000 0.000000
0.250000 -0.050000 0.000000
0.250000 -0.025000 0.000000
0.250000 0.000000 0.000000
0.957141 0.996995 0.000000
0.791418 0.921779 0.000000
0.783092 0.359921 0.000000
0.866947 0.409510 0.000000
0.650393 1.048112 0.000000
0.896421 0.499875 0.000000
0.673713 0.869126 0.000000
0.758771 0.698957 0.000000
0.608390 0.243572 0.000000
0.926530 0.321356 0.000000
0.729003 0.107293 0.000000
0.792379 0.236762 0.000000
0.856676 0.313506 0.000000
0.714192 0.060910 0.000000
0.811457 0.210708 0.000000
0.885412 0.119140 0.000000
0.652698 0.215957 0.000000
0.936695 0.229450 0.000000
0.805140 0.193224 0.000000
0.978412 0.246722 0.000000
0.275000 -0.075000 0.000000
0.275000 -0.050000 0.000000
0.275000 -0.025000 0.000000
0.275000 0.000000 0.000000
0.300000 -0.075000 0.000000
0.300000 -0.050000 0.000000
0.300000 -0.025000 0.000000
0.300000 0.000000 0.000000
0.325000 -0.075000 0.000000
0.325000 -0.050000 0.000000
0.325000 -0.025000 0.000000
0.325000 0.000000 0.000000
0.350000 -0.075000 0.000000
0.350000 -0.050000 0.000000
0.350000 -0.025000 0.000000
0.350000 0.000000 0.000000
0.375000 -0.075000 0.000000
0.375000 -0.050000 0.000000
0.375000 -0.025000 0.000000
0.375000 0.000000 0.000000
0.400000 -0.075000 0.000000
0.400000 -0.050000 0.000000
0.400000 -0.025000 0.000000
0.400000 0.000000 0.000000
0.425000 -0.075000 0.000000
0.425000 -0.050000 0.000000
0.425000 -0.025000 0.000000
0.425000 0.000000 0.000000
0.450000 -0.075000 0.000000
0.450000 -0.050000 0.000000
0.450000 -0.025000 0.000000
0.450000 0.000000 0.000000
0.475000 -0.075000 0.000000
0.475000 -0.050000 0.000000
0.475000 -0.025000 0.000000
0.475000 0.000000 0.000000
0.500000 -0.075000 0.000000
0.500000 -0.050000 0.000000
0.500000 -0.025000 0.000000
0.500000 0.000000 0.000000
0.525000 -0.075000 0.000000
0.525000 -0.050000 0.000000
0.525000 -0.025000 0.000000
0.525000 0.000000 0.000000
0.550000 -0.075000 0.000000
0.550000 -0.050000 0.000000
0.550000 -0.025000 0.000000
0.550000 0.000000 0.000000
0.575000 -0.075000 0.000000
0.575000 -0.050000 0.000000
0.575000 -0.025000 0.000000
0.575000 0.000000 0.000000
0.600000 -0.075000 0.000000
0.600000 -0.050000 0.000000
0.600000 -0.025000 0.000000
0.600000 0.000000 0.000000
0.625000 -0.075000 0.000000
0.625000 -0.050000 0.000000
0.625000 -0.025000 0.000000
0.625000 0.000000 0.000000
0.650000 -0.075000 0.000000
0.650000 -0.050000 0.000000
0.650000 -0.025000 0.000000
0.650000 0.000000 0.000000
0.675000 -0.075000 0.000000
0.675000 -0.050000 0.000000
0.675000 -0.025000 0.000000
0.675000 0.000000 0.000000
0.700000 -0.075000 0.000000
0.700000 -0.050000 0.000000
0.700000 -0.025000 0.000000
0.700000 0.000000 0.000000
0.725000 -0.075000 0.000000
0.725000 -0.050000 0.000000
0.725000 -0.025000 0.000000
0.725000 0.000000 0.000000
0.750000 -0.075000 0.000000
0.750000 -0.050000 0.000000
0.750000 -0.025000 0.000000
0.750000 0.000000 0.000000
0.775000 -0.075000 0.000000
0.775000 -0.050000 0.000000
0.775000 -0.025000 0.000000
0.775000 0.000000 0.000000
0.800000 -0.075000 0.000000
0.800000 -0.050000 0.000000
0.800000 -0.025000 0.000000
0.800000 0.000000 0.000000
0.825000 -0.075000 0.000000
0.825000 -0.050000 0.000000
0.825000 -0.025000 0.000000
0.825000 0.000000 0.000000
0.850000 -0.075000 0.000000
0.850000 -0.050000 0.000000
0.850000 -0.025000 0.000000
0.850000 0.000000 0.000000
0.875000 -0.075000 0.000000
0.875000 -0.050000 0.000000
0.875000 -0.025000 0.000000
0.875000 0.000000 0.000000
0.900000 -0.075000 0.000000
0.900000 -0.050000 0.000000
0.900000 -0.025000 0.000000
0.900000 0.000000 0.000000
0.925000 -0.075000 0.000000
0.925000 -0.050000 0.000000
0.925000 -0.025000 0.000000
0.925000 0.000000 0.000000
0.950000 -0.075000 0.000000
0.950000 -0.050000 0.000000
0.950000 -0.025000 0.000000
0.950000 0.000000 0.000000
0.975000 -0.075000 0.000000
0.975000 -0.050000 0.000000
0.975000 -0.025000 0.000000
0.975000 0.000000 0.000000
1.000000 -0.075000 0.000000
1.000000 -0.050000 0.000000
1.000000 -0.025000 0.000000
1.000000 0.000000 0.000000
1.025000 -0.075000 0.000000
1.025000 -0.050000 0.000000
1.025000 -0.025000 0.000000
1.025000 0.000000 0.000000
1.025000 0.025000 0.000000
1.025000 0.050000 0.000000
1.025000 0.075000 0.000000
1.025000 0.100000 0.000000
1.025000 0.125000 0.000000
1.025000 0.150000 0.000000
1.025000 0.175000 0.000000
1.025000 0.200000 0.000000
1.025000 0.225000 0.000000
1.025000 0.250000 0.000000
1.025000 0.275000 0.000000
1.025000 0.300000 0.000000
1.025000 0.325000 0.000000
1.025000 0.350000 0.000000
1.025000 0.375000 0.000000
1.025000 0.400000 0.000000
1.025000 0.425000 0.000000
1.025000 0.450000 0.000000
1.025000 0.475000 0.000000
1.025000 0.500000 0.000000
1.025000 0.525000 0.000000
1.025000 0.550000 0.000000
1.025000 0.575000 0.000000
1.025000 0.600000 0.000000
1.050000 -0.075000 0.000000
1.050000 -0.050000 0.000000
1.050000 -0.025000 0.000000
1.050000 0.000000 0.000000
1.050000 0.025000 0.000000
1.050000 0.050000 0.000000
1.050000 0.075000 0.000000
1.050000 0.100000 0.000000
1.050000 0.125000 0.000000
1.050000 0.150000 0.000000
1.050000 0.175000 0.000000
1.050000 0.200000 0.000000
1.050000 0.225000 0.000000
1.050000 0.250000 0.000000
1.050000 0.275000 0.000000
1.050000 0.300000 0.000000
1.050000 0.325000 0.000000
1.050000 0.350000 0.000000
1.050000 0.375000 0.000000
1.050000 0.400000 0.000000
1.050000 0.425000 0.000000
1.050000 0.450000 0.000000
1.050000 0.475000 0.000000
1.050000 0.500000 0.000000
1.050000 0.525000 0.000000
1.050000 0.550000 0.000000
1.050000 0.575000 0.000000
1.050000 0.600000 0.000000
1.075000 -0.075000 0.000000
1.075000 -0.050000 0.000000
1.075000 -0.025000 0.000000
1.075000 0.000000 0.000000
1.075000 0.025000 0.000000
1.075000 0.050000 0.000000
1.075000 0.075000 0.000000
1.075000 0.100000 0.000000
1.075000 0.125000 0.000000
1.075000 0.150000 0.000000
1.075000 0.175000 0.000000
1.075000 0.200000 0.000000
1.075000 0.225000 0.000000
1.075000 0.250000 0.000000
1.075000 0.275000 0.000000
1.075000 0.300000 0.000000
1.075000 0.325000 0.000000
1.075000 0.350000 0.000000
1.075000 0.375000 0.000000
1.075000 0.400000 0.000000
1.075000 0.425000 0.000000
1.075000 0.450000 0.000000
1.075000 0.475000 0.000000
1.075000 0.500000 0.000000
1.075000 0.525000 0.000000
1.075000 0.550000 0.000000
1.075000 0.575000 0.000000
1.075000 0.600000 0.000000
1.100000 -0.075000 0.000000
1.100000 -0.050000 0.000000
1.100000 -0.025000 0.000000
1.100000 0.000000 0.000000
1.100000 0.025000 0.000000
1.100000 0.050000 0.000000
1.100000 0.075000 0.000000
1.100000 0.100000 0.000000
1.100000 0.125000 0.000000
1.100000 0.150000 0.000000
1.100000 0.175000 0.000000
1.100000 0.200000 0.000000
1.100000 0.225000 0.000000
1.100000 0.250000 0.000000
1.100000 0.275000 0.000000
1.100000 0.300000 0.000000
1.100000 0.325000 0.000000
1.100000 0.350000 0.000000
1.100000 0.375000 0.000000
1.100000 0.400000 0.000000
1.100000 0.425000 0.000000
1.100000 0.450000 0.000000
1.100000 0.475000 0.000000
1.100000 0.500000 0.000000
1.100000 0.525000 0.000000
1.100000 0.550000 0.000000
1.100000 0.575000 0.000000
1.100000 0.600000 0.000000
</DataArray>
</Points>
<PointData>
<DataArray NumberOfComponents='1' type='Int32' Name='ParticleType' format='ascii'>
3
3
3
3
3
3
3
3
3
3
3
3
3
3
3
3
3
3
3
3
3
3
3
3
3
3
2
2
3
3
3
3
3
3
3
3
3
3
3
3
3
3
3
3
3
3
3
3
3
3
3
3
3
3
2
2
3
3
2
2
2
2
2
2
2
2
2
2
2
2
2
2
2
2
2
2
2
2
2
2
2
2
2
2
3
3
2
2
2
2
2
2
2
2
2
2
2
2
2
2
2
2
2
2
2
2
2
2
2
2
2
2
3
3
2
2
0
0
0
0
0
0
0
0
0
0
0
0
0
0
0
0
0
0
0
0
3
3
2
2
0
0
0
0
0
0
0
0
0
0
0
0
0
0
0
0
0
0
0
0
3
3
2
2
0
0
0
0
0
0
0
0
0
0
0
0
0
0
0
0
0
0
0
0
3
3
2
2
0
0
0
0
0
0
0
0
0
0
0
0
0
0
0
0
0
0
0
0
3
3
2
2
0
0
0
0
0
0
0
0
0
0
0
0
0
0
0
0
0
0
0
0
3
3
2
2
0
0
0
0
0
0
0
0
0
0
0
0
0
0
0
0
0
0
0
0
3
3
2
2
0
0
0
0
0
0
0
0
0
0
0
0
0
0
0
0
0
0
0
0
3
3
2
2
0
0
0
0
0
0
0
0
0
0
0
0
0
0
0
0
0
0
0
0
3
3
2
2
0
0
0
0
0
0
0
0
0
0
0
0
0
0
0
0
0
0
0
0
3
3
2
2
0
0
0
0
0
0
0
0
0
0
0
0
0
0
0
0
0
0
0
0
3
3
2
2
3
3
2
2
3
3
2
2
3
3
2
2
3
3
2
2
3
3
2
2
3
3
2
2
3
3
2
2
3
3
2
2
3
3
2
2
3
3
2
2
3
3
2
2
3
3
2
2
3
3
2
2
3
3
2
2
3
3
2
2
3
3
2
2
3
3
2
2
3
3
2
2
3
3
2
2
3
3
2
2
3
3
2
2
3
3
2
2
3
3
2
2
3
3
2
2
3
3
2
2
3
3
2
2
3
3
2
2
3
3
2
2
3
3
2
2
3
3
2
2
2
2
2
2
2
2
2
2
2
2
2
2
2
2
2
2
2
2
2
2
2
2
2
2
3
3
2
2
2
2
2
2
2
2
2
2
2
2
2
2
2
2
2
2
2
2
2
2
2
2
2
2
3
3
3
3
3
3
3
3
3
3
3
3
3
3
3
3
3
3
3
3
3
3
3
3
3
3
2
2
3
3
3
3
3
3
3
3
3
3
3
3
3
3
3
3
3
3
3
3
3
3
3
3
3
3
2
2
</DataArray>
<DataArray NumberOfComponents='1' type='Float32' Name='Velocity' format='ascii'>
0.000000
0.000000
0.000000
0.000000
0.000000
0.000000
0.000000
0.000000
0.000000
0.000000
0.000000
0.000000
0.000000
0.000000
0.000000
0.000000
0.000000
0.000000
0.000000
0.000000
0.000000
0.000000
0.000000
0.000000
0.000000
0.000000
0.000000
0.000000
0.000000
0.000000
0.000000
0.000000
0.000000
0.000000
0.000000
0.000000
0.000000
0.000000
0.000000
0.000000
0.000000
0.000000
0.000000
0.000000
0.000000
0.000000
0.000000
0.000000
0.000000
0.000000
0.000000
0.000000
0.000000
0.000000
0.000000
0.000000
0.000000
0.000000
0.000000
0.000000
0.000000
0.000000
0.000000
0.000000
0.000000
0.000000
0.000000
0.000000
0.000000
0.000000
0.000000
0.000000
0.000000
0.000000
0.000000
0.000000
0.000000
0.000000
0.000000
0.000000
0.000000
0.000000
0.000000
0.000000
0.000000
0.000000
0.000000
0.000000
0.000000
0.000000
0.000000
0.000000
0.000000
0.000000
0.000000
0.000000
0.000000
0.000000
0.000000
0.000000
0.000000
0.000000
0.000000
0.000000
0.000000
0.000000
0.000000
0.000000
0.000000
0.000000
0.000000
0.000000
0.000000
0.000000
0.000000
0.000000
0.189512
0.241075
0.098970
0.344531
0.165679
0.143279
0.488204
0.469011
0.385776
0.042612
0.452205
0.062366
0.286484
0.048088
0.118339
0.169358
0.090385
0.095809
0.166740
0.445541
0.000000
0.000000
0.000000
0.000000
0.351458
0.883441
0.800766
1.183964
1.146078
1.032186
1.020650
0.264290
0.303291
0.318089
0.767349
0.814124
0.137936
0.340114
0.290687
0.244408
0.222680
0.473147
0.264449
0.166147
0.000000
0.000000
0.000000
0.000000
0.339050
0.522381
0.361938
0.383460
1.085131
0.569144
0.391614
0.723906
0.566156
0.388413
1.027206
0.572060
0.543441
0.299854
0.808134
0.553584
0.176195
0.864015
0.596143
0.236055
0.000000
0.000000
0.000000
0.000000
0.964013
0.836594
0.460703
0.387115
0.477163
0.124498
0.385543
0.640807
0.448719
0.462832
1.361134
1.155029
0.828545
0.513357
0.903195
0.810430
0.730136
0.859852
0.498267
0.987367
0.000000
0.000000
0.000000
0.000000
0.248697
0.235959
0.481102
0.093940
0.364144
0.564706
0.804499
0.544126
0.653132
0.710342
0.323035
0.536044
0.966694
0.424916
0.701642
0.475493
0.479245
0.211993
0.892531
1.199323
0.000000
0.000000
0.000000
0.000000
0.994021
0.204174
0.122705
1.484261
0.307045
1.670655
0.398341
0.912586
0.267482
0.307571
0.224506
0.427837
0.398228
0.142672
0.987965
0.492157
0.415574
0.218802
0.443014
0.593443
0.000000
0.000000
0.000000
0.000000
2.360132
0.587781
0.484866
0.284191
0.306677
1.649488
0.234637
0.739624
1.125950
0.049568
0.560290
0.591854
1.240806
0.352841
0.300956
1.024082
0.592218
0.151422
0.259112
0.201249
0.000000
0.000000
0.000000
0.000000
1.338014
1.338147
1.391128
1.029241
1.213726
1.640860
1.182661
1.238269
0.330978
1.697143
1.161097
0.420474
0.976268
0.501074
0.545049
0.644834
0.320631
0.615772
0.556321
0.229535
0.000000
0.000000
0.000000
0.000000
1.282635
0.267376
1.270837
2.314114
2.181147
2.156503
1.676277
1.229225
1.234941
1.597383
1.319420
1.787581
1.004856
0.997150
1.435414
0.957545
1.781586
1.233518
1.052232
1.621462
0.000000
0.000000
0.000000
0.000000
0.997092
1.034301
1.897996
1.714564
1.076054
1.625493
1.231274
1.451881
2.291120
1.343105
1.381196
1.964479
1.457106
0.970847
1.356310
0.976480
1.905956
0.296241
1.536470
0.232090
0.000000
0.000000
0.000000
0.000000
0.000000
0.000000
0.000000
0.000000
0.000000
0.000000
0.000000
0.000000
0.000000
0.000000
0.000000
0.000000
0.000000
0.000000
0.000000
0.000000
0.000000
0.000000
0.000000
0.000000
0.000000
0.000000
0.000000
0.000000
0.000000
0.000000
0.000000
0.000000
0.000000
0.000000
0.000000
0.000000
0.000000
0.000000
0.000000
0.000000
0.000000
0.000000
0.000000
0.000000
0.000000
0.000000
0.000000
0.000000
0.000000
0.000000
0.000000
0.000000
0.000000
0.000000
0.000000
0.000000
0.000000
0.000000
0.000000
0.000000
0.000000
0.000000
0.000000
0.000000
0.000000
0.000000
0.000000
0.000000
0.000000
0.000000
0.000000
0.000000
0.000000
0.000000
0.000000
0.000000
0.000000
0.000000
0.000000
0.000000
0.000000
0.000000
0.000000
0.000000
0.000000
0.000000
0.000000
0.000000
0.000000
0.000000
0.000000
0.000000
0.000000
0.000000
0.000000
0.000000
0.000000
0.000000
0.000000
0.000000
0.000000
0.000000
0.000000
0.000000
0.000000
0.000000
0.000000
0.000000
0.000000
0.000000
0.000000
0.000000
0.000000
0.000000
0.000000
0.000000
0.000000
0.000000
0.000000
0.000000
0.000000
0.000000
0.000000
0.000000
0.000000
0.000000
0.000000
0.000000
0.000000
0.000000
0.000000
0.000000
0.000000
0.000000
0.000000
0.000000
0.000000
0.000000
0.000000
0.000000
0.000000
0.000000
0.000000
0.000000
0.000000
0.000000
0.000000
0.000000
0.000000
0.000000
0.000000
0.000000
0.000000
0.000000
0.000000
0.000000
0.000000
0.000000
0.000000
0.000000
0.000000
0.000000
0.000000
0.000000
0.000000
0.000000
0.000000
0.000000
0.000000
0.000000
0.000000
0.000000
0.000000
0.000000
0.000000
0.000000
0.000000
0.000000
0.000000
0.000000
0.000000
0.000000
0.000000
0.000000
0.000000
0.000000
0.000000
0.000000
0.000000
0.000000
0.000000
0.000000
0.000000
0.000000
0.000000
0.000000
0.000000
0.000000
0.000000
0.000000
0.000000
0.000000
0.000000
0.000000
0.000000
0.000000
0.000000
0.000000
0.000000
0.000000
0.000000
0.000000
0.000000
0.000000
0.000000
0.000000
0.000000
0.000000
0.000000
0.000000
0.000000
0.000000
0.000000
0.000000
0.000000
0.000000
0.000000
0.000000
0.000000
0.000000
0.000000
0.000000
</DataArray>
<DataArray NumberOfComponents='1' type='Float32' Name='pressure' format='ascii'>
0.000000
0.000000
0.000000
0.000000
0.000000
0.000000
0.000000
0.000000
0.000000
0.000000
0.000000
0.000000
0.000000
0.000000
0.000000
0.000000
0.000000
0.000000
0.000000
0.000000
0.000000
0.000000
0.000000
0.000000
0.000000
0.000000
0.000000
0.000000
0.000000
0.000000
0.000000
0.000000
0.000000
0.000000
0.000000
0.000000
0.000000
0.000000
0.000000
0.000000
0.000000
0.000000
0.000000
0.000000
0.000000
0.000000
0.000000
0.000000
0.000000
0.000000
0.000000
0.000000
0.000000
0.000000
0.000000
0.000000
0.000000
0.000000
472.092529
286.185760
522.252136
1004.962524
0.000000
0.000000
0.000000
0.000000
0.000000
0.000000
0.000000
0.000000
0.000000
0.000000
0.000000
0.000000
0.000000
0.000000
0.000000
0.000000
0.000000
0.000000
0.000000
0.000000
0.000000
0.000000
0.000000
0.000000
870.339355
0.000000
0.000000
0.000000
0.000000
0.000000
0.000000
0.000000
0.000000
0.000000
0.000000
0.000000
0.000000
0.000000
0.000000
0.000000
0.000000
0.000000
0.000000
0.000000
0.000000
0.000000
0.000000
0.000000
0.000000
0.000000
0.000000
0.000000
3023.510742
548.354004
1143.625977
1183.286255
454.825134
766.733398
1509.606812
0.000000
0.000000
2026.299561
561.488220
0.000000
0.000000
0.000000
546.668335
1200.487915
1058.636353
0.000000
0.000000
518.728699
0.000000
295.640686
0.000000
0.000000
3507.473145
2307.466309
0.000000
0.000000
0.000000
3119.198242
0.000000
0.000000
0.000000
0.000000
0.000000
0.000000
0.000000
0.000000
0.000000
0.000000
0.000000
0.000000
0.000000
0.000000
0.000000
0.000000
0.000000
0.000000
1203.103516
1151.215698
895.578430
0.000000
2193.705811
0.000000
31.996716
1691.550049
3803.132080
0.000000
2603.656738
0.000000
1756.328979
0.000000
0.000000
0.000000
0.000000
0.000000
1093.543457
0.000000
0.000000
0.000000
0.000000
0.000000
1191.086304
0.000000
1454.534546
0.000000
0.000000
3109.059814
0.000000
2653.963867
3169.967529
2015.760864
1221.171509
2979.993896
0.000000
0.000000
1672.879272
1980.755859
0.000000
0.000000
735.948914
0.000000
0.000000
0.000000
0.000000
0.000000
0.000000
0.000000
3630.629639
3629.474121
3605.744873
3785.097656
2084.062500
928.165039
825.169373
1985.438110
4136.211426
2878.537354
1846.146484
0.000000
0.000000
2214.887451
0.000000
170.464691
2791.944580
0.000000
0.000000
0.000000
0.000000
0.000000
1061.514282
0.000000
4753.177246
1775.399414
0.000000
0.000000
3763.045166
0.000000
3493.793701
2872.999268
3556.247559
894.314331
2856.979736
3781.872314
2174.820557
2126.551758
1429.806274
1881.949585
491.786133
1441.879883
2287.084473
1078.156250
0.000000
0.000000
702.303955
572.399292
0.000000
108.256813
1456.362305
0.000000
3480.675781
3655.102295
2541.512939
847.764587
3098.027100
4299.468262
0.000000
838.353943
0.000000
4196.573242
0.000000
2793.992188
4784.299316
5173.566406
893.000977
1246.166382
0.000000
0.000000
0.000000
0.000000
0.000000
0.000000
0.000000
0.000000
0.000000
3119.187500
0.000000
0.000000
1590.786255
0.000000
0.000000
2809.287354
0.000000
2580.733643
4469.562500
2549.689941
618.470886
0.000000
2576.329346
3258.336914
0.000000
0.000000
61.755211
0.000000
0.000000
0.000000
0.000000
0.000000
0.000000
0.000000
0.000000
0.000000
0.000000
525.956421
0.000000
0.000000
0.000000
0.000000
0.000000
768.911438
0.000000
1254.555786
301.710907
0.000000
0.000000
0.000000
463.502563
1033.215698
0.000000
0.000000
0.000000
0.000000
0.000000
0.000000
0.000000
0.000000
0.000000
0.000000
0.000000
0.000000
0.000000
1818.612793
0.000000
1548.984985
0.000000
1772.660034
0.000000
2553.442139
0.000000
0.000000
1241.393677
673.006409
0.000000
0.000000
531.000061
0.000000
0.000000
0.000000
0.000000
0.000000
0.000000
0.000000
0.000000
97.368240
0.000000
0.000000
1850.347168
548.680847
0.000000
0.000000
4530.322266
1106.934082
0.000000
0.000000
4516.640625
913.830017
0.000000
0.000000
1764.653076
1141.455078
0.000000
0.000000
1177.581665
68.217491
0.000000
0.000000
0.000000
0.000000
0.000000
0.000000
1360.777832
1121.895142
0.000000
0.000000
1160.327026
81.457993
0.000000
0.000000
469.397247
0.000000
0.000000
0.000000
2208.845459
2402.271484
0.000000
0.000000
3331.681152
3109.749512
0.000000
0.000000
1630.349731
0.000000
0.000000
0.000000
0.000000
0.000000
0.000000
0.000000
2095.948975
0.000000
0.000000
0.000000
2584.212158
0.000000
0.000000
0.000000
3837.265869
965.078491
0.000000
0.000000
3571.480469
2527.945068
0.000000
0.000000
762.850098
423.780243
0.000000
0.000000
1600.637573
1001.902527
0.000000
0.000000
1423.415405
0.000000
0.000000
0.000000
3744.116699
3231.073975
0.000000
0.000000
3650.295654
4394.528809
0.000000
0.000000
4803.064941
5420.770508
0.000000
0.000000
3711.205566
3550.445312
0.000000
0.000000
4330.089355
3713.742676
0.000000
0.000000
3900.345459
3318.689453
0.000000
0.000000
2439.395996
1159.497681
0.000000
3588.869385
4098.336426
2494.114746
3314.244141
0.000000
0.000000
0.000000
0.000000
1828.195557
0.000000
0.000000
0.000000
0.000000
0.000000
0.000000
0.000000
0.000000
0.000000
0.000000
0.000000
0.000000
0.000000
0.000000
0.000000
0.000000
2046.288330
1894.758667
1494.883423
3234.082031
3805.146484
3092.413574
3319.850342
1731.687256
1576.589722
938.413757
1313.762451
1381.942749
1329.996338
1146.875732
224.337280
0.000000
0.000000
0.000000
0.000000
0.000000
0.000000
0.000000
0.000000
0.000000
0.000000
0.000000
0.000000
0.000000
0.000000
0.000000
0.000000
0.000000
0.000000
0.000000
0.000000
0.000000
0.000000
0.000000
0.000000
0.000000
0.000000
0.000000
0.000000
0.000000
0.000000
0.000000
0.000000
0.000000
0.000000
0.000000
0.000000
0.000000
0.000000
0.000000
0.000000
0.000000
0.000000
0.000000
0.000000
0.000000
0.000000
0.000000
0.000000
0.000000
0.000000
0.000000
0.000000
0.000000
0.000000
0.000000
0.000000
0.000000
0.000000
0.000000
0.000000
0.000000
0.000000
0.000000
0.000000
0.000000
0.000000
0.000000
</DataArray>
</PointData>
<Cells>
<DataArray type='Int32' Name='connectivity' format='ascii'>
0
1
2
3
4
5
6
7
8
9
10
11
12
13
14
15
16
17
18
19
20
21
22
23
24
25
26
27
28
29
30
31
32
33
34
35
36
37
38
39
40
41
42
43
44
45
46
47
48
49
50
51
52
53
54
55
56
57
58
59
60
61
62
63
64
65
66
67
68
69
70
71
72
73
74
75
76
77
78
79
80
81
82
83
84
85
86
87
88
89
90
91
92
93
94
95
96
97
98
99
100
101
102
103
104
105
106
107
108
109
110
111
112
113
114
115
116
117
118
119
120
121
122
123
124
125
126
127
128
129
130
131
132
133
134
135
136
137
138
139
140
141
142
143
144
145
146
147
148
149
150
151
152
153
154
155
156
157
158
159
160
161
162
163
164
165
166
167
168
169
170
171
172
173
174
175
176
177
178
179
180
181
182
183
184
185
186
187
188
189
190
191
192
193
194
195
196
197
198
199
200
201
202
203
204
205
206
207
208
209
210
211
212
213
214
215
216
217
218
219
220
221
222
223
224
225
226
227
228
229
230
231
232
233
234
235
236
237
238
239
240
241
242
243
244
245
246
247
248
249
250
251
252
253
254
255
256
257
258
259
260
261
262
263
264
265
266
267
268
269
270
271
272
273
274
275
276
277
278
279
280
281
282
283
284
285
286
287
288
289
290
291
292
293
294
295
296
297
298
299
300
301
302
303
304
305
306
307
308
309
310
311
312
313