<?xml version='1.0' encoding='UTF-8'?>
<VTKFile xmlns='VTK' byte_order='LittleEndian' version='0.1' type='UnstructuredGrid'>
<UnstructuredGrid>
<Piece NumberOfCells='584' NumberOfPoints='584'>
<Points>
<DataArray NumberOfComponents='3' type='Float32' Name='Position' format='ascii'>
-0.075000 -0.075000 0.000000
-0.075000 -0.050000 0.000000
-0.075000 -0.025000 0.000000
-0.075000 0.000000 0.000000
-0.075000 0.025000 0.000000
-0.075000 0.050000 0.000000
-0.075000 0.075000 0.000000
-0.075000 0.100000 0.000000
-0.075000 0.125000 0.000000
-0.075000 0.150000 0.000000
-0.075000 0.175000 0.000000
-0.075000 0.200000 0.000000
-0.075000 0.225000 0.000000
-0.075000 0.250000 0.000000
-0.075000 0.275000 0.000000
-0.075000 0.300000 0.000000
-0.075000 0.325000 0.000000
-0.075000 0.350000 0.000000
-0.075000 0.375000 0.000000
-0.075000 0.400000 0.000000
-0.075000 0.425000 0.000000
-0.075000 0.450000 0.000000
-0.075000 0.475000 0.000000
-0.075000 0.500000 0.000000
-0.075000 0.525000 0.000000
-0.075000 0.550000 0.000000
-0.075000 0.575000 0.000000
-0.075000 0.600000 0.000000
-0.050000 -0.075000 0.000000
-0.050000 -0.050000 0.000000
-0.050000 -0.025000 0.000000
-0.050000 0.000000 0.000000
-0.050000 0.025000 0.000000
-0.050000 0.050000 0.000000
-0.050000 0.075000 0.000000
-0.050000 0.100000 0.000000
-0.050000 0.125000 0.000000
-0.050000 0.150000 0.000000
-0.050000 0.175000 0.000000
-0.050000 0.200000 0.000000
-0.050000 0.225000 0.000000
-0.050000 0.250000 0.000000
-0.050000 0.275000 0.000000
-0.050000 0.300000 0.000000
-0.050000 0.325000 0.000000
-0.050000 0.350000 0.000000
-0.050000 0.375000 0.000000
-0.050000 0.400000 0.000000
-0.050000 0.425000 0.000000
-0.050000 0.450000 0.000000
-0.050000 0.475000 0.000000
-0.050000 0.500000 0.000000
-0.050000 0.525000 0.000000
-0.050000 0.550000 0.000000
-0.050000 0.575000 0.000000
-0.050000 0.600000 0.000000
-0.025000 -0.075000 0.000000
-0.025000 -0.050000 0.000000
-0.025000 -0.025000 0.000000
-0.025000 0.000000 0.000000
-0.025000 0.025000 0.000000
-0.025000 0.050000 0.000000
-0.025000 0.075000 0.000000
-0.025000 0.100000 0.000000
-0.025000 0.125000 0.000000
-0.025000 0.150000 0.000000
-0.025000 0.175000 0.000000
-0.025000 0.200000 0.000000
-0.025000 0.225000 0.000000
-0.025000 0.250000 0.000000
-0.025000 0.275000 0.000000
-0.025000 0.300000 0.000000
-0.025000 0.325000 0.000000
-0.025000 0.350000 0.000000
-0.025000 0.375000 0.000000
-0.025000 0.400000 0.000000
-0.025000 0.425000 0.000000
-0.025000 0.450000 0.000000
-0.025000 0.475000 0.000000
-0.025000 0.500000 0.000000
-0.025000 0.525000 0.000000
-0.025000 0.550000 0.000000
-0.025000 0.575000 0.000000
-0.025000 0.600000 0.000000
0.000000 -0.075000 0.000000
0.000000 -0.050000 0.000000
0.000000 -0.025000 0.000000
0.000000 0.000000 0.000000
0.000000 0.025000 0.000000
0.000000 0.050000 0.000000
0.000000 0.075000 0.000000
0.000000 0.100000 0.000000
0.000000 0.125000 0.000000
0.000000 0.150000 0.000000
0.000000 0.175000 0.000000
0.000000 0.200000 0.000000
0.000000 0.225000 0.000000
0.000000 0.250000 0.000000
0.000000 0.275000 0.000000
0.000000 0.300000 0.000000
0.000000 0.325000 0.000000
0.000000 0.350000 0.000000
0.000000 0.375000 0.000000
0.000000 0.400000 0.000000
0.000000 0.425000 0.000000
0.000000 0.450000 0.000000
0.000000 0.475000 0.000000
0.000000 0.500000 0.000000
0.000000 0.525000 0.000000
0.000000 0.550000 0.000000
0.000000 0.575000 0.000000
0.000000 0.600000 0.000000
0.025000 -0.075000 0.000000
0.025000 -0.050000 0.000000
0.025000 -0.025000 0.000000
0.025000 0.000000 0.000000
0.029809 0.022333 0.000000
0.024954 0.042439 0.000000
0.032212 0.062413 0.000000
0.023692 0.082356 0.000000
0.032164 0.102685 0.000000
0.024601 0.122744 0.000000
0.028654 0.144406 0.000000
0.025127 0.164944 0.000000
0.028290 0.187256 0.000000
0.026171 0.208465 0.000000
0.026881 0.230670 0.000000
0.026010 0.252776 0.000000
0.025782 0.275244 0.000000
0.025816 0.297996 0.000000
0.025456 0.321039 0.000000
0.025662 0.344250 0.000000
0.024905 0.367818 0.000000
0.025887 0.391684 0.000000
0.024870 0.415835 0.000000
0.024772 0.439392 0.000000
0.050000 -0.075000 0.000000
0.050000 -0.050000 0.000000
0.050000 -0.025000 0.000000
0.050000 0.000000 0.000000
0.064446 0.021298 0.000000
0.061932 0.040965 0.000000
0.061870 0.060804 0.000000
0.062076 0.080882 0.000000
0.060652 0.101364 0.000000
0.060631 0.121707 0.000000
0.059897 0.142323 0.000000
0.059334 0.162761 0.000000
0.058292 0.183713 0.000000
0.057622 0.205084 0.000000
0.056806 0.226811 0.000000
0.056196 0.248694 0.000000
0.055549 0.270985 0.000000
0.054764 0.293492 0.000000
0.054133 0.316295 0.000000
0.053233 0.339739 0.000000
0.052871 0.363081 0.000000
0.051762 0.386796 0.000000
0.051194 0.411783 0.000000
0.050598 0.435161 0.000000
0.075000 -0.075000 0.000000
0.075000 -0.050000 0.000000
0.075000 -0.025000 0.000000
0.075000 0.000000 0.000000
0.100087 0.023484 0.000000
0.094513 0.040586 0.000000
0.094638 0.061885 0.000000
0.094065 0.080834 0.000000
0.093243 0.101201 0.000000
0.091360 0.121440 0.000000
0.090950 0.142180 0.000000
0.088893 0.163337 0.000000
0.088233 0.184888 0.000000
0.086683 0.206356 0.000000
0.085708 0.228262 0.000000
0.084244 0.250355 0.000000
0.083078 0.272795 0.000000
0.081800 0.295517 0.000000
0.080615 0.318561 0.000000
0.079562 0.341724 0.000000
0.078350 0.365414 0.000000
0.077514 0.388969 0.000000
0.076362 0.413577 0.000000
0.075170 0.436851 0.000000
0.100000 -0.075000 0.000000
0.100000 -0.050000 0.000000
0.100000 -0.025000 0.000000
0.100000 0.000000 0.000000
0.134994 0.021575 0.000000
0.130656 0.040937 0.000000
0.129789 0.060732 0.000000
0.128831 0.079571 0.000000
0.126958 0.099990 0.000000
0.125224 0.119372 0.000000
0.123353 0.140088 0.000000
0.121559 0.160252 0.000000
0.119456 0.181209 0.000000
0.117669 0.202262 0.000000
0.115682 0.224022 0.000000
0.114038 0.246026 0.000000
0.112175 0.268272 0.000000
0.110675 0.291084 0.000000
0.108818 0.313972 0.000000
0.107236 0.337169 0.000000
0.105760 0.360968 0.000000
0.103916 0.384736 0.000000
0.102725 0.409461 0.000000
0.100792 0.433293 0.000000
0.125000 -0.075000 0.000000
0.125000 -0.050000 0.000000
0.125000 -0.025000 0.000000
0.125000 0.000000 0.000000
0.172145 0.021981 0.000000
0.163005 0.039038 0.000000
0.165964 0.057832 0.000000
0.161858 0.077917 0.000000
0.160465 0.096827 0.000000
0.157757 0.117561 0.000000
0.155443 0.138062 0.000000
0.152747 0.158926 0.000000
0.150263 0.180431 0.000000
0.147658 0.201908 0.000000
0.145196 0.223905 0.000000
0.142596 0.245858 0.000000
0.140221 0.268494 0.000000
0.137784 0.291167 0.000000
0.135948 0.314361 0.000000
0.133206 0.337691 0.000000
0.131955 0.361547 0.000000
0.129257 0.385180 0.000000
0.127909 0.409850 0.000000
0.125487 0.433331 0.000000
0.150000 -0.075000 0.000000
0.150000 -0.050000 0.000000
0.150000 -0.025000 0.000000
0.150000 0.000000 0.000000
0.212930 0.022356 0.000000
0.200370 0.037170 0.000000
0.201662 0.057650 0.000000
0.198497 0.075612 0.000000
0.194583 0.094916 0.000000
0.191987 0.114900 0.000000
0.188335 0.133802 0.000000
0.185238 0.154898 0.000000
0.181854 0.175112 0.000000
0.178551 0.196456 0.000000
0.175354 0.218125 0.000000
0.172291 0.240253 0.000000
0.169287 0.263009 0.000000
0.166463 0.285884 0.000000
0.163832 0.309195 0.000000
0.160922 0.332704 0.000000
0.158751 0.356682 0.000000
0.155759 0.380547 0.000000
0.154241 0.405477 0.000000
0.151047 0.429730 0.000000
0.175000 -0.075000 0.000000
0.175000 -0.050000 0.000000
0.175000 -0.025000 0.000000
0.175000 0.000000 0.000000
0.254492 0.022477 0.000000
0.235874 0.035160 0.000000
0.240522 0.054773 0.000000
0.233515 0.071720 0.000000
0.230975 0.091440 0.000000
0.226959 0.110635 0.000000
0.222067 0.130887 0.000000
0.218433 0.151946 0.000000
0.213203 0.172487 0.000000
0.209554 0.194606 0.000000
0.204862 0.216250 0.000000
0.201061 0.239067 0.000000
0.197319 0.261354 0.000000
0.193618 0.284680 0.000000
0.190570 0.308007 0.000000
0.187091 0.331660 0.000000
0.184610 0.355728 0.000000
0.181289 0.379826 0.000000
0.179219 0.404640 0.000000
0.175795 0.428235 0.000000
0.200000 -0.075000 0.000000
0.200000 -0.050000 0.000000
0.200000 -0.025000 0.000000
0.200000 0.000000 0.000000
0.305885 0.023579 0.000000
0.274632 0.028163 0.000000
0.282690 0.050267 0.000000
0.271702 0.066765 0.000000
0.267714 0.084772 0.000000
0.261878 0.104076 0.000000
0.256294 0.123242 0.000000
0.250919 0.143423 0.000000
0.245440 0.164411 0.000000
0.240237 0.186350 0.000000
0.234972 0.208576 0.000000
0.230454 0.231285 0.000000
0.225960 0.254908 0.000000
0.221846 0.278138 0.000000
0.218328 0.302252 0.000000
0.214332 0.326107 0.000000
0.211517 0.350519 0.000000
0.207422 0.374646 0.000000
0.205398 0.399742 0.000000
0.201153 0.424447 0.000000
0.225000 -0.075000 0.000000
0.225000 -0.050000 0.000000
0.225000 -0.025000 0.000000
0.225000 0.000000 0.000000
0.336729 0.020459 0.000000
0.342155 0.044003 0.000000
0.304721 0.042265 0.000000
0.320337 0.063555 0.000000
0.303900 0.078343 0.000000
0.301856 0.098331 0.000000
0.291215 0.117884 0.000000
0.284982 0.138657 0.000000
0.276601 0.160659 0.000000
0.270410 0.182565 0.000000
0.263786 0.205454 0.000000
0.258301 0.228608 0.000000
0.253435 0.252028 0.000000
0.248515 0.275840 0.000000
0.244638 0.299770 0.000000
0.240130 0.324108 0.000000
0.237067 0.348321 0.000000
0.232773 0.373136 0.000000
0.230694 0.398246 0.000000
0.226081 0.421919 0.000000
0.250000 -0.075000 0.000000
0.250000 -0.050000 0.000000
0.250000 -0.025000 0.000000
0.250000 0.000000 0.000000
0.423400 0.022245 0.000000
0.386441 0.020175 0.000000
0.371358 0.034505 0.000000
0.366814 0.049235 0.000000
0.352000 0.063269 0.000000
0.337507 0.079914 0.000000
0.327219 0.102470 0.000000
0.316698 0.124409 0.000000
0.308177 0.148400 0.000000
0.300050 0.171731 0.000000
0.293001 0.195804 0.000000
0.286588 0.219991 0.000000
0.281008 0.244325 0.000000
0.275638 0.268874 0.000000
0.271278 0.293471 0.000000
0.266656 0.318250 0.000000
0.263045 0.342997 0.000000
0.258840 0.367913 0.000000
0.255482 0.392869 0.000000
0.251026 0.417575 0.000000
0.275000 -0.075000 0.000000
0.275000 -0.050000 0.000000
0.275000 -0.025000 0.000000
0.275000 0.000000 0.000000
0.300000 -0.075000 0.000000
0.300000 -0.050000 0.000000
0.300000 -0.025000 0.000000
0.300000 0.000000 0.000000
0.325000 -0.075000 0.000000
0.325000 -0.050000 0.000000
0.325000 -0.025000 0.000000
0.325000 0.000000 0.000000
0.350000 -0.075000 0.000000
0.350000 -0.050000 0.000000
0.350000 -0.025000 0.000000
0.350000 0.000000 0.000000
0.375000 -0.075000 0.000000
0.375000 -0.050000 0.000000
0.375000 -0.025000 0.000000
0.375000 0.000000 0.000000
0.400000 -0.075000 0.000000
0.400000 -0.050000 0.000000
0.400000 -0.025000 0.000000
0.400000 0.000000 0.000000
0.425000 -0.075000 0.000000
0.425000 -0.050000 0.000000
0.425000 -0.025000 0.000000
0.425000 0.000000 0.000000
0.450000 -0.075000 0.000000
0.450000 -0.050000 0.000000
0.450000 -0.025000 0.000000
0.450000 0.000000 0.000000
0.475000 -0.075000 0.000000
0.475000 -0.050000 0.000000
0.475000 -0.025000 0.000000
0.475000 0.000000 0.000000
0.500000 -0.075000 0.000000
0.500000 -0.050000 0.000000
0.500000 -0.025000 0.000000
0.500000 0.000000 0.000000
0.525000 -0.075000 0.000000
0.525000 -0.050000 0.000000
0.525000 -0.025000 0.000000
0.525000 0.000000 0.000000
0.550000 -0.075000 0.000000
0.550000 -0.050000 0.000000
0.550000 -0.025000 0.000000
0.550000 0.000000 0.000000
0.575000 -0.075000 0.000000
0.575000 -0.050000 0.000000
0.575000 -0.025000 0.000000
0.575000 0.000000 0.000000
0.600000 -0.075000 0.000000
0.600000 -0.050000 0.000000
0.600000 -0.025000 0.000000
0.600000 0.000000 0.000000
0.625000 -0.075000 0.000000
0.625000 -0.050000 0.000000
0.625000 -0.025000 0.000000
0.625000 0.000000 0.000000
0.650000 -0.075000 0.000000
0.650000 -0.050000 0.000000
0.650000 -0.025000 0.000000
0.650000 0.000000 0.000000
0.675000 -0.075000 0.000000
0.675000 -0.050000 0.000000
0.675000 -0.025000 0.000000
0.675000 0.000000 0.000000
0.700000 -0.075000 0.000000
0.700000 -0.050000 0.000000
0.700000 -0.025000 0.000000
0.700000 0.000000 0.000000
0.725000 -0.075000 0.000000
0.725000 -0.050000 0.000000
0.725000 -0.025000 0.000000
0.725000 0.000000 0.000000
0.750000 -0.075000 0.000000
0.750000 -0.050000 0.000000
0.750000 -0.025000 0.000000
0.750000 0.000000 0.000000
0.775000 -0.075000 0.000000
0.775000 -0.050000 0.000000
0.775000 -0.025000 0.000000
0.775000 0.000000 0.000000
0.800000 -0.075000 0.000000
0.800000 -0.050000 0.000000
0.800000 -0.025000 0.000000
0.800000 0.000000 0.000000
0.825000 -0.075000 0.000000
0.825000 -0.050000 0.000000
0.825000 -0.025000 0.000000
0.825000 0.000000 0.000000
0.850000 -0.075000 0.000000
0.850000 -0.050000 0.000000
0.850000 -0.025000 0.000000
0.850000 0.000000 0.000000
0.875000 -0.075000 0.000000
0.875000 -0.050000 0.000000
0.875000 -0.025000 0.000000
0.875000 0.000000 0.000000
0.900000 -0.075000 0.000000
0.900000 -0.050000 0.000000
0.900000 -0.025000 0.000000
0.900000 0.000000 0.000000
0.925000 -0.075000 0.000000
0.925000 -0.050000 0.000000
0.925000 -0.025000 0.000000
0.925000 0.000000 0.000000
0.950000 -0.075000 0.000000
0.950000 -0.050000 0.000000
0.950000 -0.025000 0.000000
0.950000 0.000000 0.000000
0.975000 -0.075000 0.000000
0.975000 -0.050000 0.000000
0.975000 -0.025000 0.000000
0.975000 0.000000 0.000000
1.000000 -0.075000 0.000000
1.000000 -0.050000 0.000000
1.000000 -0.025000 0.000000
1.000000 0.000000 0.000000
1.025000 -0.075000 0.000000
1.025000 -0.050000 0.000000
1.025000 -0.025000 0.000000
1.025000 0.000000 0.000000
1.025000 0.025000 0.000000
1.025000 0.050000 0.000000
1.025000 0.075000 0.000000
1.025000 0.100000 0.000000
1.025000 0.125000 0.000000
1.025000 0.150000 0.000000
1.025000 0.175000 0.000000
1.025000 0.200000 0.000000
1.025000 0.225000 0.000000
1.025000 0.250000 0.000000
1.025000 0.275000 0.000000
1.025000 0.300000 0.000000
1.025000 0.325000 0.000000
1.025000 0.350000 0.000000
1.025000 0.375000 0.000000
1.025000 0.400000 0.000000
1.025000 0.425000 0.000000
1.025000 0.450000 0.000000
1.025000 0.475000 0.000000
1.025000 0.500000 0.000000
1.025000 0.525000 0.000000
1.025000 0.550000 0.000000
1.025000 0.575000 0.000000
1.025000 0.600000 0.000000
1.050000 -0.075000 0.000000
1.050000 -0.050000 0.000000
1.050000 -0.025000 0.000000
1.050000 0.000000 0.000000
1.050000 0.025000 0.000000
1.050000 0.050000 0.000000
1.050000 0.075000 0.000000
1.050000 0.100000 0.000000
1.050000 0.125000 0.000000
1.050000 0.150000 0.000000
1.050000 0.175000 0.000000
1.050000 0.200000 0.000000
1.050000 0.225000 0.000000
1.050000 0.250000 0.000000
1.050000 0.275000 0.000000
1.050000 0.300000 0.000000
1.050000 0.325000 0.000000
1.050000 0.350000 0.000000
1.050000 0.375000 0.000000
1.050000 0.400000 0.000000
1.050000 0.425000 0.000000
1.050000 0.450000 0.000000
1.050000 0.475000 0.000000
1.050000 0.500000 0.000000
1.050000 0.525000 0.000000
1.050000 0.550000 0.000000
1.050000 0.575000 0.000000
1.050000 0.600000 0.000000
1.075000 -0.075000 0.000000
1.075000 -0.050000 0.000000
1.075000 -0.025000 0.000000
1.075000 0.000000 0.000000
1.075000 0.025000 0.000000
1.075000 0.050000 0.000000
1.075000 0.075000 0.000000
1.075000 0.100000 0.000000
1.075000 0.125000 0.000000
1.075000 0.150000 0.000000
1.075000 0.175000 0.000000
1.075000 0.200000 0.000000
1.075000 0.225000 0.000000
1.075000 0.250000 0.000000
1.075000 0.275000 0.000000
1.075000 0.300000 0.000000
1.075000 0.325000 0.000000
1.075000 0.350000 0.000000
1.075000 0.375000 0.000000
1.075000 0.400000 0.000000
1.075000 0.425000 0.000000
1.075000 0.450000 0.000000
1.075000 0.475000 0.000000
1.075000 0.500000 0.000000
1.075000 0.525000 0.000000
1.075000 0.550000 0.000000
1.075000 0.575000 0.000000
1.075000 0.600000 0.000000
1.100000 -0.075000 0.000000
1.100000 -0.050000 0.000000
1.100000 -0.025000 0.000000
1.100000 0.000000 0.000000
1.100000 0.025000 0.000000
1.100000 0.050000 0.000000
1.100000 0.075000 0.000000
1.100000 0.100000 0.000000
1.100000 0.125000 0.000000
1.100000 0.150000 0.000000
1.100000 0.175000 0.000000
1.100000 0.200000 0.000000
1.100000 0.225000 0.000000
1.100000 0.250000 0.000000
1.100000 0.275000 0.000000
1.100000 0.300000 0.000000
1.100000 0.325000 0.000000
1.100000 0.350000 0.000000
1.100000 0.375000 0.000000
1.100000 0.400000 0.000000
1.100000 0.425000 0.000000
1.100000 0.450000 0.000000
1.100000 0.475000 0.000000
1.100000 0.500000 0.000000
1.100000 0.525000 0.000000
1.100000 0.550000 0.000000
1.100000 0.575000 0.000000
1.100000 0.600000 0.000000
</DataArray>
</Points>
<PointData>
<DataArray NumberOfComponents='1' type='Int32' Name='ParticleType' format='ascii'>
3
3
3
3
3
3
3
3
3
3
3
3
3
3
3
3
3
3
3
3
3
3
3
3
3
3
2
2
3
3
3
3
3
3
3
3
3
3
3
3
3
3
3
3
3
3
3
3
3
3
3
3
3
3
2
2
3
3
2
2
2
2
2
2
2
2
2
2
2
2
2
2
2
2
2
2
2
2
2
2
2
2
2
2
3
3
2
2
2
2
2
2
2
2
2
2
2
2
2
2
2
2
2
2
2
2
2
2
2
2
2
2
3
3
2
2
0
0
0
0
0
0
0
0
0
0
0
0
0
0
0
0
0
0
0
0
3
3
2
2
0
0
0
0
0
0
0
0
0
0
0
0
0
0
0
0
0
0
0
0
3
3
2
2
0
0
0
0
0
0
0
0
0
0
0
0
0
0
0
0
0
0
0
0
3
3
2
2
0
0
0
0
0
0
0
0
0
0
0
0
0
0
0
0
0
0
0
0
3
3
2
2
0
0
0
0
0
0
0
0
0
0
0
0
0
0
0
0
0
0
0
0
3
3
2
2
0
0
0
0
0
0
0
0
0
0
0
0
0
0
0
0
0
0
0
0
3
3
2
2
0
0
0
0
0
0
0
0
0
0
0
0
0
0
0
0
0
0
0
0
3
3
2
2
0
0
0
0
0
0
0
0
0
0
0
0
0
0
0
0
0
0
0
0
3
3
2
2
0
0
0
0
0
0
0
0
0
0
0
0
0
0
0
0
0
0
0
0
3
3
2
2
0
0
0
0
0
0
0
0
0
0
0
0
0
0
0
0
0
0
0
0
3
3
2
2
3
3
2
2
3
3
2
2
3
3
2
2
3
3
2
2
3
3
2
2
3
3
2
2
3
3
2
2
3
3
2
2
3
3
2
2
3
3
2
2
3
3
2
2
3
3
2
2
3
3
2
2
3
3
2
2
3
3
2
2
3
3
2
2
3
3
2
2
3
3
2
2
3
3
2
2
3
3
2
2
3
3
2
2
3
3
2
2
3
3
2
2
3
3
2
2
3
3
2
2
3
3
2
2
3
3
2
2
3
3
2
2
3
3
2
2
3
3
2
2
2
2
2
2
2
2
2
2
2
2
2
2
2
2
2
2
2
2
2
2
2
2
2
2
3
3
2
2
2
2
2
2
2
2
2
2
2
2
2
2
2
2
2
2
2
2
2
2
2
2
2
2
3
3
3
3
3
3
3
3
3
3
3
3
3
3
3
3
3
3
3
3
3
3
3
3
3
3
2
2
3
3
3
3
3
3
3
3
3
3
3
3
3
3
3
3
3
3
3
3
3
3
3
3
3
3
2
2
</DataArray>
<DataArray NumberOfComponents='1' type='Float32' Name='Velocity' format='ascii'>
0.000000
0.000000
0.000000
0.000000
0.000000
0.000000
0.000000
0.000000
0.000000
0.000000
0.000000
0.000000
0.000000
0.000000
0.000000
0.000000
0.000000
0.000000
0.000000
0.000000
0.000000
0.000000
0.000000
0.000000
0.000000
0.000000
0.000000
0.000000
0.000000
0.000000
0.000000
0.000000
0.000000
0.000000
0.000000
0.000000
0.000000
0.000000
0.000000
0.000000
0.000000
0.000000
0.000000
0.000000
0.000000
0.000000
0.000000
0.000000
0.000000
0.000000
0.000000
0.000000
0.000000
0.000000
0.000000
0.000000
0.000000
0.000000
0.000000
0.000000
0.000000
0.000000
0.000000
0.000000
0.000000
0.000000
0.000000
0.000000
0.000000
0.000000
0.000000
0.000000
0.000000
0.000000
0.000000
0.000000
0.000000
0.000000
0.000000
0.000000
0.000000
0.000000
0.000000
0.000000
0.000000
0.000000
0.000000
0.000000
0.000000
0.000000
0.000000
0.000000
0.000000
0.000000
0.000000
0.000000
0.000000
0.000000
0.000000
0.000000
0.000000
0.000000
0.000000
0.000000
0.000000
0.000000
0.000000
0.000000
0.000000
0.000000
0.000000
0.000000
0.000000
0.000000
0.000000
0.000000
0.148916
0.125057
0.292106
0.249839
0.357548
0.371003
0.407470
0.461285
0.505765
0.550941
0.545840
0.613010
0.627301
0.622752
0.639275
0.667961
0.679051
0.651132
0.688482
0.718518
0.000000
0.000000
0.000000
0.000000
0.128078
0.168944
0.230198
0.249418
0.339609
0.339799
0.414880
0.467654
0.492001
0.529643
0.603059
0.627671
0.694316
0.729450
0.777563
0.805084
0.823450
0.849109
0.832885
0.806119
0.000000
0.000000
0.000000
0.000000
0.433107
0.346528
0.347242
0.419219
0.407526
0.444847
0.489983
0.512353
0.545588
0.621818
0.602561
0.654295
0.674755
0.686934
0.713996
0.716043
0.732485
0.704207
0.762606
0.788544
0.000000
0.000000
0.000000
0.000000
0.605809
0.389436
0.494262
0.459818
0.505808
0.521034
0.544780
0.587792
0.609554
0.622168
0.695004
0.712029
0.764958
0.759045
0.822429
0.843682
0.858336
0.889312
0.871532
0.854833
0.000000
0.000000
0.000000
0.000000
0.713247
0.518017
0.702830
0.612693
0.712766
0.616330
0.689599
0.684645
0.725860
0.740599
0.739519
0.764980
0.777678
0.810562
0.805642
0.818450
0.810209
0.820277
0.850058
0.864209
0.000000
0.000000
0.000000
0.000000
1.103369
0.666375
0.865468
0.813200
0.711002
0.841787
0.791299
0.769933
0.824731
0.809079
0.866568
0.887119
0.888983
0.915092
0.924384
0.930898
0.958493
0.947145
0.967338
0.924681
0.000000
0.000000
0.000000
0.000000
1.317976
0.457410
1.078805
0.847388
0.984346
0.952465
0.915250
0.991024
0.983625
0.979641
0.955829
0.952685
0.972831
0.956691
0.977155
0.965120
0.965406
0.951784
0.960675
0.977939
0.000000
0.000000
0.000000
0.000000
1.792727
0.998942
1.249674
1.116887
1.178826
1.087713
1.174172
1.124653
1.115478
1.110422
1.139316
1.125200
1.116536
1.097200
1.107139
1.092923
1.092209
1.083164
1.094846
1.051231
0.000000
0.000000
0.000000
0.000000
1.796391
1.822187
1.012012
1.632996
1.347309
1.503208
1.440468
1.394907
1.335450
1.320080
1.251637
1.215114
1.210313
1.188008
1.183373
1.141620
1.156192
1.130055
1.098203
1.135100
0.000000
0.000000
0.000000
0.000000
2.272908
2.100561
1.757125
2.141593
1.966974
1.779469
1.776478
1.663788
1.592197
1.514889
1.464285
1.410463
1.367098
1.339804
1.312308
1.293038
1.268285
1.266063
1.238213
1.246743
0.000000
0.000000
0.000000
0.000000
0.000000
0.000000
0.000000
0.000000
0.000000
0.000000
0.000000
0.000000
0.000000
0.000000
0.000000
0.000000
0.000000
0.000000
0.000000
0.000000
0.000000
0.000000
0.000000
0.000000
0.000000
0.000000
0.000000
0.000000
0.000000
0.000000
0.000000
0.000000
0.000000
0.000000
0.000000
0.000000
0.000000
0.000000
0.000000
0.000000
0.000000
0.000000
0.000000
0.000000
0.000000
0.000000
0.000000
0.000000
0.000000
0.000000
0.000000
0.000000
0.000000
0.000000
0.000000
0.000000
0.000000
0.000000
0.000000
0.000000
0.000000
0.000000
0.000000
0.000000
0.000000
0.000000
0.000000
0.000000
0.000000
0.000000
0.000000
0.000000
0.000000
0.000000
0.000000
0.000000
0.000000
0.000000
0.000000
0.000000
0.000000
0.000000
0.000000
0.000000
0.000000
0.000000
0.000000
0.000000
0.000000
0.000000
0.000000
0.000000
0.000000
0.000000
0.000000
0.000000
0.000000
0.000000
0.000000
0.000000
0.000000
0.000000
0.000000
0.000000
0.000000
0.000000
0.000000
0.000000
0.000000
0.000000
0.000000
0.000000
0.000000
0.000000
0.000000
0.000000
0.000000
0.000000
0.000000
0.000000
0.000000
0.000000
0.000000
0.000000
0.000000
0.000000
0.000000
0.000000
0.000000
0.000000
0.000000
0.000000
0.000000
0.000000
0.000000
0.000000
0.000000
0.000000
0.000000
0.000000
0.000000
0.000000
0.000000
0.000000
0.000000
0.000000
0.000000
0.000000
0.000000
0.000000
0.000000
0.000000
0.000000
0.000000
0.000000
0.000000
0.000000
0.000000
0.000000
0.000000
0.000000
0.000000
0.000000
0.000000
0.000000
0.000000
0.000000
0.000000
0.000000
0.000000
0.000000
0.000000
0.000000
0.000000
0.000000
0.000000
0.000000
0.000000
0.000000
0.000000
0.000000
0.000000
0.000000
0.000000
0.000000
0.000000
0.000000
0.000000
0.000000
0.000000
0.000000
0.000000
0.000000
0.000000
0.000000
0.000000
0.000000
0.000000
0.000000
0.000000
0.000000
0.000000
0.000000
0.000000
0.000000
0.000000
0.000000
0.000000
0.000000
0.000000
0.000000
0.000000
0.000000
0.000000
0.000000
0.000000
0.000000
0.000000
0.000000
0.000000
0.000000
0.000000
0.000000
0.000000
0.000000
0.000000
0.000000
0.000000
0.000000
0.000000
0.000000
0.000000
</DataArray>
<DataArray NumberOfComponents='1' type='Float32' Name='pressure' format='ascii'>
0.000000
0.000000
0.000000
0.000000
0.000000
0.000000
0.000000
0.000000
0.000000
0.000000
0.000000
0.000000
0.000000
0.000000
0.000000
0.000000
0.000000
0.000000
0.000000
0.000000
0.000000
0.000000
0.000000
0.000000
0.000000
0.000000
0.000000
0.000000
0.000000
0.000000
0.000000
0.000000
0.000000
0.000000
0.000000
0.000000
0.000000
0.000000
0.000000
0.000000
0.000000
0.000000
0.000000
0.000000
0.000000
0.000000
0.000000
0.000000
0.000000
0.000000
0.000000
0.000000
0.000000
0.000000
0.000000
0.000000
0.000000
0.000000
1145.158447
805.011475
0.000000
247.602341
615.130371
0.000000
299.556152
0.000000
0.000000
0.000000
0.000000
0.000000
0.000000
0.000000
61.970955
0.000000
0.000000
0.000000
0.000000
0.000000
0.000000
0.000000
0.000000
0.000000
0.000000
0.000000
0.000000
0.000000
1514.087402
1033.888672
0.000000
781.938538
901.787537
0.000000
988.394409
648.088806
358.777130
0.000000
0.000000
158.726715
102.099792
296.502716
661.001953
681.042908
522.533630
200.354309
0.000000
0.000000
0.000000
0.000000
0.000000
0.000000
0.000000
0.000000
0.000000
0.000000
2808.087646
2358.467773
716.204590
1662.911011
15.253493
1368.084595
296.727661
859.246460
240.045822
1039.065552
447.732666
1206.299072
780.073914
1133.236450
1114.577515
880.043823
742.551331
761.028015
647.807190
554.418579
605.460510
0.000000
0.000000
0.000000
3096.123535
1420.388672
1277.843994
1509.270630
1399.232544
1242.364624
1362.290161
1184.862305
1062.477173
858.168701
765.432007
377.230164
451.202179
303.890686
260.845276
278.911682
129.885971
215.923523
355.041718
0.000000
168.185669
0.000000
0.000000
0.000000
3154.366699
2348.090576
508.374817
1299.962280
354.052979
1045.530029
373.322083
707.746033
446.390961
526.882080
615.231079
803.879456
700.157532
750.861816
698.352600
657.257629
675.043640
586.831116
674.088684
323.574493
284.805481
0.000000
0.000000
0.000000
2592.287842
1255.594849
1368.751831
656.712585
1304.077026
639.694641
988.883545
931.165466
857.165955
938.244080
736.144287
548.412781
380.740692
501.410828
323.957855
272.770325
304.356537
173.190552
0.000000
34.728287
214.745483
0.000000
0.000000
0.000000
2678.126953
751.027405
0.000000
1046.018066
429.923981
358.061432
1049.749268
152.426956
477.224701
375.696014
472.826141
559.867493
646.477661
614.066589
504.992371
581.962402
373.733124
363.818695
400.241302
218.909576
83.942970
0.000000
0.000000
0.000000
2276.414795
1281.997681
766.310730
132.058411
659.679688
473.733185
91.206795
988.485352
975.006836
583.399902
1016.567566
582.728088
612.885559
402.007141
253.479492
340.159210
302.866638
118.160645
264.090424
23.807440
244.625443
0.000000
0.000000
0.000000
2503.316162
1574.172974
1943.652710
191.688187
871.545410
667.541992
1223.909302
774.185425
131.863831
542.410706
484.887787
463.145447
382.450348
510.799286
658.582336
311.882416
413.352325
187.842377
357.784668
0.000000
118.583771
0.000000
0.000000
0.000000
1588.083496
0.000000
242.052261
622.636047
0.000000
436.688934
309.989258
0.000000
774.673889
723.213501
488.172668
417.618805
570.956299
161.597763
235.274078
169.096695
111.228943
155.446304
223.654541
46.504593
220.575928
0.000000
0.000000
0.000000
1723.953491
733.362610
0.000000
1432.297119
234.237564
164.976013
7.129078
1061.328125
433.294769
351.055634
290.338989
504.411652
257.402618
395.906647
288.994293
305.895905
211.616898
299.419006
30.247972
132.235153
0.000000
0.000000
0.000000
0.000000
2124.550781
3122.527344
0.000000
0.000000
0.000000
0.000000
0.000000
0.000000
0.000000
0.000000
0.000000
0.000000
0.000000
0.000000
0.000000
0.000000
0.000000
0.000000
0.000000
0.000000
0.000000
0.000000
0.000000
0.000000
467.618073
0.000000
0.000000
0.000000
1098.420776
0.000000
0.000000
0.000000
1823.284668
1082.867065
0.000000
0.000000
1307.107056
0.000000
0.000000
0.000000
1335.644043
0.000000
0.000000
0.000000
971.418030
0.000000
0.000000
0.000000
806.199341
0.000000
0.000000
0.000000
0.000000
0.000000
0.000000
0.000000
0.000000
0.000000
0.000000
0.000000
0.000000
0.000000
0.000000
0.000000
0.000000
0.000000
0.000000
0.000000
0.000000
0.000000
0.000000
0.000000
0.000000
0.000000
0.000000
0.000000
0.000000
0.000000
0.000000
0.000000
0.000000
0.000000
0.000000
0.000000
0.000000
0.000000
0.000000
0.000000
0.000000
0.000000
0.000000
0.000000
0.000000
0.000000
0.000000
0.000000
0.000000
0.000000
0.000000
0.000000
0.000000
0.000000
0.000000
0.000000
0.000000
0.000000
0.000000
0.000000
0.000000
0.000000
0.000000
0.000000
0.000000
0.000000
0.000000
0.000000
0.000000
0.000000
0.000000
0.000000
0.000000
0.000000
0.000000
0.000000
0.000000
0.000000
0.000000
0.000000
0.000000
0.000000
0.000000
0.000000
0.000000
0.000000
0.000000
0.000000
0.000000
0.000000
0.000000
0.000000
0.000000
0.000000
0.000000
0.000000
0.000000
0.000000
0.000000
0.000000
0.000000
0.000000
0.000000
0.000000
0.000000
0.000000
0.000000
0.000000
0.000000
0.000000
0.000000
0.000000
0.000000
0.000000
0.000000
0.000000
0.000000
0.000000
0.000000
0.000000
0.000000
0.000000
0.000000
0.000000
0.000000
0.000000
0.000000
0.000000
0.000000
0.000000
0.000000
0.000000
0.000000
0.000000
0.000000
0.000000
0.000000
0.000000
0.000000
0.000000
0.000000
0.000000
0.000000
0.000000
0.000000
0.000000
0.000000
0.000000
0.000000
0.000000
0.000000
0.000000
0.000000
0.000000
0.000000
0.000000
0.000000
0.000000
0.000000
0.000000
0.000000
0.000000
0.000000
0.000000
0.000000
0.000000
0.000000
0.000000
0.000000
0.000000
0.000000
0.000000
0.000000
0.000000
0.000000
0.000000
0.000000
0.000000
0.000000
0.000000
0.000000
0.000000
0.000000
0.000000
0.000000
0.000000
0.000000
0.000000
0.000000
0.000000
0.000000
0.000000
0.000000
0.000000
0.000000
0.000000
0.000000
0.000000
0.000000
0.000000
0.000000
0.000000
0.000000
0.000000
0.000000
0.000000
</DataArray>
</PointData>
<Cells>
<DataArray type='Int32' Name='connectivity' format='ascii'>
0
1
2
3
4
5
6
7
8
9
10
11
12
13
14
15
16
17
18
19
20
21
22
23
24
25
26
27
28
29
30
31
32
33
34
35
36
37
38
39
40
41
42
43
44
45
46
47
48
49
50
51
52
53
54
55
56
57
58
59
60
61
62
63
64
65
66
67
68
69
70
71
72
73
74
75
76
77
78
79
80
81
82
83
84
85
86
87
88
89
90
91
92
93
94
95
96
97
98
99
100
101
102
103
104
105
106
107
108
109
110
111
112
113
114
115
116
117
118
119
120
121
122
123
124
125
126
127
128
129
130
131
132
133
134
135
136
137
138
139
140
141
142
143
144
145
146
147
148
149
150
151
152
153
154
155
156
157
158
159
160
161
162
163
164
165
166
167
168
169
170
171
172
173
174
175
176
177
178
179
180
181
182
183
184
185
186
187
188
189
190
191
192
193
194
195
196
197
198
199
200
201
202
203
204
205
206
207
208
209
210
211
212
213
214
215
216
217
218
219
220
221
222
223
224
225
226
227
228
229
230
231
232
233
234
235
236
237
238
239
240
241
242
243
244
245
246
247
248
249
250
251
252
253
254
255
256
257
258
259
260
261
262
263
264
265
266
267
268
269
270
271
272
273
274
275
276
277
278
279
280
281
282
283
284
285
286
287
288
289
290
291
292
293
294
295
296
297
298
299
300
301
302
303
304
305
306
307
308
309
310
311
312
313
314
315
316
317
318
319
320
321
322