<?xml version='1.0' encoding='UTF-8'?>
<VTKFile xmlns='VTK' byte_order='LittleEndian' version='0.1' type='UnstructuredGrid'>
<UnstructuredGrid>
<Piece NumberOfCells='584' NumberOfPoints='584'>
<Points>
<DataArray NumberOfComponents='3' type='Float32' Name='Position' format='ascii'>
-0.075000 -0.075000 0.000000
-0.075000 -0.050000 0.000000
-0.075000 -0.025000 0.000000
-0.075000 0.000000 0.000000
-0.075000 0.025000 0.000000
-0.075000 0.050000 0.000000
-0.075000 0.075000 0.000000
-0.075000 0.100000 0.000000
-0.075000 0.125000 0.000000
-0.075000 0.150000 0.000000
-0.075000 0.175000 0.000000
-0.075000 0.200000 0.000000
-0.075000 0.225000 0.000000
-0.075000 0.250000 0.000000
-0.075000 0.275000 0.000000
-0.075000 0.300000 0.000000
-0.075000 0.325000 0.000000
-0.075000 0.350000 0.000000
-0.075000 0.375000 0.000000
-0.075000 0.400000 0.000000
-0.075000 0.425000 0.000000
-0.075000 0.450000 0.000000
-0.075000 0.475000 0.000000
-0.075000 0.500000 0.000000
-0.075000 0.525000 0.000000
-0.075000 0.550000 0.000000
-0.075000 0.575000 0.000000
-0.075000 0.600000 0.000000
-0.050000 -0.075000 0.000000
-0.050000 -0.050000 0.000000
-0.050000 -0.025000 0.000000
-0.050000 0.000000 0.000000
-0.050000 0.025000 0.000000
-0.050000 0.050000 0.000000
-0.050000 0.075000 0.000000
-0.050000 0.100000 0.000000
-0.050000 0.125000 0.000000
-0.050000 0.150000 0.000000
-0.050000 0.175000 0.000000
-0.050000 0.200000 0.000000
-0.050000 0.225000 0.000000
-0.050000 0.250000 0.000000
-0.050000 0.275000 0.000000
-0.050000 0.300000 0.000000
-0.050000 0.325000 0.000000
-0.050000 0.350000 0.000000
-0.050000 0.375000 0.000000
-0.050000 0.400000 0.000000
-0.050000 0.425000 0.000000
-0.050000 0.450000 0.000000
-0.050000 0.475000 0.000000
-0.050000 0.500000 0.000000
-0.050000 0.525000 0.000000
-0.050000 0.550000 0.000000
-0.050000 0.575000 0.000000
-0.050000 0.600000 0.000000
-0.025000 -0.075000 0.000000
-0.025000 -0.050000 0.000000
-0.025000 -0.025000 0.000000
-0.025000 0.000000 0.000000
-0.025000 0.025000 0.000000
-0.025000 0.050000 0.000000
-0.025000 0.075000 0.000000
-0.025000 0.100000 0.000000
-0.025000 0.125000 0.000000
-0.025000 0.150000 0.000000
-0.025000 0.175000 0.000000
-0.025000 0.200000 0.000000
-0.025000 0.225000 0.000000
-0.025000 0.250000 0.000000
-0.025000 0.275000 0.000000
-0.025000 0.300000 0.000000
-0.025000 0.325000 0.000000
-0.025000 0.350000 0.000000
-0.025000 0.375000 0.000000
-0.025000 0.400000 0.000000
-0.025000 0.425000 0.000000
-0.025000 0.450000 0.000000
-0.025000 0.475000 0.000000
-0.025000 0.500000 0.000000
-0.025000 0.525000 0.000000
-0.025000 0.550000 0.000000
-0.025000 0.575000 0.000000
-0.025000 0.600000 0.000000
0.000000 -0.075000 0.000000
0.000000 -0.050000 0.000000
0.000000 -0.025000 0.000000
0.000000 0.000000 0.000000
0.000000 0.025000 0.000000
0.000000 0.050000 0.000000
0.000000 0.075000 0.000000
0.000000 0.100000 0.000000
0.000000 0.125000 0.000000
0.000000 0.150000 0.000000
0.000000 0.175000 0.000000
0.000000 0.200000 0.000000
0.000000 0.225000 0.000000
0.000000 0.250000 0.000000
0.000000 0.275000 0.000000
0.000000 0.300000 0.000000
0.000000 0.325000 0.000000
0.000000 0.350000 0.000000
0.000000 0.375000 0.000000
0.000000 0.400000 0.000000
0.000000 0.425000 0.000000
0.000000 0.450000 0.000000
0.000000 0.475000 0.000000
0.000000 0.500000 0.000000
0.000000 0.525000 0.000000
0.000000 0.550000 0.000000
0.000000 0.575000 0.000000
0.000000 0.600000 0.000000
0.025000 -0.075000 0.000000
0.025000 -0.050000 0.000000
0.025000 -0.025000 0.000000
0.025000 0.000000 0.000000
0.288261 0.021677 0.000000
0.256107 0.022954 0.000000
0.256554 0.053936 0.000000
0.184413 0.022627 0.000000
0.368623 0.021385 0.000000
0.071717 0.023052 0.000000
0.474404 0.032543 0.000000
0.316864 0.023742 0.000000
0.217320 0.022791 0.000000
0.148023 0.054152 0.000000
0.299998 0.045476 0.000000
0.186268 0.042374 0.000000
0.148661 0.024377 0.000000
0.035745 0.020360 0.000000
0.019479 0.045435 0.000000
0.042573 0.041396 0.000000
0.105658 0.022746 0.000000
0.083639 0.042721 0.000000
0.087007 0.064066 0.000000
0.125156 0.028889 0.000000
0.050000 -0.075000 0.000000
0.050000 -0.050000 0.000000
0.050000 -0.025000 0.000000
0.050000 0.000000 0.000000
0.351304 0.027907 0.000000
0.575264 0.087778 0.000000
0.555916 0.049752 0.000000
0.456314 0.169151 0.000000
0.520317 0.142741 0.000000
0.655072 0.038643 0.000000
0.530817 0.075157 0.000000
0.758901 0.049893 0.000000
0.409878 0.023661 0.000000
0.407191 0.067667 0.000000
0.441482 0.118020 0.000000
0.474290 0.054272 0.000000
0.063218 0.046527 0.000000
0.450587 0.075733 0.000000
0.264448 0.040295 0.000000
0.314897 0.050908 0.000000
0.208586 0.044195 0.000000
0.333541 0.043634 0.000000
0.118158 0.051518 0.000000
0.161542 0.045684 0.000000
0.075000 -0.075000 0.000000
0.075000 -0.050000 0.000000
0.075000 -0.025000 0.000000
0.075000 0.000000 0.000000
0.390615 0.056774 0.000000
0.558803 0.103248 0.000000
0.561276 0.036777 0.000000
0.514539 0.028154 0.000000
0.820723 0.109343 0.000000
0.843997 0.023841 0.000000
0.836293 0.061914 0.000000
0.327588 0.147055 0.000000
0.797818 0.070780 0.000000
0.813024 0.058362 0.000000
0.660718 0.022820 0.000000
0.527259 0.034295 0.000000
0.370327 0.095000 0.000000
0.397798 0.040669 0.000000
0.431482 0.033073 0.000000
0.367229 0.064158 0.000000
0.355313 0.059949 0.000000
0.427759 0.087260 0.000000
0.453294 0.133584 0.000000
0.231794 0.042841 0.000000
0.100000 -0.075000 0.000000
0.100000 -0.050000 0.000000
0.100000 -0.025000 0.000000
0.100000 0.000000 0.000000
0.700489 0.037641 0.000000
0.613040 0.018437 0.000000
0.761385 0.092533 0.000000
0.911258 0.021995 0.000000
0.438682 0.060698 0.000000
0.885417 0.037485 0.000000
0.879240 0.079443 0.000000
0.731949 0.160890 0.000000
0.869280 0.023763 0.000000
0.855940 0.047329 0.000000
0.688443 0.024028 0.000000
0.667888 0.057923 0.000000
0.826005 0.088687 0.000000
0.802911 0.024490 0.000000
0.593229 0.074052 0.000000
0.445144 0.022794 0.000000
0.727101 0.022095 0.000000
0.783627 0.138542 0.000000
0.610350 0.042694 0.000000
0.486745 0.064651 0.000000
0.125000 -0.075000 0.000000
0.125000 -0.050000 0.000000
0.125000 -0.025000 0.000000
0.125000 0.000000 0.000000
0.915046 0.043141 0.000000
0.906014 0.116461 0.000000
1.002340 0.142286 0.000000
0.945173 0.022048 0.000000
0.934811 0.184806 0.000000
0.765947 0.020069 0.000000
0.685430 0.109143 0.000000
0.875604 0.139686 0.000000
0.931687 0.102736 0.000000
0.876786 0.112959 0.000000
0.950613 0.089897 0.000000
0.799781 0.194445 0.000000
0.713255 0.053287 0.000000
0.775400 0.063048 0.000000
0.608877 0.070487 0.000000
0.786126 0.038836 0.000000
0.798518 0.131768 0.000000
0.522787 0.085197 0.000000
0.744657 0.089608 0.000000
0.493346 0.113576 0.000000
0.150000 -0.075000 0.000000
0.150000 -0.050000 0.000000
0.150000 -0.025000 0.000000
0.150000 0.000000 0.000000
0.720334 0.112821 0.000000
0.995245 0.056590 0.000000
0.952256 0.295846 0.000000
0.644524 0.075678 0.000000
0.976815 0.067310 0.000000
0.532671 0.129300 0.000000
0.978427 0.115250 0.000000
0.779292 0.102054 0.000000
1.004241 0.107719 0.000000
0.957110 0.142890 0.000000
0.966739 0.038115 0.000000
0.882214 0.058363 0.000000
0.936385 0.043509 0.000000
0.954210 0.063780 0.000000
0.899773 0.093540 0.000000
0.846544 0.121504 0.000000
0.822542 0.033547 0.000000
0.862402 0.098162 0.000000
0.849031 0.078494 0.000000
0.681690 0.072942 0.000000
0.175000 -0.075000 0.000000
0.175000 -0.050000 0.000000
0.175000 -0.025000 0.000000
0.175000 0.000000 0.000000
0.402920 0.117850 0.000000
0.954229 0.166375 0.000000
0.972334 0.183066 0.000000
0.989161 0.164129 0.000000
0.980392 0.139306 0.000000
0.598638 0.142401 0.000000
0.981580 0.024397 0.000000
0.758127 0.168052 0.000000
0.630425 0.088483 0.000000
1.003579 0.032486 0.000000
0.859932 0.163840 0.000000
0.927906 0.162364 0.000000
0.772764 0.168563 0.000000
0.948439 0.121735 0.000000
0.973574 0.095865 0.000000
0.666453 0.084494 0.000000
0.999968 0.081392 0.000000
0.821411 0.133332 0.000000
0.756351 0.137383 0.000000
0.802336 0.177688 0.000000
0.200000 -0.075000 0.000000
0.200000 -0.050000 0.000000
0.200000 -0.025000 0.000000
0.200000 0.000000 0.000000
0.755788 0.293382 0.000000
0.540397 0.160542 0.000000
0.691310 0.151871 0.000000
0.957161 0.225778 0.000000
0.682306 0.124051 0.000000
0.817767 0.158958 0.000000
0.858210 0.191637 0.000000
1.007176 0.302711 0.000000
0.846054 0.139377 0.000000
0.520524 0.117996 0.000000
1.003427 0.184532 0.000000
0.929000 0.074052 0.000000
0.352272 0.149307 0.000000
0.717374 0.093553 0.000000
0.887879 0.160405 0.000000
0.627881 0.120646 0.000000
0.911169 0.169328 0.000000
0.742787 0.128375 0.000000
0.929131 0.132207 0.000000
0.909969 0.072014 0.000000
0.225000 -0.075000 0.000000
0.225000 -0.050000 0.000000
0.225000 -0.025000 0.000000
0.225000 0.000000 0.000000
0.736929 0.210612 0.000000
0.941476 1.092878 0.000000
0.895461 0.199305 0.000000
0.478286 0.107994 0.000000
0.454425 0.100593 0.000000
0.356230 0.166713 0.000000
0.847019 0.180136 0.000000
0.986442 0.195823 0.000000
0.907905 0.214401 0.000000
0.646372 0.113491 0.000000
0.949716 0.200500 0.000000
0.465447 0.140924 0.000000
0.580303 0.054027 0.000000
0.796291 0.099003 0.000000
0.556289 0.117450 0.000000
0.721631 0.134457 0.000000
0.734440 0.068510 0.000000
0.486457 0.164930 0.000000
0.579276 0.117860 0.000000
0.618325 0.130076 0.000000
0.250000 -0.075000 0.000000
0.250000 -0.050000 0.000000
0.250000 -0.025000 0.000000
0.250000 0.000000 0.000000
0.938357 0.658862 0.000000
0.722064 0.589363 0.000000
0.706988 0.073485 0.000000
0.752507 0.189798 0.000000
0.527341 0.738891 0.000000
0.821139 0.181264 0.000000
0.565947 0.515819 0.000000
0.666985 0.294625 0.000000
0.492914 0.025764 0.000000
0.883738 0.183067 0.000000
0.478861 0.079617 0.000000
0.437487 0.201984 0.000000
0.663021 0.122306 0.000000
0.744281 0.037899 0.000000
0.625208 0.053053 0.000000
0.704739 0.172680 0.000000
0.587412 0.025702 0.000000
0.898992 0.134823 0.000000
0.431965 0.186199 0.000000
0.923265 0.214190 0.000000
0.275000 -0.075000 0.000000
0.275000 -0.050000 0.000000
0.275000 -0.025000 0.000000
0.275000 0.000000 0.000000
0.300000 -0.075000 0.000000
0.300000 -0.050000 0.000000
0.300000 -0.025000 0.000000
0.300000 0.000000 0.000000
0.325000 -0.075000 0.000000
0.325000 -0.050000 0.000000
0.325000 -0.025000 0.000000
0.325000 0.000000 0.000000
0.350000 -0.075000 0.000000
0.350000 -0.050000 0.000000
0.350000 -0.025000 0.000000
0.350000 0.000000 0.000000
0.375000 -0.075000 0.000000
0.375000 -0.050000 0.000000
0.375000 -0.025000 0.000000
0.375000 0.000000 0.000000
0.400000 -0.075000 0.000000
0.400000 -0.050000 0.000000
0.400000 -0.025000 0.000000
0.400000 0.000000 0.000000
0.425000 -0.075000 0.000000
0.425000 -0.050000 0.000000
0.425000 -0.025000 0.000000
0.425000 0.000000 0.000000
0.450000 -0.075000 0.000000
0.450000 -0.050000 0.000000
0.450000 -0.025000 0.000000
0.450000 0.000000 0.000000
0.475000 -0.075000 0.000000
0.475000 -0.050000 0.000000
0.475000 -0.025000 0.000000
0.475000 0.000000 0.000000
0.500000 -0.075000 0.000000
0.500000 -0.050000 0.000000
0.500000 -0.025000 0.000000
0.500000 0.000000 0.000000
0.525000 -0.075000 0.000000
0.525000 -0.050000 0.000000
0.525000 -0.025000 0.000000
0.525000 0.000000 0.000000
0.550000 -0.075000 0.000000
0.550000 -0.050000 0.000000
0.550000 -0.025000 0.000000
0.550000 0.000000 0.000000
0.575000 -0.075000 0.000000
0.575000 -0.050000 0.000000
0.575000 -0.025000 0.000000
0.575000 0.000000 0.000000
0.600000 -0.075000 0.000000
0.600000 -0.050000 0.000000
0.600000 -0.025000 0.000000
0.600000 0.000000 0.000000
0.625000 -0.075000 0.000000
0.625000 -0.050000 0.000000
0.625000 -0.025000 0.000000
0.625000 0.000000 0.000000
0.650000 -0.075000 0.000000
0.650000 -0.050000 0.000000
0.650000 -0.025000 0.000000
0.650000 0.000000 0.000000
0.675000 -0.075000 0.000000
0.675000 -0.050000 0.000000
0.675000 -0.025000 0.000000
0.675000 0.000000 0.000000
0.700000 -0.075000 0.000000
0.700000 -0.050000 0.000000
0.700000 -0.025000 0.000000
0.700000 0.000000 0.000000
0.725000 -0.075000 0.000000
0.725000 -0.050000 0.000000
0.725000 -0.025000 0.000000
0.725000 0.000000 0.000000
0.750000 -0.075000 0.000000
0.750000 -0.050000 0.000000
0.750000 -0.025000 0.000000
0.750000 0.000000 0.000000
0.775000 -0.075000 0.000000
0.775000 -0.050000 0.000000
0.775000 -0.025000 0.000000
0.775000 0.000000 0.000000
0.800000 -0.075000 0.000000
0.800000 -0.050000 0.000000
0.800000 -0.025000 0.000000
0.800000 0.000000 0.000000
0.825000 -0.075000 0.000000
0.825000 -0.050000 0.000000
0.825000 -0.025000 0.000000
0.825000 0.000000 0.000000
0.850000 -0.075000 0.000000
0.850000 -0.050000 0.000000
0.850000 -0.025000 0.000000
0.850000 0.000000 0.000000
0.875000 -0.075000 0.000000
0.875000 -0.050000 0.000000
0.875000 -0.025000 0.000000
0.875000 0.000000 0.000000
0.900000 -0.075000 0.000000
0.900000 -0.050000 0.000000
0.900000 -0.025000 0.000000
0.900000 0.000000 0.000000
0.925000 -0.075000 0.000000
0.925000 -0.050000 0.000000
0.925000 -0.025000 0.000000
0.925000 0.000000 0.000000
0.950000 -0.075000 0.000000
0.950000 -0.050000 0.000000
0.950000 -0.025000 0.000000
0.950000 0.000000 0.000000
0.975000 -0.075000 0.000000
0.975000 -0.050000 0.000000
0.975000 -0.025000 0.000000
0.975000 0.000000 0.000000
1.000000 -0.075000 0.000000
1.000000 -0.050000 0.000000
1.000000 -0.025000 0.000000
1.000000 0.000000 0.000000
1.025000 -0.075000 0.000000
1.025000 -0.050000 0.000000
1.025000 -0.025000 0.000000
1.025000 0.000000 0.000000
1.025000 0.025000 0.000000
1.025000 0.050000 0.000000
1.025000 0.075000 0.000000
1.025000 0.100000 0.000000
1.025000 0.125000 0.000000
1.025000 0.150000 0.000000
1.025000 0.175000 0.000000
1.025000 0.200000 0.000000
1.025000 0.225000 0.000000
1.025000 0.250000 0.000000
1.025000 0.275000 0.000000
1.025000 0.300000 0.000000
1.025000 0.325000 0.000000
1.025000 0.350000 0.000000
1.025000 0.375000 0.000000
1.025000 0.400000 0.000000
1.025000 0.425000 0.000000
1.025000 0.450000 0.000000
1.025000 0.475000 0.000000
1.025000 0.500000 0.000000
1.025000 0.525000 0.000000
1.025000 0.550000 0.000000
1.025000 0.575000 0.000000
1.025000 0.600000 0.000000
1.050000 -0.075000 0.000000
1.050000 -0.050000 0.000000
1.050000 -0.025000 0.000000
1.050000 0.000000 0.000000
1.050000 0.025000 0.000000
1.050000 0.050000 0.000000
1.050000 0.075000 0.000000
1.050000 0.100000 0.000000
1.050000 0.125000 0.000000
1.050000 0.150000 0.000000
1.050000 0.175000 0.000000
1.050000 0.200000 0.000000
1.050000 0.225000 0.000000
1.050000 0.250000 0.000000
1.050000 0.275000 0.000000
1.050000 0.300000 0.000000
1.050000 0.325000 0.000000
1.050000 0.350000 0.000000
1.050000 0.375000 0.000000
1.050000 0.400000 0.000000
1.050000 0.425000 0.000000
1.050000 0.450000 0.000000
1.050000 0.475000 0.000000
1.050000 0.500000 0.000000
1.050000 0.525000 0.000000
1.050000 0.550000 0.000000
1.050000 0.575000 0.000000
1.050000 0.600000 0.000000
1.075000 -0.075000 0.000000
1.075000 -0.050000 0.000000
1.075000 -0.025000 0.000000
1.075000 0.000000 0.000000
1.075000 0.025000 0.000000
1.075000 0.050000 0.000000
1.075000 0.075000 0.000000
1.075000 0.100000 0.000000
1.075000 0.125000 0.000000
1.075000 0.150000 0.000000
1.075000 0.175000 0.000000
1.075000 0.200000 0.000000
1.075000 0.225000 0.000000
1.075000 0.250000 0.000000
1.075000 0.275000 0.000000
1.075000 0.300000 0.000000
1.075000 0.325000 0.000000
1.075000 0.350000 0.000000
1.075000 0.375000 0.000000
1.075000 0.400000 0.000000
1.075000 0.425000 0.000000
1.075000 0.450000 0.000000
1.075000 0.475000 0.000000
1.075000 0.500000 0.000000
1.075000 0.525000 0.000000
1.075000 0.550000 0.000000
1.075000 0.575000 0.000000
1.075000 0.600000 0.000000
1.100000 -0.075000 0.000000
1.100000 -0.050000 0.000000
1.100000 -0.025000 0.000000
1.100000 0.000000 0.000000
1.100000 0.025000 0.000000
1.100000 0.050000 0.000000
1.100000 0.075000 0.000000
1.100000 0.100000 0.000000
1.100000 0.125000 0.000000
1.100000 0.150000 0.000000
1.100000 0.175000 0.000000
1.100000 0.200000 0.000000
1.100000 0.225000 0.000000
1.100000 0.250000 0.000000
1.100000 0.275000 0.000000
1.100000 0.300000 0.000000
1.100000 0.325000 0.000000
1.100000 0.350000 0.000000
1.100000 0.375000 0.000000
1.100000 0.400000 0.000000
1.100000 0.425000 0.000000
1.100000 0.450000 0.000000
1.100000 0.475000 0.000000
1.100000 0.500000 0.000000
1.100000 0.525000 0.000000
1.100000 0.550000 0.000000
1.100000 0.575000 0.000000
1.100000 0.600000 0.000000
</DataArray>
</Points>
<PointData>
<DataArray NumberOfComponents='1' type='Int32' Name='ParticleType' format='ascii'>
3
3
3
3
3
3
3
3
3
3
3
3
3
3
3
3
3
3
3
3
3
3
3
3
3
3
2
2
3
3
3
3
3
3
3
3
3
3
3
3
3
3
3
3
3
3
3
3
3
3
3
3
3
3
2
2
3
3
2
2
2
2
2
2
2
2
2
2
2
2
2
2
2
2
2
2
2
2
2
2
2
2
2
2
3
3
2
2
2
2
2
2
2
2
2
2
2
2
2
2
2
2
2
2
2
2
2
2
2
2
2
2
3
3
2
2
0
0
0
0
0
0
0
0
0
0
0
0
0
0
0
0
0
0
0
0
3
3
2
2
0
0
0
0
0
0
0
0
0
0
0
0
0
0
0
0
0
0
0
0
3
3
2
2
0
0
0
0
0
0
0
0
0
0
0
0
0
0
0
0
0
0
0
0
3
3
2
2
0
0
0
0
0
0
0
0
0
0
0
0
0
0
0
0
0
0
0
0
3
3
2
2
0
0
0
0
0
0
0
0
0
0
0
0
0
0
0
0
0
0
0
0
3
3
2
2
0
0
0
0
0
0
0
0
0
0
0
0
0
0
0
0
0
0
0
0
3
3
2
2
0
0
0
0
0
0
0
0
0
0
0
0
0
0
0
0
0
0
0
0
3
3
2
2
0
0
0
0
0
0
0
0
0
0
0
0
0
0
0
0
0
0
0
0
3
3
2
2
0
0
0
0
0
0
0
0
0
0
0
0
0
0
0
0
0
0
0
0
3
3
2
2
0
0
0
0
0
0
0
0
0
0
0
0
0
0
0
0
0
0
0
0
3
3
2
2
3
3
2
2
3
3
2
2
3
3
2
2
3
3
2
2
3
3
2
2
3
3
2
2
3
3
2
2
3
3
2
2
3
3
2
2
3
3
2
2
3
3
2
2
3
3
2
2
3
3
2
2
3
3
2
2
3
3
2
2
3
3
2
2
3
3
2
2
3
3
2
2
3
3
2
2
3
3
2
2
3
3
2
2
3
3
2
2
3
3
2
2
3
3
2
2
3
3
2
2
3
3
2
2
3
3
2
2
3
3
2
2
3
3
2
2
3
3
2
2
2
2
2
2
2
2
2
2
2
2
2
2
2
2
2
2
2
2
2
2
2
2
2
2
3
3
2
2
2
2
2
2
2
2
2
2
2
2
2
2
2
2
2
2
2
2
2
2
2
2
2
2
3
3
3
3
3
3
3
3
3
3
3
3
3
3
3
3
3
3
3
3
3
3
3
3
3
3
2
2
3
3
3
3
3
3
3
3
3
3
3
3
3
3
3
3
3
3
3
3
3
3
3
3
3
3
2
2
</DataArray>
<DataArray NumberOfComponents='1' type='Float32' Name='Velocity' format='ascii'>
0.000000
0.000000
0.000000
0.000000
0.000000
0.000000
0.000000
0.000000
0.000000
0.000000
0.000000
0.000000
0.000000
0.000000
0.000000
0.000000
0.000000
0.000000
0.000000
0.000000
0.000000
0.000000
0.000000
0.000000
0.000000
0.000000
0.000000
0.000000
0.000000
0.000000
0.000000
0.000000
0.000000
0.000000
0.000000
0.000000
0.000000
0.000000
0.000000
0.000000
0.000000
0.000000
0.000000
0.000000
0.000000
0.000000
0.000000
0.000000
0.000000
0.000000
0.000000
0.000000
0.000000
0.000000
0.000000
0.000000
0.000000
0.000000
0.000000
0.000000
0.000000
0.000000
0.000000
0.000000
0.000000
0.000000
0.000000
0.000000
0.000000
0.000000
0.000000
0.000000
0.000000
0.000000
0.000000
0.000000
0.000000
0.000000
0.000000
0.000000
0.000000
0.000000
0.000000
0.000000
0.000000
0.000000
0.000000
0.000000
0.000000
0.000000
0.000000
0.000000
0.000000
0.000000
0.000000
0.000000
0.000000
0.000000
0.000000
0.000000
0.000000
0.000000
0.000000
0.000000
0.000000
0.000000
0.000000
0.000000
0.000000
0.000000
0.000000
0.000000
0.000000
0.000000
0.000000
0.000000
0.165198
0.209971
0.355295
0.128963
0.235054
0.140069
0.308594
0.031326
0.188916
0.256119
0.327613
0.107654
0.072801
0.155335
0.214080
0.159432
0.067029
0.150247
0.231926
0.211746
0.000000
0.000000
0.000000
0.000000
0.192871
0.499212
0.743709
2.260365
1.671400
0.284475
0.702550
0.210611
0.453903
0.508645
1.528666
0.708082
0.105906
0.181990
0.216597
0.439802
0.114101
0.358624
0.212139
0.261213
0.000000
0.000000
0.000000
0.000000
0.315735
1.239011
0.173919
0.592241
0.555248
0.192051
0.452980
2.715101
0.368947
0.237904
0.389670
0.579054
0.618616
0.237158
0.129611
0.492688
0.379210
0.982634
1.263197
0.328367
0.000000
0.000000
0.000000
0.000000
0.398653
0.261971
0.549910
0.332791
0.472897
0.218137
0.404399
1.554000
0.760489
0.129128
0.372522
0.128474
0.462262
0.462788
0.833114
0.426384
0.450871
0.968804
0.852268
1.311551
0.000000
0.000000
0.000000
0.000000
0.537901
0.275524
0.470221
0.180000
0.484139
0.026120
1.828114
0.536403
0.526145
0.088614
0.463507
0.842030
0.461258
0.403815
1.081983
0.538097
1.296356
0.737956
0.600697
1.014408
0.000000
0.000000
0.000000
0.000000
0.784615
0.218606
0.742224
1.430412
0.039268
2.562929
0.152841
0.877555
0.239524
0.114157
0.099392
0.273077
0.151344
0.209762
0.543886
0.321082
0.299103
0.449053
0.285852
0.489928
0.000000
0.000000
0.000000
0.000000
0.887497
0.212005
0.288491
0.314973
0.240652
1.786833
0.271708
1.186649
1.346024
0.263719
0.232008
0.473761
1.138879
0.315723
0.162242
1.075259
0.330617
1.221118
1.063118
0.503187
0.000000
0.000000
0.000000
0.000000
3.076419
2.321752
2.252751
0.509713
1.828927
1.431615
0.945558
0.751181
0.911454
2.493613
0.473446
0.581353
2.612702
0.689066
0.644290
1.996111
0.342870
1.113390
0.315426
0.200862
0.000000
0.000000
0.000000
0.000000
1.961834
2.023874
0.441161
1.321513
0.643261
2.646835
0.816842
0.597674
0.673127
2.194269
0.691690
1.295330
1.627533
0.797919
2.011421
1.297893
0.615305
2.833540
1.105255
1.299574
0.000000
0.000000
0.000000
0.000000
2.757591
2.750972
0.454016
1.177676
2.683532
1.461790
2.902337
3.164740
0.338471
0.688275
1.284870
2.578641
1.786720
0.191302
0.785407
1.852913
0.762147
0.450343
2.314532
0.412148
0.000000
0.000000
0.000000
0.000000
0.000000
0.000000
0.000000
0.000000
0.000000
0.000000
0.000000
0.000000
0.000000
0.000000
0.000000
0.000000
0.000000
0.000000
0.000000
0.000000
0.000000
0.000000
0.000000
0.000000
0.000000
0.000000
0.000000
0.000000
0.000000
0.000000
0.000000
0.000000
0.000000
0.000000
0.000000
0.000000
0.000000
0.000000
0.000000
0.000000
0.000000
0.000000
0.000000
0.000000
0.000000
0.000000
0.000000
0.000000
0.000000
0.000000
0.000000
0.000000
0.000000
0.000000
0.000000
0.000000
0.000000
0.000000
0.000000
0.000000
0.000000
0.000000
0.000000
0.000000
0.000000
0.000000
0.000000
0.000000
0.000000
0.000000
0.000000
0.000000
0.000000
0.000000
0.000000
0.000000
0.000000
0.000000
0.000000
0.000000
0.000000
0.000000
0.000000
0.000000
0.000000
0.000000
0.000000
0.000000
0.000000
0.000000
0.000000
0.000000
0.000000
0.000000
0.000000
0.000000
0.000000
0.000000
0.000000
0.000000
0.000000
0.000000
0.000000
0.000000
0.000000
0.000000
0.000000
0.000000
0.000000
0.000000
0.000000
0.000000
0.000000
0.000000
0.000000
0.000000
0.000000
0.000000
0.000000
0.000000
0.000000
0.000000
0.000000
0.000000
0.000000
0.000000
0.000000
0.000000
0.000000
0.000000
0.000000
0.000000
0.000000
0.000000
0.000000
0.000000
0.000000
0.000000
0.000000
0.000000
0.000000
0.000000
0.000000
0.000000
0.000000
0.000000
0.000000
0.000000
0.000000
0.000000
0.000000
0.000000
0.000000
0.000000
0.000000
0.000000
0.000000
0.000000
0.000000
0.000000
0.000000
0.000000
0.000000
0.000000
0.000000
0.000000
0.000000
0.000000
0.000000
0.000000
0.000000
0.000000
0.000000
0.000000
0.000000
0.000000
0.000000
0.000000
0.000000
0.000000
0.000000
0.000000
0.000000
0.000000
0.000000
0.000000
0.000000
0.000000
0.000000
0.000000
0.000000
0.000000
0.000000
0.000000
0.000000
0.000000
0.000000
0.000000
0.000000
0.000000
0.000000
0.000000
0.000000
0.000000
0.000000
0.000000
0.000000
0.000000
0.000000
0.000000
0.000000
0.000000
0.000000
0.000000
0.000000
0.000000
0.000000
0.000000
0.000000
0.000000
0.000000
0.000000
0.000000
0.000000
0.000000
0.000000
0.000000
0.000000
0.000000
0.000000
0.000000
0.000000
</DataArray>
<DataArray NumberOfComponents='1' type='Float32' Name='pressure' format='ascii'>
0.000000
0.000000
0.000000
0.000000
0.000000
0.000000
0.000000
0.000000
0.000000
0.000000
0.000000
0.000000
0.000000
0.000000
0.000000
0.000000
0.000000
0.000000
0.000000
0.000000
0.000000
0.000000
0.000000
0.000000
0.000000
0.000000
0.000000
0.000000
0.000000
0.000000
0.000000
0.000000
0.000000
0.000000
0.000000
0.000000
0.000000
0.000000
0.000000
0.000000
0.000000
0.000000
0.000000
0.000000
0.000000
0.000000
0.000000
0.000000
0.000000
0.000000
0.000000
0.000000
0.000000
0.000000
0.000000
0.000000
0.000000
0.000000
0.000000
0.000000
0.000000
680.427307
0.000000
0.000000
0.000000
0.000000
0.000000
0.000000
0.000000
0.000000
0.000000
0.000000
0.000000
0.000000
0.000000
0.000000
0.000000
0.000000
0.000000
0.000000
0.000000
0.000000
0.000000
0.000000
0.000000
0.000000
0.000000
0.000000
0.000000
0.000000
0.000000
0.000000
0.000000
0.000000
0.000000
0.000000
0.000000
0.000000
0.000000
0.000000
0.000000
0.000000
0.000000
0.000000
0.000000
0.000000
0.000000
0.000000
0.000000
0.000000
0.000000
0.000000
0.000000
0.000000
1020.885437
0.000000
77.618965
1295.709717
0.000000
621.615540
474.950378
759.965576
0.000000
776.136902
0.000000
0.000000
0.000000
0.000000
0.000000
946.449585
0.000000
0.000000
693.587891
0.000000
0.000000
976.061096
0.000000
0.000000
1537.998901
261.747559
1081.069702
0.000000
0.000000
0.000000
0.000000
0.000000
0.000000
1912.503540
1249.690552
0.000000
0.000000
5381.401855
0.000000
1319.589844
0.000000
0.000000
0.000000
0.000000
0.000000
0.000000
0.000000
0.000000
1682.362793
817.177368
0.000000
0.000000
0.000000
1391.001709
1771.565552
2533.855957
2956.114014
0.000000
1656.512207
3830.165771
606.180542
0.000000
0.000000
1411.774414
1092.345703
251.574127
0.000000
0.000000
0.000000
0.000000
0.000000
0.000000
1487.783081
1599.074219
4717.647949
0.000000
641.120178
808.093567
0.000000
1470.092529
1407.134644
0.000000
3492.092529
349.214294
3348.531738
0.000000
0.000000
1061.026367
2263.337158
573.925232
0.000000
0.000000
1618.210815
4061.256348
0.000000
0.000000
0.000000
315.212891
852.764893
1404.495239
0.000000
1640.226685
0.000000
2529.577393
0.000000
0.000000
206.314316
687.466064
270.939178
0.000000
2451.977295
227.925690
3362.751709
312.409363
630.657715
0.000000
1598.750610
0.000000
0.000000
0.000000
0.000000
0.000000
0.000000
908.965759
0.000000
0.000000
2012.604614
488.499237
595.605164
331.279877
0.000000
0.000000
31.829325
2034.123413
1978.027588
1581.140259
318.101318
2570.569336
1701.409424
1874.806763
1050.516357
467.432861
0.000000
0.000000
0.000000
0.000000
0.000000
0.000000
133.705765
795.309143
1118.745605
0.000000
2198.588867
0.000000
0.000000
2155.493652
69.884026
96.864113
0.000000
1175.516968
1366.419678
137.949005
0.000000
357.718933
0.000000
0.000000
0.000000
0.000000
0.000000
0.000000
0.000000
0.000000
0.000000
0.000000
0.000000
0.000000
0.000000
0.000000
1219.911743
0.000000
0.000000
1336.037354
0.000000
361.937653
1419.523071
0.000000
0.000000
1446.885132
0.000000
2646.088379
0.000000
0.000000
390.817566
0.000000
0.000000
0.000000
0.000000
0.000000
0.000000
0.000000
0.000000
0.000000
0.000000
0.000000
0.000000
0.000000
0.000000
1469.007568
0.000000
0.000000
0.000000
0.000000
0.000000
0.000000
0.000000
0.000000
1089.634521
0.000000
0.000000
0.000000
710.675293
0.000000
0.000000
0.000000
0.000000
0.000000
575.481995
0.000000
182.058136
0.000000
0.000000
1469.684814
0.000000
0.000000
0.000000
0.000000
0.000000
0.000000
0.000000
0.000000
1896.089111
1584.420410
0.000000
0.000000
2116.500732
1142.275269
0.000000
0.000000
1279.135498
0.000000
0.000000
0.000000
1236.807861
1218.158447
0.000000
0.000000
2424.360107
1522.109009
0.000000
0.000000
1378.161133
0.000000
0.000000
0.000000
1000.301575
2219.473877
0.000000
0.000000
1247.236694
534.936890
0.000000
0.000000
0.000000
0.000000
0.000000
0.000000
0.000000
0.000000
0.000000
0.000000
0.000000
0.000000
0.000000
0.000000
0.000000
0.000000
0.000000
0.000000
192.900604
0.000000
0.000000
0.000000
3612.678955
3933.194092
0.000000
0.000000
3854.689697
267.330841
0.000000
0.000000
2394.922119
0.000000
0.000000
0.000000
2707.606445
2969.428467
0.000000
0.000000
2266.316895
1113.734009
0.000000
0.000000
3622.682861
2257.808594
0.000000
0.000000
3629.772461
2220.538086
0.000000
0.000000
4030.940674
2887.885986
0.000000
0.000000
2150.839111
1295.512451
0.000000
0.000000
927.219177
0.000000
0.000000
0.000000
2096.659424
2541.985352
0.000000
0.000000
2284.492920
1774.398193
0.000000
0.000000
2594.092285
153.172119
0.000000
0.000000
2943.301025
2036.215942
0.000000
0.000000
2981.598389
3098.881592
0.000000
0.000000
1450.693237
665.124695
0.000000
0.000000
52.208614
0.000000
0.000000
0.000000
620.160767
0.000000
2188.770996
0.000000
340.089264
2221.969238
85.508575
424.408325
711.371155
0.000000
0.000000
0.000000
0.000000
0.000000
0.000000
0.000000
0.000000
0.000000
0.000000
0.000000
0.000000
0.000000
0.000000
0.000000
0.000000
0.000000
0.000000
0.000000
756.612244
997.219604
2232.619873
1293.616333
1087.935547
2614.534668
2199.449951
1646.576294
1579.432861
581.087097
0.000000
0.000000
61.940609
3480.681396
1106.809326
0.000000
0.000000
0.000000
0.000000
0.000000
0.000000
0.000000
0.000000
0.000000
0.000000
0.000000
0.000000
0.000000
0.000000
0.000000
0.000000
0.000000
0.000000
0.000000
0.000000
0.000000
0.000000
0.000000
0.000000
0.000000
0.000000
0.000000
0.000000
0.000000
0.000000
0.000000
0.000000
0.000000
0.000000
0.000000
0.000000
0.000000
0.000000
0.000000
0.000000
0.000000
0.000000
0.000000
0.000000
0.000000
0.000000
0.000000
0.000000
0.000000
0.000000
0.000000
0.000000
0.000000
0.000000
0.000000
0.000000
0.000000
0.000000
0.000000
0.000000
0.000000
0.000000
0.000000
0.000000
0.000000
0.000000
0.000000
</DataArray>
</PointData>
<Cells>
<DataArray type='Int32' Name='connectivity' format='ascii'>
0
1
2
3
4
5
6
7
8
9
10
11
12
13
14
15
16
17
18
19
20
21
22
23
24
25
26
27
28
29
30
31
32
33
34
35
36
37
38
39
40
41
42
43
44
45
46
47
48
49
50
51
52
53
54
55
56
57
58
59
60
61
62
63
64
65
66
67
68
69
70
71
72
73
74
75
76
77
78
79
80
81
82
83
84
85
86
87
88
89
90
91
92
93
94
95
96
97
98
99
100
101
102
103
104
105
106
107
108
109
110
111
112
113
114
115
116
117
118
119
120
121
122
123
124
125
126
127
128
129
130
131
132
133
134
135
136
137
138
139
140
141
142
143
144
145
146
147
148
149
150
151
152
153
154
155
156
157
158
159
160
161
162
163
164
165
166
167
168
169
170
171
172
173
174
175
176
177
178
179
180
181
182
183
184
185
186
187
188
189
190
191
192
193
194
195
196
197
198
199
200
201
202
203
204
205
206
207
208
209
210
211
212
213
214
215
216
217
218
219
220
221
222
223
224
225
226
227
228
229
230
231
232
233
234
235
236
237
238
239
240
241
242
243
244
245
246
247
248
249
250
251
252
253
254
255
256
257
258
259
260
261
262
263
264
265
266
267
268
269
270
271
272
273
274
275
276
277
278
279
280
281
282
283
284
285
286
287
288
289
290
291
292
293
294
295
296
297
298
299
300
301
302
303
304
305
306
307
308
309
310
311
312
313
314
315
316
317
318
319
320
321
322
323
324
325
326
327
328
329
330