<?xml version='1.0' encoding='UTF-8'?>
<VTKFile xmlns='VTK' byte_order='LittleEndian' version='0.1' type='UnstructuredGrid'>
<UnstructuredGrid>
<Piece NumberOfCells='584' NumberOfPoints='584'>
<Points>
<DataArray NumberOfComponents='3' type='Float32' Name='Position' format='ascii'>
-0.075000 -0.075000 0.000000
-0.075000 -0.050000 0.000000
-0.075000 -0.025000 0.000000
-0.075000 0.000000 0.000000
-0.075000 0.025000 0.000000
-0.075000 0.050000 0.000000
-0.075000 0.075000 0.000000
-0.075000 0.100000 0.000000
-0.075000 0.125000 0.000000
-0.075000 0.150000 0.000000
-0.075000 0.175000 0.000000
-0.075000 0.200000 0.000000
-0.075000 0.225000 0.000000
-0.075000 0.250000 0.000000
-0.075000 0.275000 0.000000
-0.075000 0.300000 0.000000
-0.075000 0.325000 0.000000
-0.075000 0.350000 0.000000
-0.075000 0.375000 0.000000
-0.075000 0.400000 0.000000
-0.075000 0.425000 0.000000
-0.075000 0.450000 0.000000
-0.075000 0.475000 0.000000
-0.075000 0.500000 0.000000
-0.075000 0.525000 0.000000
-0.075000 0.550000 0.000000
-0.075000 0.575000 0.000000
-0.075000 0.600000 0.000000
-0.050000 -0.075000 0.000000
-0.050000 -0.050000 0.000000
-0.050000 -0.025000 0.000000
-0.050000 0.000000 0.000000
-0.050000 0.025000 0.000000
-0.050000 0.050000 0.000000
-0.050000 0.075000 0.000000
-0.050000 0.100000 0.000000
-0.050000 0.125000 0.000000
-0.050000 0.150000 0.000000
-0.050000 0.175000 0.000000
-0.050000 0.200000 0.000000
-0.050000 0.225000 0.000000
-0.050000 0.250000 0.000000
-0.050000 0.275000 0.000000
-0.050000 0.300000 0.000000
-0.050000 0.325000 0.000000
-0.050000 0.350000 0.000000
-0.050000 0.375000 0.000000
-0.050000 0.400000 0.000000
-0.050000 0.425000 0.000000
-0.050000 0.450000 0.000000
-0.050000 0.475000 0.000000
-0.050000 0.500000 0.000000
-0.050000 0.525000 0.000000
-0.050000 0.550000 0.000000
-0.050000 0.575000 0.000000
-0.050000 0.600000 0.000000
-0.025000 -0.075000 0.000000
-0.025000 -0.050000 0.000000
-0.025000 -0.025000 0.000000
-0.025000 0.000000 0.000000
-0.025000 0.025000 0.000000
-0.025000 0.050000 0.000000
-0.025000 0.075000 0.000000
-0.025000 0.100000 0.000000
-0.025000 0.125000 0.000000
-0.025000 0.150000 0.000000
-0.025000 0.175000 0.000000
-0.025000 0.200000 0.000000
-0.025000 0.225000 0.000000
-0.025000 0.250000 0.000000
-0.025000 0.275000 0.000000
-0.025000 0.300000 0.000000
-0.025000 0.325000 0.000000
-0.025000 0.350000 0.000000
-0.025000 0.375000 0.000000
-0.025000 0.400000 0.000000
-0.025000 0.425000 0.000000
-0.025000 0.450000 0.000000
-0.025000 0.475000 0.000000
-0.025000 0.500000 0.000000
-0.025000 0.525000 0.000000
-0.025000 0.550000 0.000000
-0.025000 0.575000 0.000000
-0.025000 0.600000 0.000000
0.000000 -0.075000 0.000000
0.000000 -0.050000 0.000000
0.000000 -0.025000 0.000000
0.000000 0.000000 0.000000
0.000000 0.025000 0.000000
0.000000 0.050000 0.000000
0.000000 0.075000 0.000000
0.000000 0.100000 0.000000
0.000000 0.125000 0.000000
0.000000 0.150000 0.000000
0.000000 0.175000 0.000000
0.000000 0.200000 0.000000
0.000000 0.225000 0.000000
0.000000 0.250000 0.000000
0.000000 0.275000 0.000000
0.000000 0.300000 0.000000
0.000000 0.325000 0.000000
0.000000 0.350000 0.000000
0.000000 0.375000 0.000000
0.000000 0.400000 0.000000
0.000000 0.425000 0.000000
0.000000 0.450000 0.000000
0.000000 0.475000 0.000000
0.000000 0.500000 0.000000
0.000000 0.525000 0.000000
0.000000 0.550000 0.000000
0.000000 0.575000 0.000000
0.000000 0.600000 0.000000
0.025000 -0.075000 0.000000
0.025000 -0.050000 0.000000
0.025000 -0.025000 0.000000
0.025000 0.000000 0.000000
0.181565 0.047785 0.000000
0.149550 0.163021 0.000000
0.166740 0.030392 0.000000
0.189215 0.025651 0.000000
0.214195 0.048130 0.000000
0.118885 0.099948 0.000000
0.291338 0.025332 0.000000
0.203269 0.070652 0.000000
0.169868 0.095767 0.000000
0.121564 0.230679 0.000000
0.214478 0.023602 0.000000
0.090713 0.139157 0.000000
0.144488 0.023259 0.000000
0.111340 0.022442 0.000000
0.132995 0.142144 0.000000
0.065696 0.054434 0.000000
0.027894 0.182403 0.000000
0.074426 0.025889 0.000000
0.020803 0.148888 0.000000
0.159519 0.059728 0.000000
0.050000 -0.075000 0.000000
0.050000 -0.050000 0.000000
0.050000 -0.025000 0.000000
0.050000 0.000000 0.000000
0.104051 0.205600 0.000000
0.060024 0.137123 0.000000
0.069135 0.193468 0.000000
0.027647 0.023229 0.000000
0.027065 0.116399 0.000000
0.420594 0.062459 0.000000
0.184594 0.134326 0.000000
0.565793 0.021827 0.000000
0.091200 0.171290 0.000000
0.191423 0.212972 0.000000
0.100030 0.090769 0.000000
0.211310 0.123367 0.000000
0.027469 0.232300 0.000000
0.165039 0.248474 0.000000
0.109766 0.056411 0.000000
0.028763 0.045169 0.000000
0.192183 0.111200 0.000000
0.228850 0.106531 0.000000
0.103080 0.246920 0.000000
0.090381 0.072028 0.000000
0.075000 -0.075000 0.000000
0.075000 -0.050000 0.000000
0.075000 -0.025000 0.000000
0.075000 0.000000 0.000000
0.105545 0.122236 0.000000
0.151426 0.120246 0.000000
0.379557 0.059220 0.000000
0.319790 0.024032 0.000000
0.379886 0.089893 0.000000
0.620780 0.061663 0.000000
0.601946 0.081531 0.000000
0.049588 0.115425 0.000000
0.288647 0.123129 0.000000
0.572895 0.066884 0.000000
0.407362 0.026499 0.000000
0.081756 0.114204 0.000000
0.208617 0.092804 0.000000
0.204912 0.148798 0.000000
0.251486 0.080429 0.000000
0.051008 0.091009 0.000000
0.140523 0.104798 0.000000
0.051601 0.063544 0.000000
0.148205 0.079053 0.000000
0.130119 0.041079 0.000000
0.100000 -0.075000 0.000000
0.100000 -0.050000 0.000000
0.100000 -0.025000 0.000000
0.100000 0.000000 0.000000
0.470324 0.031363 0.000000
0.274506 0.162602 0.000000
0.483766 0.060913 0.000000
0.778581 0.030040 0.000000
0.230134 0.071470 0.000000
0.703405 0.028811 0.000000
0.559189 0.087386 0.000000
0.237122 0.051073 0.000000
0.655498 0.022970 0.000000
0.658066 0.046439 0.000000
0.438374 0.019545 0.000000
0.290627 0.154382 0.000000
0.501789 0.060227 0.000000
0.612379 0.036781 0.000000
0.058310 0.219405 0.000000
0.242277 0.026304 0.000000
0.510546 0.031070 0.000000
0.265841 0.065377 0.000000
0.301964 0.097217 0.000000
0.146879 0.198446 0.000000
0.125000 -0.075000 0.000000
0.125000 -0.050000 0.000000
0.125000 -0.025000 0.000000
0.125000 0.000000 0.000000
0.682801 0.053731 0.000000
0.641386 0.060622 0.000000
0.984964 0.055933 0.000000
0.828355 0.022339 0.000000
0.524964 0.070212 0.000000
0.592385 0.025667 0.000000
0.125037 0.212057 0.000000
0.435906 0.042636 0.000000
0.755180 0.071153 0.000000
0.721191 0.060989 0.000000
0.837133 0.058580 0.000000
0.457276 0.047651 0.000000
0.490546 0.023206 0.000000
0.381181 0.142165 0.000000
0.382600 0.023538 0.000000
0.371020 0.124031 0.000000
0.222310 0.168355 0.000000
0.129104 0.066104 0.000000
0.399645 0.133477 0.000000
0.073774 0.155340 0.000000
0.150000 -0.075000 0.000000
0.150000 -0.050000 0.000000
0.150000 -0.025000 0.000000
0.150000 0.000000 0.000000
0.171252 0.174647 0.000000
0.962497 0.020571 0.000000
0.669494 0.081580 0.000000
0.278716 0.045618 0.000000
0.881805 0.024267 0.000000
0.178739 0.077230 0.000000
0.904343 0.047179 0.000000
0.419993 0.088306 0.000000
0.941312 0.052550 0.000000
0.481837 0.105263 0.000000
0.925339 0.054023 0.000000
0.681800 0.024458 0.000000
0.829879 0.076186 0.000000
0.804527 0.070130 0.000000
0.751811 0.022947 0.000000
0.596697 0.061874 0.000000
0.629144 0.024612 0.000000
0.622217 0.106909 0.000000
0.656178 0.076816 0.000000
0.236159 0.148096 0.000000
0.175000 -0.075000 0.000000
0.175000 -0.050000 0.000000
0.175000 -0.025000 0.000000
0.175000 0.000000 0.000000
0.116785 0.146875 0.000000
0.528505 0.098399 0.000000
0.883096 0.044256 0.000000
0.772405 0.074885 0.000000
0.997458 0.024088 0.000000
0.169778 0.199179 0.000000
0.853435 0.026850 0.000000
0.337336 0.042825 0.000000
0.366534 0.040974 0.000000
0.912986 0.020763 0.000000
0.457738 0.071487 0.000000
0.737794 0.065664 0.000000
0.336234 0.097420 0.000000
0.940265 0.030416 0.000000
0.973679 0.042193 0.000000
0.400866 0.046811 0.000000
1.003657 0.047404 0.000000
0.439895 0.082944 0.000000
0.110932 0.181343 0.000000
0.362140 0.104463 0.000000
0.200000 -0.075000 0.000000
0.200000 -0.050000 0.000000
0.200000 -0.025000 0.000000
0.200000 0.000000 0.000000
0.319484 0.108486 0.000000
0.094165 0.035748 0.000000
0.259858 0.104700 0.000000
0.797094 0.023090 0.000000
0.338648 0.068478 0.000000
0.256958 0.156608 0.000000
0.572906 0.041984 0.000000
0.956664 0.073162 0.000000
0.335473 0.131400 0.000000
0.038092 0.143607 0.000000
0.788583 0.054205 0.000000
0.670737 0.114768 0.000000
0.052989 0.026131 0.000000
0.430307 0.111202 0.000000
0.532962 0.045494 0.000000
0.167547 0.225977 0.000000
0.706663 0.051130 0.000000
0.331213 0.146200 0.000000
0.849624 0.046138 0.000000
0.695769 0.089053 0.000000
0.225000 -0.075000 0.000000
0.225000 -0.050000 0.000000
0.225000 -0.025000 0.000000
0.225000 0.000000 0.000000
0.293015 0.069366 0.000000
0.812626 0.048845 0.000000
0.513728 0.098469 0.000000
0.204518 0.262461 0.000000
0.025182 0.202393 0.000000
0.083493 0.203378 0.000000
0.404366 0.116008 0.000000
0.887571 0.065224 0.000000
0.548746 0.060369 0.000000
0.058061 0.173470 0.000000
0.569491 0.095893 0.000000
0.156423 0.345290 0.000000
0.348205 0.024682 0.000000
0.396319 0.077660 0.000000
0.073552 0.089150 0.000000
0.197841 0.201970 0.000000
0.495329 0.091617 0.000000
0.021988 0.067077 0.000000
0.241552 0.125299 0.000000
0.306292 0.044710 0.000000
0.250000 -0.075000 0.000000
0.250000 -0.050000 0.000000
0.250000 -0.025000 0.000000
0.250000 0.000000 0.000000
0.729221 0.024320 0.000000
0.302229 0.171400 0.000000
0.216509 0.183316 0.000000
0.279902 0.093865 0.000000
0.262562 0.023502 0.000000
0.313991 0.144606 0.000000
0.134439 0.183058 0.000000
0.250698 0.191249 0.000000
0.238561 0.202313 0.000000
0.460943 0.100864 0.000000
0.185853 0.161896 0.000000
0.042539 0.219769 0.000000
0.162735 0.140682 0.000000
0.533865 0.024501 0.000000
0.355885 0.080404 0.000000
0.314813 0.070067 0.000000
0.266035 0.128601 0.000000
0.755558 0.047310 0.000000
0.026195 0.092379 0.000000
0.488664 0.134233 0.000000
0.275000 -0.075000 0.000000
0.275000 -0.050000 0.000000
0.275000 -0.025000 0.000000
0.275000 0.000000 0.000000
0.300000 -0.075000 0.000000
0.300000 -0.050000 0.000000
0.300000 -0.025000 0.000000
0.300000 0.000000 0.000000
0.325000 -0.075000 0.000000
0.325000 -0.050000 0.000000
0.325000 -0.025000 0.000000
0.325000 0.000000 0.000000
0.350000 -0.075000 0.000000
0.350000 -0.050000 0.000000
0.350000 -0.025000 0.000000
0.350000 0.000000 0.000000
0.375000 -0.075000 0.000000
0.375000 -0.050000 0.000000
0.375000 -0.025000 0.000000
0.375000 0.000000 0.000000
0.400000 -0.075000 0.000000
0.400000 -0.050000 0.000000
0.400000 -0.025000 0.000000
0.400000 0.000000 0.000000
0.425000 -0.075000 0.000000
0.425000 -0.050000 0.000000
0.425000 -0.025000 0.000000
0.425000 0.000000 0.000000
0.450000 -0.075000 0.000000
0.450000 -0.050000 0.000000
0.450000 -0.025000 0.000000
0.450000 0.000000 0.000000
0.475000 -0.075000 0.000000
0.475000 -0.050000 0.000000
0.475000 -0.025000 0.000000
0.475000 0.000000 0.000000
0.500000 -0.075000 0.000000
0.500000 -0.050000 0.000000
0.500000 -0.025000 0.000000
0.500000 0.000000 0.000000
0.525000 -0.075000 0.000000
0.525000 -0.050000 0.000000
0.525000 -0.025000 0.000000
0.525000 0.000000 0.000000
0.550000 -0.075000 0.000000
0.550000 -0.050000 0.000000
0.550000 -0.025000 0.000000
0.550000 0.000000 0.000000
0.575000 -0.075000 0.000000
0.575000 -0.050000 0.000000
0.575000 -0.025000 0.000000
0.575000 0.000000 0.000000
0.600000 -0.075000 0.000000
0.600000 -0.050000 0.000000
0.600000 -0.025000 0.000000
0.600000 0.000000 0.000000
0.625000 -0.075000 0.000000
0.625000 -0.050000 0.000000
0.625000 -0.025000 0.000000
0.625000 0.000000 0.000000
0.650000 -0.075000 0.000000
0.650000 -0.050000 0.000000
0.650000 -0.025000 0.000000
0.650000 0.000000 0.000000
0.675000 -0.075000 0.000000
0.675000 -0.050000 0.000000
0.675000 -0.025000 0.000000
0.675000 0.000000 0.000000
0.700000 -0.075000 0.000000
0.700000 -0.050000 0.000000
0.700000 -0.025000 0.000000
0.700000 0.000000 0.000000
0.725000 -0.075000 0.000000
0.725000 -0.050000 0.000000
0.725000 -0.025000 0.000000
0.725000 0.000000 0.000000
0.750000 -0.075000 0.000000
0.750000 -0.050000 0.000000
0.750000 -0.025000 0.000000
0.750000 0.000000 0.000000
0.775000 -0.075000 0.000000
0.775000 -0.050000 0.000000
0.775000 -0.025000 0.000000
0.775000 0.000000 0.000000
0.800000 -0.075000 0.000000
0.800000 -0.050000 0.000000
0.800000 -0.025000 0.000000
0.800000 0.000000 0.000000
0.825000 -0.075000 0.000000
0.825000 -0.050000 0.000000
0.825000 -0.025000 0.000000
0.825000 0.000000 0.000000
0.850000 -0.075000 0.000000
0.850000 -0.050000 0.000000
0.850000 -0.025000 0.000000
0.850000 0.000000 0.000000
0.875000 -0.075000 0.000000
0.875000 -0.050000 0.000000
0.875000 -0.025000 0.000000
0.875000 0.000000 0.000000
0.900000 -0.075000 0.000000
0.900000 -0.050000 0.000000
0.900000 -0.025000 0.000000
0.900000 0.000000 0.000000
0.925000 -0.075000 0.000000
0.925000 -0.050000 0.000000
0.925000 -0.025000 0.000000
0.925000 0.000000 0.000000
0.950000 -0.075000 0.000000
0.950000 -0.050000 0.000000
0.950000 -0.025000 0.000000
0.950000 0.000000 0.000000
0.975000 -0.075000 0.000000
0.975000 -0.050000 0.000000
0.975000 -0.025000 0.000000
0.975000 0.000000 0.000000
1.000000 -0.075000 0.000000
1.000000 -0.050000 0.000000
1.000000 -0.025000 0.000000
1.000000 0.000000 0.000000
1.025000 -0.075000 0.000000
1.025000 -0.050000 0.000000
1.025000 -0.025000 0.000000
1.025000 0.000000 0.000000
1.025000 0.025000 0.000000
1.025000 0.050000 0.000000
1.025000 0.075000 0.000000
1.025000 0.100000 0.000000
1.025000 0.125000 0.000000
1.025000 0.150000 0.000000
1.025000 0.175000 0.000000
1.025000 0.200000 0.000000
1.025000 0.225000 0.000000
1.025000 0.250000 0.000000
1.025000 0.275000 0.000000
1.025000 0.300000 0.000000
1.025000 0.325000 0.000000
1.025000 0.350000 0.000000
1.025000 0.375000 0.000000
1.025000 0.400000 0.000000
1.025000 0.425000 0.000000
1.025000 0.450000 0.000000
1.025000 0.475000 0.000000
1.025000 0.500000 0.000000
1.025000 0.525000 0.000000
1.025000 0.550000 0.000000
1.025000 0.575000 0.000000
1.025000 0.600000 0.000000
1.050000 -0.075000 0.000000
1.050000 -0.050000 0.000000
1.050000 -0.025000 0.000000
1.050000 0.000000 0.000000
1.050000 0.025000 0.000000
1.050000 0.050000 0.000000
1.050000 0.075000 0.000000
1.050000 0.100000 0.000000
1.050000 0.125000 0.000000
1.050000 0.150000 0.000000
1.050000 0.175000 0.000000
1.050000 0.200000 0.000000
1.050000 0.225000 0.000000
1.050000 0.250000 0.000000
1.050000 0.275000 0.000000
1.050000 0.300000 0.000000
1.050000 0.325000 0.000000
1.050000 0.350000 0.000000
1.050000 0.375000 0.000000
1.050000 0.400000 0.000000
1.050000 0.425000 0.000000
1.050000 0.450000 0.000000
1.050000 0.475000 0.000000
1.050000 0.500000 0.000000
1.050000 0.525000 0.000000
1.050000 0.550000 0.000000
1.050000 0.575000 0.000000
1.050000 0.600000 0.000000
1.075000 -0.075000 0.000000
1.075000 -0.050000 0.000000
1.075000 -0.025000 0.000000
1.075000 0.000000 0.000000
1.075000 0.025000 0.000000
1.075000 0.050000 0.000000
1.075000 0.075000 0.000000
1.075000 0.100000 0.000000
1.075000 0.125000 0.000000
1.075000 0.150000 0.000000
1.075000 0.175000 0.000000
1.075000 0.200000 0.000000
1.075000 0.225000 0.000000
1.075000 0.250000 0.000000
1.075000 0.275000 0.000000
1.075000 0.300000 0.000000
1.075000 0.325000 0.000000
1.075000 0.350000 0.000000
1.075000 0.375000 0.000000
1.075000 0.400000 0.000000
1.075000 0.425000 0.000000
1.075000 0.450000 0.000000
1.075000 0.475000 0.000000
1.075000 0.500000 0.000000
1.075000 0.525000 0.000000
1.075000 0.550000 0.000000
1.075000 0.575000 0.000000
1.075000 0.600000 0.000000
1.100000 -0.075000 0.000000
1.100000 -0.050000 0.000000
1.100000 -0.025000 0.000000
1.100000 0.000000 0.000000
1.100000 0.025000 0.000000
1.100000 0.050000 0.000000
1.100000 0.075000 0.000000
1.100000 0.100000 0.000000
1.100000 0.125000 0.000000
1.100000 0.150000 0.000000
1.100000 0.175000 0.000000
1.100000 0.200000 0.000000
1.100000 0.225000 0.000000
1.100000 0.250000 0.000000
1.100000 0.275000 0.000000
1.100000 0.300000 0.000000
1.100000 0.325000 0.000000
1.100000 0.350000 0.000000
1.100000 0.375000 0.000000
1.100000 0.400000 0.000000
1.100000 0.425000 0.000000
1.100000 0.450000 0.000000
1.100000 0.475000 0.000000
1.100000 0.500000 0.000000
1.100000 0.525000 0.000000
1.100000 0.550000 0.000000
1.100000 0.575000 0.000000
1.100000 0.600000 0.000000
</DataArray>
</Points>
<PointData>
<DataArray NumberOfComponents='1' type='Int32' Name='ParticleType' format='ascii'>
3
3
3
3
3
3
3
3
3
3
3
3
3
3
3
3
3
3
3
3
3
3
3
3
3
3
2
2
3
3
3
3
3
3
3
3
3
3
3
3
3
3
3
3
3
3
3
3
3
3
3
3
3
3
2
2
3
3
2
2
2
2
2
2
2
2
2
2
2
2
2
2
2
2
2
2
2
2
2
2
2
2
2
2
3
3
2
2
2
2
2
2
2
2
2
2
2
2
2
2
2
2
2
2
2
2
2
2
2
2
2
2
3
3
2
2
0
0
0
0
0
0
0
0
0
0
0
0
0
0
0
0
0
0
0
0
3
3
2
2
0
0
0
0
0
0
0
0
0
0
0
0
0
0
0
0
0
0
0
0
3
3
2
2
0
0
0
0
0
0
0
0
0
0
0
0
0
0
0
0
0
0
0
0
3
3
2
2
0
0
0
0
0
0
0
0
0
0
0
0
0
0
0
0
0
0
0
0
3
3
2
2
0
0
0
0
0
0
0
0
0
0
0
0
0
0
0
0
0
0
0
0
3
3
2
2
0
0
0
0
0
0
0
0
0
0
0
0
0
0
0
0
0
0
0
0
3
3
2
2
0
0
0
0
0
0
0
0
0
0
0
0
0
0
0
0
0
0
0
0
3
3
2
2
0
0
0
0
0
0
0
0
0
0
0
0
0
0
0
0
0
0
0
0
3
3
2
2
0
0
0
0
0
0
0
0
0
0
0
0
0
0
0
0
0
0
0
0
3
3
2
2
0
0
0
0
0
0
0
0
0
0
0
0
0
0
0
0
0
0
0
0
3
3
2
2
3
3
2
2
3
3
2
2
3
3
2
2
3
3
2
2
3
3
2
2
3
3
2
2
3
3
2
2
3
3
2
2
3
3
2
2
3
3
2
2
3
3
2
2
3
3
2
2
3
3
2
2
3
3
2
2
3
3
2
2
3
3
2
2
3
3
2
2
3
3
2
2
3
3
2
2
3
3
2
2
3
3
2
2
3
3
2
2
3
3
2
2
3
3
2
2
3
3
2
2
3
3
2
2
3
3
2
2
3
3
2
2
3
3
2
2
3
3
2
2
2
2
2
2
2
2
2
2
2
2
2
2
2
2
2
2
2
2
2
2
2
2
2
2
3
3
2
2
2
2
2
2
2
2
2
2
2
2
2
2
2
2
2
2
2
2
2
2
2
2
2
2
3
3
3
3
3
3
3
3
3
3
3
3
3
3
3
3
3
3
3
3
3
3
3
3
3
3
2
2
3
3
3
3
3
3
3
3
3
3
3
3
3
3
3
3
3
3
3
3
3
3
3
3
3
3
2
2
</DataArray>
<DataArray NumberOfComponents='1' type='Float32' Name='Velocity' format='ascii'>
0.000000
0.000000
0.000000
0.000000
0.000000
0.000000
0.000000
0.000000
0.000000
0.000000
0.000000
0.000000
0.000000
0.000000
0.000000
0.000000
0.000000
0.000000
0.000000
0.000000
0.000000
0.000000
0.000000
0.000000
0.000000
0.000000
0.000000
0.000000
0.000000
0.000000
0.000000
0.000000
0.000000
0.000000
0.000000
0.000000
0.000000
0.000000
0.000000
0.000000
0.000000
0.000000
0.000000
0.000000
0.000000
0.000000
0.000000
0.000000
0.000000
0.000000
0.000000
0.000000
0.000000
0.000000
0.000000
0.000000
0.000000
0.000000
0.000000
0.000000
0.000000
0.000000
0.000000
0.000000
0.000000
0.000000
0.000000
0.000000
0.000000
0.000000
0.000000
0.000000
0.000000
0.000000
0.000000
0.000000
0.000000
0.000000
0.000000
0.000000
0.000000
0.000000
0.000000
0.000000
0.000000
0.000000
0.000000
0.000000
0.000000
0.000000
0.000000
0.000000
0.000000
0.000000
0.000000
0.000000
0.000000
0.000000
0.000000
0.000000
0.000000
0.000000
0.000000
0.000000
0.000000
0.000000
0.000000
0.000000
0.000000
0.000000
0.000000
0.000000
0.000000
0.000000
0.000000
0.000000
0.479000
0.300701
0.568093
0.243719
0.106462
0.344586
0.264895
0.347071
0.248554
0.586961
0.472841
0.397630
0.603144
0.283055
0.326943
0.124041
0.794758
0.137516
0.556955
0.464133
0.000000
0.000000
0.000000
0.000000
0.436457
0.100996
0.498073
0.132059
0.579119
0.065160
0.496775
0.184840
0.459375
0.548764
0.553056
0.322471
0.682650
0.853904
0.600830
0.476580
0.112301
0.244615
0.391107
0.107511
0.000000
0.000000
0.000000
0.000000
0.383190
0.218413
0.357096
0.321859
0.377375
0.668145
0.596074
0.230907
0.246860
0.368059
0.244041
0.205656
0.308508
0.716176
0.285016
0.281480
0.301418
0.083755
0.321715
0.296977
0.000000
0.000000
0.000000
0.000000
0.129232
0.516390
0.354062
0.158931
0.385280
0.119103
0.415447
0.032314
0.244605
0.165456
0.120581
0.103351
0.133144
0.191817
0.279469
0.212589
0.259673
0.387397
0.174923
0.582385
0.000000
0.000000
0.000000
0.000000
0.347865
0.304017
0.176004
0.079064
0.307030
0.085450
0.151877
0.338493
0.166918
0.096575
0.374161
0.238652
0.088420
0.721158
0.147491
0.194536
0.280925
0.209935
0.450013
0.522929
0.000000
0.000000
0.000000
0.000000
0.289231
0.076434
0.437378
0.090536
0.174058
0.335723
0.197528
0.502714
0.261567
0.617520
0.744971
0.311338
0.196475
0.320819
0.385614
0.341913
0.154519
0.223339
0.538355
0.461444
0.000000
0.000000
0.000000
0.000000
0.259282
0.138338
0.200919
0.461878
0.162366
0.447735
0.031297
0.259712
0.256929
0.085941
0.313811
0.237867
0.332360
0.125442
0.171406
0.001995
0.164597
0.328987
0.523934
0.224450
0.000000
0.000000
0.000000
0.000000
0.413644
0.340269
0.183300
0.099534
0.354624
0.503034
0.269830
0.457530
0.583272
0.225013
0.347733
0.419236
0.230435
0.562113
0.466912
1.604107
0.157700
0.069493
0.452618
0.462505
0.000000
0.000000
0.000000
0.000000
0.453870
0.135708
0.397138
0.477903
0.239041
0.704709
0.345096
0.253579
0.482111
1.061100
0.347042
1.235043
0.137738
0.199946
0.189602
0.395260
0.628476
0.208040
0.381543
0.385299
0.000000
0.000000
0.000000
0.000000
0.338757
0.454949
0.229801
0.141561
0.296370
0.474565
0.425851
0.484662
0.213855
0.353112
0.351476
0.764970
0.526978
0.324523
0.371673
0.244669
0.269612
0.157399
0.388860
0.382327
0.000000
0.000000
0.000000
0.000000
0.000000
0.000000
0.000000
0.000000
0.000000
0.000000
0.000000
0.000000
0.000000
0.000000
0.000000
0.000000
0.000000
0.000000
0.000000
0.000000
0.000000
0.000000
0.000000
0.000000
0.000000
0.000000
0.000000
0.000000
0.000000
0.000000
0.000000
0.000000
0.000000
0.000000
0.000000
0.000000
0.000000
0.000000
0.000000
0.000000
0.000000
0.000000
0.000000
0.000000
0.000000
0.000000
0.000000
0.000000
0.000000
0.000000
0.000000
0.000000
0.000000
0.000000
0.000000
0.000000
0.000000
0.000000
0.000000
0.000000
0.000000
0.000000
0.000000
0.000000
0.000000
0.000000
0.000000
0.000000
0.000000
0.000000
0.000000
0.000000
0.000000
0.000000
0.000000
0.000000
0.000000
0.000000
0.000000
0.000000
0.000000
0.000000
0.000000
0.000000
0.000000
0.000000
0.000000
0.000000
0.000000
0.000000
0.000000
0.000000
0.000000
0.000000
0.000000
0.000000
0.000000
0.000000
0.000000
0.000000
0.000000
0.000000
0.000000
0.000000
0.000000
0.000000
0.000000
0.000000
0.000000
0.000000
0.000000
0.000000
0.000000
0.000000
0.000000
0.000000
0.000000
0.000000
0.000000
0.000000
0.000000
0.000000
0.000000
0.000000
0.000000
0.000000
0.000000
0.000000
0.000000
0.000000
0.000000
0.000000
0.000000
0.000000
0.000000
0.000000
0.000000
0.000000
0.000000
0.000000
0.000000
0.000000
0.000000
0.000000
0.000000
0.000000
0.000000
0.000000
0.000000
0.000000
0.000000
0.000000
0.000000
0.000000
0.000000
0.000000
0.000000
0.000000
0.000000
0.000000
0.000000
0.000000
0.000000
0.000000
0.000000
0.000000
0.000000
0.000000
0.000000
0.000000
0.000000
0.000000
0.000000
0.000000
0.000000
0.000000
0.000000
0.000000
0.000000
0.000000
0.000000
0.000000
0.000000
0.000000
0.000000
0.000000
0.000000
0.000000
0.000000
0.000000
0.000000
0.000000
0.000000
0.000000
0.000000
0.000000
0.000000
0.000000
0.000000
0.000000
0.000000
0.000000
0.000000
0.000000
0.000000
0.000000
0.000000
0.000000
0.000000
0.000000
0.000000
0.000000
0.000000
0.000000
0.000000
0.000000
0.000000
0.000000
0.000000
0.000000
0.000000
0.000000
0.000000
0.000000
0.000000
0.000000
0.000000
0.000000
0.000000
0.000000
0.000000
0.000000
</DataArray>
<DataArray NumberOfComponents='1' type='Float32' Name='pressure' format='ascii'>
0.000000
0.000000
0.000000
0.000000
0.000000
0.000000
0.000000
0.000000
0.000000
0.000000
0.000000
0.000000
0.000000
0.000000
0.000000
0.000000
0.000000
0.000000
0.000000
0.000000
0.000000
0.000000
0.000000
0.000000
0.000000
0.000000
0.000000
0.000000
0.000000
0.000000
0.000000
0.000000
0.000000
0.000000
0.000000
0.000000
0.000000
0.000000
0.000000
0.000000
0.000000
0.000000
0.000000
0.000000
0.000000
0.000000
0.000000
0.000000
0.000000
0.000000
0.000000
0.000000
0.000000
0.000000
0.000000
0.000000
0.000000
0.000000
646.903259
365.501038
0.000000
260.727905
997.570679
0.000000
0.000000
1876.375488
0.000000
0.000000
0.000000
0.000000
0.000000
0.000000
0.000000
0.000000
0.000000
0.000000
0.000000
0.000000
0.000000
0.000000
0.000000
0.000000
0.000000
0.000000
0.000000
0.000000
973.853333
374.591003
0.000000
252.764557
1652.037354
0.000000
0.000000
2798.157959
0.000000
0.000000
0.000000
0.000000
0.000000
0.000000
0.000000
0.000000
0.000000
0.000000
0.000000
0.000000
0.000000
0.000000
0.000000
0.000000
0.000000
0.000000
0.000000
0.000000
1856.697266
2735.511963
401.518494
0.000000
895.752808
1714.824829
996.103333
836.322998
1277.400635
1127.371460
0.000000
0.000000
1249.004150
157.858963
560.558472
2696.993408
489.578186
154.829605
0.000000
998.438293
1018.154663
1247.057983
0.000000
0.000000
910.178650
1586.638794
0.000000
1198.748413
850.524597
1726.056152
688.616089
52.939037
1206.269775
1596.044800
0.000000
0.000000
2124.677979
1580.265869
0.000000
0.000000
595.069397
536.466187
1021.813660
455.272217
0.000000
0.000000
0.000000
0.000000
893.388123
761.562500
0.000000
608.257935
959.699646
1398.085083
0.000000
0.000000
0.000000
531.725586
0.000000
1214.557007
423.334839
0.000000
984.319519
1342.912598
917.626221
0.000000
1110.541138
1015.131165
1199.187988
664.510925
0.000000
0.000000
1615.879150
525.787415
1609.090332
0.000000
0.000000
1004.262390
1092.486938
1058.452026
0.000000
960.671875
723.746704
1420.687500
1209.524048
96.740616
0.000000
761.773621
0.000000
936.200256
1095.694580
1001.577148
0.000000
0.000000
0.000000
0.000000
1638.527466
1318.146729
0.000000
476.090424
0.000000
0.000000
0.000000
43.105534
0.000000
376.959290
0.000000
446.763855
0.000000
1554.719727
1980.013062
0.000000
900.145691
0.000000
1832.504639
93.492531
0.000000
1441.256592
0.000000
0.000000
1565.809448
1432.148804
2459.293701
2332.753174
0.000000
330.955811
1681.202148
947.111084
0.000000
0.000000
0.000000
0.000000
0.000000
635.873047
0.000000
0.000000
0.000000
767.725220
0.000000
0.000000
0.000000
0.000000
0.000000
0.000000
111.948524
173.094589
64.846062
0.000000
928.158142
0.000000
76.440308
0.000000
366.868134
96.783829
216.878250
1049.484497
0.000000
0.000000
0.000000
1067.334473
625.577881
1530.278198
0.000000
1100.600708
0.000000
0.000000
0.000000
0.000000
930.017517
499.631073
730.908081
830.424011
386.089813
0.000000
633.562988
0.000000
218.131027
0.000000
0.000000
476.195343
0.000000
0.000000
522.728455
0.000000
1181.172241
0.000000
480.212219
0.000000
0.000000
0.000000
0.000000
0.000000
1391.269897
1528.041748
1367.783813
338.318848
0.000000
0.000000
0.000000
0.000000
0.000000
0.000000
175.763931
0.000000
0.000000
0.000000
1616.512817
0.000000
0.000000
59.176838
258.321564
1400.990356
2141.510986
2047.645142
0.000000
0.000000
1681.388672
2344.699951
0.000000
0.000000
0.000000
1691.677124
1247.178345
0.000000
1616.488281
0.000000
0.000000
0.000000
1316.645386
0.000000
1234.408569
733.232239
1885.175781
1572.948730
486.873688
707.293701
0.000000
0.000000
0.000000
0.000000
1444.324463
1713.184937
0.000000
0.000000
1062.974854
505.426575
0.000000
0.000000
1700.975342
2225.483154
0.000000
0.000000
1513.350220
1678.708618
0.000000
0.000000
1513.428589
566.129395
0.000000
0.000000
1000.768738
200.492401
0.000000
0.000000
2838.420898
1561.245361
0.000000
0.000000
3045.544678
1627.423950
0.000000
0.000000
1151.744995
0.000000
0.000000
0.000000
1410.508301
1581.012451
0.000000
0.000000
978.550476
541.881287
0.000000
0.000000
1438.288452
0.000000
0.000000
0.000000
1919.340698
2501.293701
0.000000
0.000000
592.880188
0.000000
0.000000
0.000000
1086.797363
502.537903
0.000000
0.000000
1732.300537
2686.822266
0.000000
0.000000
1102.046143
1458.027588
0.000000
0.000000
0.000000
0.000000
0.000000
0.000000
531.153625
329.010986
0.000000
0.000000
1244.728882
2253.534180
0.000000
0.000000
0.000000
0.000000
0.000000
0.000000
1406.676636
1155.284180
0.000000
0.000000
1641.554443
1033.536011
0.000000
0.000000
225.345154
19.016275
0.000000
0.000000
909.992798
0.000000
0.000000
0.000000
2192.094727
1191.710938
0.000000
0.000000
2774.653809
556.850769
0.000000
0.000000
3000.113525
1973.049194
0.000000
0.000000
2629.258301
1752.210571
0.000000
0.000000
1200.816162
0.000000
0.000000
0.000000
323.051453
0.000000
0.000000
17.143597
0.000000
0.000000
0.000000
0.000000
0.000000
0.000000
0.000000
0.000000
0.000000
0.000000
0.000000
0.000000
0.000000
0.000000
0.000000
0.000000
0.000000
0.000000
0.000000
0.000000
0.000000
0.000000
0.000000
0.000000
72.929878
0.000000
0.000000
1022.559387
0.000000
0.000000
0.000000
0.000000
0.000000
0.000000
0.000000
0.000000
0.000000
0.000000
0.000000
0.000000
0.000000
0.000000
0.000000
0.000000
0.000000
0.000000
0.000000
0.000000
0.000000
0.000000
0.000000
0.000000
0.000000
0.000000
0.000000
0.000000
0.000000
0.000000
0.000000
0.000000
0.000000
0.000000
0.000000
0.000000
0.000000
0.000000
0.000000
0.000000
0.000000
0.000000
0.000000
0.000000
0.000000
0.000000
0.000000
0.000000
0.000000
0.000000
0.000000
0.000000
0.000000
0.000000
0.000000
0.000000
0.000000
0.000000
0.000000
0.000000
0.000000
0.000000
0.000000
0.000000
0.000000
0.000000
0.000000
0.000000
0.000000
0.000000
0.000000
0.000000
0.000000
0.000000
0.000000
0.000000
0.000000
0.000000
</DataArray>
</PointData>
<Cells>
<DataArray type='Int32' Name='connectivity' format='ascii'>
0
1
2
3
4
5
6
7
8
9
10
11
12
13
14
15
16
17
18
19
20
21
22
23
24
25
26
27
28
29
30
31
32
33
34
35
36
37
38
39
40
41
42
43
44
45
46
47
48
49
50
51
52
53
54
55
56
57
58
59
60
61
62
63
64
65
66
67
68
69
70
71
72
73
74
75
76
77
78
79
80
81
82
83
84
85
86
87
88
89
90
91
92
93
94
95
96
97
98
99
100
101
102
103
104
105
106
107
108
109
110
111
112
113
114
115
116
117
118
119
120
121
122
123
124
125
126
127
128
129
130
131
132
133
134
135
136
137
138
139
140
141
142
143
144
145
146
147
148
149
150
151
152
153
154
155
156
157
158
159
160
161
162
163
164
165
166
167
168
169
170
171
172
173
174
175
176
177
178
179
180
181
182
183
184
185
186
187
188
189
190
191
192
193
194
195
196
197
198
199
200
201
202
203
204
205
206
207
208
209
210
211
212
213
214
215
216
217
218
219
220
221
222
223
224
225
226
227
228
229
230
231
232
233
234
235
236
237
238
239
240
241
242
243
244
245
246
247
248
249
250
251
252
253
254
255
256
257
258
259
260
261
262
263
264
265
266
267
268
269
270
271
272
273
274
275
276
277
278
279
280
281
282
283
284
285
286
287
288
289
290
291
292
293
294
295
296
297
298
299
300
301
302
303
304
305
306
307
308
309
310
311
312
313
314
315