<?xml version='1.0' encoding='UTF-8'?>
<VTKFile xmlns='VTK' byte_order='LittleEndian' version='0.1' type='UnstructuredGrid'>
<UnstructuredGrid>
<Piece NumberOfCells='584' NumberOfPoints='584'>
<Points>
<DataArray NumberOfComponents='3' type='Float32' Name='Position' format='ascii'>
-0.075000 -0.075000 0.000000
-0.075000 -0.050000 0.000000
-0.075000 -0.025000 0.000000
-0.075000 0.000000 0.000000
-0.075000 0.025000 0.000000
-0.075000 0.050000 0.000000
-0.075000 0.075000 0.000000
-0.075000 0.100000 0.000000
-0.075000 0.125000 0.000000
-0.075000 0.150000 0.000000
-0.075000 0.175000 0.000000
-0.075000 0.200000 0.000000
-0.075000 0.225000 0.000000
-0.075000 0.250000 0.000000
-0.075000 0.275000 0.000000
-0.075000 0.300000 0.000000
-0.075000 0.325000 0.000000
-0.075000 0.350000 0.000000
-0.075000 0.375000 0.000000
-0.075000 0.400000 0.000000
-0.075000 0.425000 0.000000
-0.075000 0.450000 0.000000
-0.075000 0.475000 0.000000
-0.075000 0.500000 0.000000
-0.075000 0.525000 0.000000
-0.075000 0.550000 0.000000
-0.075000 0.575000 0.000000
-0.075000 0.600000 0.000000
-0.050000 -0.075000 0.000000
-0.050000 -0.050000 0.000000
-0.050000 -0.025000 0.000000
-0.050000 0.000000 0.000000
-0.050000 0.025000 0.000000
-0.050000 0.050000 0.000000
-0.050000 0.075000 0.000000
-0.050000 0.100000 0.000000
-0.050000 0.125000 0.000000
-0.050000 0.150000 0.000000
-0.050000 0.175000 0.000000
-0.050000 0.200000 0.000000
-0.050000 0.225000 0.000000
-0.050000 0.250000 0.000000
-0.050000 0.275000 0.000000
-0.050000 0.300000 0.000000
-0.050000 0.325000 0.000000
-0.050000 0.350000 0.000000
-0.050000 0.375000 0.000000
-0.050000 0.400000 0.000000
-0.050000 0.425000 0.000000
-0.050000 0.450000 0.000000
-0.050000 0.475000 0.000000
-0.050000 0.500000 0.000000
-0.050000 0.525000 0.000000
-0.050000 0.550000 0.000000
-0.050000 0.575000 0.000000
-0.050000 0.600000 0.000000
-0.025000 -0.075000 0.000000
-0.025000 -0.050000 0.000000
-0.025000 -0.025000 0.000000
-0.025000 0.000000 0.000000
-0.025000 0.025000 0.000000
-0.025000 0.050000 0.000000
-0.025000 0.075000 0.000000
-0.025000 0.100000 0.000000
-0.025000 0.125000 0.000000
-0.025000 0.150000 0.000000
-0.025000 0.175000 0.000000
-0.025000 0.200000 0.000000
-0.025000 0.225000 0.000000
-0.025000 0.250000 0.000000
-0.025000 0.275000 0.000000
-0.025000 0.300000 0.000000
-0.025000 0.325000 0.000000
-0.025000 0.350000 0.000000
-0.025000 0.375000 0.000000
-0.025000 0.400000 0.000000
-0.025000 0.425000 0.000000
-0.025000 0.450000 0.000000
-0.025000 0.475000 0.000000
-0.025000 0.500000 0.000000
-0.025000 0.525000 0.000000
-0.025000 0.550000 0.000000
-0.025000 0.575000 0.000000
-0.025000 0.600000 0.000000
0.000000 -0.075000 0.000000
0.000000 -0.050000 0.000000
0.000000 -0.025000 0.000000
0.000000 0.000000 0.000000
0.000000 0.025000 0.000000
0.000000 0.050000 0.000000
0.000000 0.075000 0.000000
0.000000 0.100000 0.000000
0.000000 0.125000 0.000000
0.000000 0.150000 0.000000
0.000000 0.175000 0.000000
0.000000 0.200000 0.000000
0.000000 0.225000 0.000000
0.000000 0.250000 0.000000
0.000000 0.275000 0.000000
0.000000 0.300000 0.000000
0.000000 0.325000 0.000000
0.000000 0.350000 0.000000
0.000000 0.375000 0.000000
0.000000 0.400000 0.000000
0.000000 0.425000 0.000000
0.000000 0.450000 0.000000
0.000000 0.475000 0.000000
0.000000 0.500000 0.000000
0.000000 0.525000 0.000000
0.000000 0.550000 0.000000
0.000000 0.575000 0.000000
0.000000 0.600000 0.000000
0.025000 -0.075000 0.000000
0.025000 -0.050000 0.000000
0.025000 -0.025000 0.000000
0.025000 0.000000 0.000000
0.221183 0.027025 0.000000
0.191972 0.022764 0.000000
0.161276 0.024147 0.000000
0.117008 0.024811 0.000000
0.290255 0.050606 0.000000
0.067255 0.022582 0.000000
0.371055 0.033228 0.000000
0.240246 0.024818 0.000000
0.136017 0.028086 0.000000
0.109273 0.049346 0.000000
0.184167 0.041337 0.000000
0.159489 0.046729 0.000000
0.089783 0.026517 0.000000
0.025084 0.022104 0.000000
0.030988 0.043251 0.000000
0.029046 0.066808 0.000000
0.075818 0.047289 0.000000
0.066465 0.074823 0.000000
0.034350 0.080494 0.000000
0.080029 0.074017 0.000000
0.050000 -0.075000 0.000000
0.050000 -0.050000 0.000000
0.050000 -0.025000 0.000000
0.050000 0.000000 0.000000
0.265255 0.026294 0.000000
0.335483 0.079531 0.000000
0.457902 0.056758 0.000000
0.432744 0.058343 0.000000
0.427845 0.078949 0.000000
0.479310 0.085524 0.000000
0.388901 0.048369 0.000000
0.561179 0.056496 0.000000
0.308012 0.023298 0.000000
0.328405 0.028665 0.000000
0.399377 0.067375 0.000000
0.318251 0.066344 0.000000
0.052038 0.043410 0.000000
0.349754 0.048584 0.000000
0.178320 0.080140 0.000000
0.216396 0.053388 0.000000
0.143648 0.066283 0.000000
0.188877 0.068045 0.000000
0.102323 0.077340 0.000000
0.113868 0.067340 0.000000
0.075000 -0.075000 0.000000
0.075000 -0.050000 0.000000
0.075000 -0.025000 0.000000
0.075000 0.000000 0.000000
0.282710 0.029646 0.000000
0.412830 0.044242 0.000000
0.426170 0.025779 0.000000
0.395382 0.021127 0.000000
0.610256 0.050141 0.000000
0.671327 0.022159 0.000000
0.696475 0.026668 0.000000
0.487925 0.068071 0.000000
0.629489 0.085387 0.000000
0.629496 0.037561 0.000000
0.466528 0.039526 0.000000
0.347586 0.130008 0.000000
0.355936 0.077610 0.000000
0.298062 0.065443 0.000000
0.262199 0.077129 0.000000
0.213892 0.076587 0.000000
0.233779 0.068188 0.000000
0.368620 0.074895 0.000000
0.309769 0.084942 0.000000
0.157712 0.075127 0.000000
0.100000 -0.075000 0.000000
0.100000 -0.050000 0.000000
0.100000 -0.025000 0.000000
0.100000 0.000000 0.000000
0.485584 0.023551 0.000000
0.453374 0.022964 0.000000
0.649852 0.033068 0.000000
0.871017 0.021616 0.000000
0.350073 0.024913 0.000000
0.777171 0.022477 0.000000
0.800304 0.046218 0.000000
0.764782 0.068386 0.000000
0.717964 0.030730 0.000000
0.741358 0.021799 0.000000
0.504212 0.035175 0.000000
0.524414 0.025620 0.000000
0.597739 0.075002 0.000000
0.648859 0.058390 0.000000
0.529929 0.072724 0.000000
0.242607 0.055837 0.000000
0.538888 0.050865 0.000000
0.561399 0.070782 0.000000
0.414847 0.094858 0.000000
0.402288 0.095173 0.000000
0.125000 -0.075000 0.000000
0.125000 -0.050000 0.000000
0.125000 -0.025000 0.000000
0.125000 0.000000 0.000000
0.887538 0.031845 0.000000
0.769001 0.041943 0.000000
1.005260 0.083331 0.000000
0.961551 0.020470 0.000000
0.974087 0.141472 0.000000
0.551684 0.025876 0.000000
0.870124 0.069874 0.000000
0.925572 0.106761 0.000000
0.852428 0.039997 0.000000
0.784147 0.065574 0.000000
0.900007 0.092834 0.000000
0.848433 0.067927 0.000000
0.724308 0.072418 0.000000
0.593247 0.037452 0.000000
0.513225 0.055779 0.000000
0.607814 0.023770 0.000000
0.829718 0.048836 0.000000
0.496104 0.085957 0.000000
0.679823 0.075977 0.000000
0.453066 0.083119 0.000000
0.150000 -0.075000 0.000000
0.150000 -0.050000 0.000000
0.150000 -0.025000 0.000000
0.150000 0.000000 0.000000
0.974195 0.175734 0.000000
0.978089 0.097879 0.000000
0.980740 0.318655 0.000000
0.928034 0.336587 0.000000
0.988709 0.073910 0.000000
0.906813 0.381630 0.000000
0.955745 0.090998 0.000000
0.913939 0.169154 0.000000
0.965421 0.066639 0.000000
0.958611 0.131024 0.000000
0.947214 0.042844 0.000000
0.833247 0.023189 0.000000
0.912453 0.023403 0.000000
0.926269 0.036420 0.000000
0.806837 0.025316 0.000000
0.727558 0.059381 0.000000
0.668405 0.053727 0.000000
0.742649 0.045153 0.000000
0.689193 0.051015 0.000000
0.571747 0.023966 0.000000
0.175000 -0.075000 0.000000
0.175000 -0.050000 0.000000
0.175000 -0.025000 0.000000
0.175000 0.000000 0.000000
0.714295 0.329165 0.000000
0.997062 0.135158 0.000000
0.992854 0.248658 0.000000
0.998971 0.164748 0.000000
0.992895 0.118030 0.000000
0.945914 0.332669 0.000000
0.991046 0.024787 0.000000
0.976228 0.197690 0.000000
0.920198 0.249858 0.000000
1.003290 0.040675 0.000000
0.969305 0.213842 0.000000
1.004150 0.224047 0.000000
0.888443 0.162227 0.000000
0.953040 0.113714 0.000000
0.907638 0.064882 0.000000
0.943877 0.213869 0.000000
0.941837 0.062918 0.000000
0.899170 0.109070 0.000000
0.814774 0.065149 0.000000
0.858232 0.081887 0.000000
0.200000 -0.075000 0.000000
0.200000 -0.050000 0.000000
0.200000 -0.025000 0.000000
0.200000 0.000000 0.000000
0.872551 0.768053 0.000000
0.972164 0.278977 0.000000
0.924362 0.489628 0.000000
0.988402 0.340471 0.000000
0.921529 0.387660 0.000000
0.928749 0.417704 0.000000
0.959749 0.441703 0.000000
0.993538 0.387408 0.000000
0.965762 0.321969 0.000000
0.892840 0.328249 0.000000
0.991770 0.370815 0.000000
0.975877 0.044096 0.000000
0.858752 0.315232 0.000000
0.945047 0.180480 0.000000
0.925606 0.138445 0.000000
0.951963 0.243667 0.000000
0.982674 0.267557 0.000000
0.954063 0.166870 0.000000
0.926592 0.085081 0.000000
0.895039 0.055413 0.000000
0.225000 -0.075000 0.000000
0.225000 -0.050000 0.000000
0.225000 -0.025000 0.000000
0.225000 0.000000 0.000000
0.943556 0.426865 0.000000
0.964378 1.215840 0.000000
0.950606 0.373718 0.000000
0.853182 0.381028 0.000000
0.727286 0.315686 0.000000
0.855250 0.442223 0.000000
0.942592 0.500453 0.000000
0.993438 0.452435 0.000000
0.983305 0.404915 0.000000
0.914482 0.426444 0.000000
0.987790 0.416743 0.000000
0.892934 0.412714 0.000000
0.724678 0.294372 0.000000
0.843381 0.277823 0.000000
0.936527 0.347955 0.000000
0.976443 0.356040 0.000000
0.881198 0.287790 0.000000
0.927402 0.198465 0.000000
0.901887 0.176370 0.000000
0.902510 0.124424 0.000000
0.250000 -0.075000 0.000000
0.250000 -0.050000 0.000000
0.250000 -0.025000 0.000000
0.250000 0.000000 0.000000
0.973837 1.030997 0.000000
0.853066 0.950700 0.000000
0.858058 0.529546 0.000000
0.912273 0.555414 0.000000
0.759772 1.056415 0.000000
0.943734 0.630958 0.000000
0.769505 0.916616 0.000000
0.840358 0.791803 0.000000
0.724857 0.466502 0.000000
0.952634 0.478457 0.000000
0.820197 0.303266 0.000000
0.883582 0.403868 0.000000
0.910833 0.451356 0.000000
0.645135 0.157744 0.000000
0.881406 0.370807 0.000000
0.826268 0.095496 0.000000
0.811221 0.351813 0.000000
1.001023 0.183502 0.000000
0.907352 0.242162 0.000000
0.978576 0.239051 0.000000
0.275000 -0.075000 0.000000
0.275000 -0.050000 0.000000
0.275000 -0.025000 0.000000
0.275000 0.000000 0.000000
0.300000 -0.075000 0.000000
0.300000 -0.050000 0.000000
0.300000 -0.025000 0.000000
0.300000 0.000000 0.000000
0.325000 -0.075000 0.000000
0.325000 -0.050000 0.000000
0.325000 -0.025000 0.000000
0.325000 0.000000 0.000000
0.350000 -0.075000 0.000000
0.350000 -0.050000 0.000000
0.350000 -0.025000 0.000000
0.350000 0.000000 0.000000
0.375000 -0.075000 0.000000
0.375000 -0.050000 0.000000
0.375000 -0.025000 0.000000
0.375000 0.000000 0.000000
0.400000 -0.075000 0.000000
0.400000 -0.050000 0.000000
0.400000 -0.025000 0.000000
0.400000 0.000000 0.000000
0.425000 -0.075000 0.000000
0.425000 -0.050000 0.000000
0.425000 -0.025000 0.000000
0.425000 0.000000 0.000000
0.450000 -0.075000 0.000000
0.450000 -0.050000 0.000000
0.450000 -0.025000 0.000000
0.450000 0.000000 0.000000
0.475000 -0.075000 0.000000
0.475000 -0.050000 0.000000
0.475000 -0.025000 0.000000
0.475000 0.000000 0.000000
0.500000 -0.075000 0.000000
0.500000 -0.050000 0.000000
0.500000 -0.025000 0.000000
0.500000 0.000000 0.000000
0.525000 -0.075000 0.000000
0.525000 -0.050000 0.000000
0.525000 -0.025000 0.000000
0.525000 0.000000 0.000000
0.550000 -0.075000 0.000000
0.550000 -0.050000 0.000000
0.550000 -0.025000 0.000000
0.550000 0.000000 0.000000
0.575000 -0.075000 0.000000
0.575000 -0.050000 0.000000
0.575000 -0.025000 0.000000
0.575000 0.000000 0.000000
0.600000 -0.075000 0.000000
0.600000 -0.050000 0.000000
0.600000 -0.025000 0.000000
0.600000 0.000000 0.000000
0.625000 -0.075000 0.000000
0.625000 -0.050000 0.000000
0.625000 -0.025000 0.000000
0.625000 0.000000 0.000000
0.650000 -0.075000 0.000000
0.650000 -0.050000 0.000000
0.650000 -0.025000 0.000000
0.650000 0.000000 0.000000
0.675000 -0.075000 0.000000
0.675000 -0.050000 0.000000
0.675000 -0.025000 0.000000
0.675000 0.000000 0.000000
0.700000 -0.075000 0.000000
0.700000 -0.050000 0.000000
0.700000 -0.025000 0.000000
0.700000 0.000000 0.000000
0.725000 -0.075000 0.000000
0.725000 -0.050000 0.000000
0.725000 -0.025000 0.000000
0.725000 0.000000 0.000000
0.750000 -0.075000 0.000000
0.750000 -0.050000 0.000000
0.750000 -0.025000 0.000000
0.750000 0.000000 0.000000
0.775000 -0.075000 0.000000
0.775000 -0.050000 0.000000
0.775000 -0.025000 0.000000
0.775000 0.000000 0.000000
0.800000 -0.075000 0.000000
0.800000 -0.050000 0.000000
0.800000 -0.025000 0.000000
0.800000 0.000000 0.000000
0.825000 -0.075000 0.000000
0.825000 -0.050000 0.000000
0.825000 -0.025000 0.000000
0.825000 0.000000 0.000000
0.850000 -0.075000 0.000000
0.850000 -0.050000 0.000000
0.850000 -0.025000 0.000000
0.850000 0.000000 0.000000
0.875000 -0.075000 0.000000
0.875000 -0.050000 0.000000
0.875000 -0.025000 0.000000
0.875000 0.000000 0.000000
0.900000 -0.075000 0.000000
0.900000 -0.050000 0.000000
0.900000 -0.025000 0.000000
0.900000 0.000000 0.000000
0.925000 -0.075000 0.000000
0.925000 -0.050000 0.000000
0.925000 -0.025000 0.000000
0.925000 0.000000 0.000000
0.950000 -0.075000 0.000000
0.950000 -0.050000 0.000000
0.950000 -0.025000 0.000000
0.950000 0.000000 0.000000
0.975000 -0.075000 0.000000
0.975000 -0.050000 0.000000
0.975000 -0.025000 0.000000
0.975000 0.000000 0.000000
1.000000 -0.075000 0.000000
1.000000 -0.050000 0.000000
1.000000 -0.025000 0.000000
1.000000 0.000000 0.000000
1.025000 -0.075000 0.000000
1.025000 -0.050000 0.000000
1.025000 -0.025000 0.000000
1.025000 0.000000 0.000000
1.025000 0.025000 0.000000
1.025000 0.050000 0.000000
1.025000 0.075000 0.000000
1.025000 0.100000 0.000000
1.025000 0.125000 0.000000
1.025000 0.150000 0.000000
1.025000 0.175000 0.000000
1.025000 0.200000 0.000000
1.025000 0.225000 0.000000
1.025000 0.250000 0.000000
1.025000 0.275000 0.000000
1.025000 0.300000 0.000000
1.025000 0.325000 0.000000
1.025000 0.350000 0.000000
1.025000 0.375000 0.000000
1.025000 0.400000 0.000000
1.025000 0.425000 0.000000
1.025000 0.450000 0.000000
1.025000 0.475000 0.000000
1.025000 0.500000 0.000000
1.025000 0.525000 0.000000
1.025000 0.550000 0.000000
1.025000 0.575000 0.000000
1.025000 0.600000 0.000000
1.050000 -0.075000 0.000000
1.050000 -0.050000 0.000000
1.050000 -0.025000 0.000000
1.050000 0.000000 0.000000
1.050000 0.025000 0.000000
1.050000 0.050000 0.000000
1.050000 0.075000 0.000000
1.050000 0.100000 0.000000
1.050000 0.125000 0.000000
1.050000 0.150000 0.000000
1.050000 0.175000 0.000000
1.050000 0.200000 0.000000
1.050000 0.225000 0.000000
1.050000 0.250000 0.000000
1.050000 0.275000 0.000000
1.050000 0.300000 0.000000
1.050000 0.325000 0.000000
1.050000 0.350000 0.000000
1.050000 0.375000 0.000000
1.050000 0.400000 0.000000
1.050000 0.425000 0.000000
1.050000 0.450000 0.000000
1.050000 0.475000 0.000000
1.050000 0.500000 0.000000
1.050000 0.525000 0.000000
1.050000 0.550000 0.000000
1.050000 0.575000 0.000000
1.050000 0.600000 0.000000
1.075000 -0.075000 0.000000
1.075000 -0.050000 0.000000
1.075000 -0.025000 0.000000
1.075000 0.000000 0.000000
1.075000 0.025000 0.000000
1.075000 0.050000 0.000000
1.075000 0.075000 0.000000
1.075000 0.100000 0.000000
1.075000 0.125000 0.000000
1.075000 0.150000 0.000000
1.075000 0.175000 0.000000
1.075000 0.200000 0.000000
1.075000 0.225000 0.000000
1.075000 0.250000 0.000000
1.075000 0.275000 0.000000
1.075000 0.300000 0.000000
1.075000 0.325000 0.000000
1.075000 0.350000 0.000000
1.075000 0.375000 0.000000
1.075000 0.400000 0.000000
1.075000 0.425000 0.000000
1.075000 0.450000 0.000000
1.075000 0.475000 0.000000
1.075000 0.500000 0.000000
1.075000 0.525000 0.000000
1.075000 0.550000 0.000000
1.075000 0.575000 0.000000
1.075000 0.600000 0.000000
1.100000 -0.075000 0.000000
1.100000 -0.050000 0.000000
1.100000 -0.025000 0.000000
1.100000 0.000000 0.000000
1.100000 0.025000 0.000000
1.100000 0.050000 0.000000
1.100000 0.075000 0.000000
1.100000 0.100000 0.000000
1.100000 0.125000 0.000000
1.100000 0.150000 0.000000
1.100000 0.175000 0.000000
1.100000 0.200000 0.000000
1.100000 0.225000 0.000000
1.100000 0.250000 0.000000
1.100000 0.275000 0.000000
1.100000 0.300000 0.000000
1.100000 0.325000 0.000000
1.100000 0.350000 0.000000
1.100000 0.375000 0.000000
1.100000 0.400000 0.000000
1.100000 0.425000 0.000000
1.100000 0.450000 0.000000
1.100000 0.475000 0.000000
1.100000 0.500000 0.000000
1.100000 0.525000 0.000000
1.100000 0.550000 0.000000
1.100000 0.575000 0.000000
1.100000 0.600000 0.000000
</DataArray>
</Points>
<PointData>
<DataArray NumberOfComponents='1' type='Int32' Name='ParticleType' format='ascii'>
3
3
3
3
3
3
3
3
3
3
3
3
3
3
3
3
3
3
3
3
3
3
3
3
3
3
2
2
3
3
3
3
3
3
3
3
3
3
3
3
3
3
3
3
3
3
3
3
3
3
3
3
3
3
2
2
3
3
2
2
2
2
2
2
2
2
2
2
2
2
2
2
2
2
2
2
2
2
2
2
2
2
2
2
3
3
2
2
2
2
2
2
2
2
2
2
2
2
2
2
2
2
2
2
2
2
2
2
2
2
2
2
3
3
2
2
0
0
0
0
0
0
0
0
0
0
0
0
0
0
0
0
0
0
0
0
3
3
2
2
0
0
0
0
0
0
0
0
0
0
0
0
0
0
0
0
0
0
0
0
3
3
2
2
0
0
0
0
0
0
0
0
0
0
0
0
0
0
0
0
0
0
0
0
3
3
2
2
0
0
0
0
0
0
0
0
0
0
0
0
0
0
0
0
0
0
0
0
3
3
2
2
0
0
0
0
0
0
0
0
0
0
0
0
0
0
0
0
0
0
0
0
3
3
2
2
0
0
0
0
0
0
0
0
0
0
0
0
0
0
0
0
0
0
0
0
3
3
2
2
0
0
0
0
0
0
0
0
0
0
0
0
0
0
0
0
0
0
0
0
3
3
2
2
0
0
0
0
0
0
0
0
0
0
0
0
0
0
0
0
0
0
0
0
3
3
2
2
0
0
0
0
0
0
0
0
0
0
0
0
0
0
0
0
0
0
0
0
3
3
2
2
0
0
0
0
0
0
0
0
0
0
0
0
0
0
0
0
0
0
0
0
3
3
2
2
3
3
2
2
3
3
2
2
3
3
2
2
3
3
2
2
3
3
2
2
3
3
2
2
3
3
2
2
3
3
2
2
3
3
2
2
3
3
2
2
3
3
2
2
3
3
2
2
3
3
2
2
3
3
2
2
3
3
2
2
3
3
2
2
3
3
2
2
3
3
2
2
3
3
2
2
3
3
2
2
3
3
2
2
3
3
2
2
3
3
2
2
3
3
2
2
3
3
2
2
3
3
2
2
3
3
2
2
3
3
2
2
3
3
2
2
3
3
2
2
2
2
2
2
2
2
2
2
2
2
2
2
2
2
2
2
2
2
2
2
2
2
2
2
3
3
2
2
2
2
2
2
2
2
2
2
2
2
2
2
2
2
2
2
2
2
2
2
2
2
2
2
3
3
3
3
3
3
3
3
3
3
3
3
3
3
3
3
3
3
3
3
3
3
3
3
3
3
2
2
3
3
3
3
3
3
3
3
3
3
3
3
3
3
3
3
3
3
3
3
3
3
3
3
3
3
2
2
</DataArray>
<DataArray NumberOfComponents='1' type='Float32' Name='Velocity' format='ascii'>
0.000000
0.000000
0.000000
0.000000
0.000000
0.000000
0.000000
0.000000
0.000000
0.000000
0.000000
0.000000
0.000000
0.000000
0.000000
0.000000
0.000000
0.000000
0.000000
0.000000
0.000000
0.000000
0.000000
0.000000
0.000000
0.000000
0.000000
0.000000
0.000000
0.000000
0.000000
0.000000
0.000000
0.000000
0.000000
0.000000
0.000000
0.000000
0.000000
0.000000
0.000000
0.000000
0.000000
0.000000
0.000000
0.000000
0.000000
0.000000
0.000000
0.000000
0.000000
0.000000
0.000000
0.000000
0.000000
0.000000
0.000000
0.000000
0.000000
0.000000
0.000000
0.000000
0.000000
0.000000
0.000000
0.000000
0.000000
0.000000
0.000000
0.000000
0.000000
0.000000
0.000000
0.000000
0.000000
0.000000
0.000000
0.000000
0.000000
0.000000
0.000000
0.000000
0.000000
0.000000
0.000000
0.000000
0.000000
0.000000
0.000000
0.000000
0.000000
0.000000
0.000000
0.000000
0.000000
0.000000
0.000000
0.000000
0.000000
0.000000
0.000000
0.000000
0.000000
0.000000
0.000000
0.000000
0.000000
0.000000
0.000000
0.000000
0.000000
0.000000
0.000000
0.000000
0.000000
0.000000
0.321595
0.479495
0.295007
0.285084
0.560645
0.184478
0.673411
0.609786
0.241924
0.303013
0.413982
0.264541
0.260032
0.128441
0.140574
0.100132
0.297771
0.435764
0.225189
0.201800
0.000000
0.000000
0.000000
0.000000
0.283070
1.027871
1.016565
0.742002
1.050207
1.186547
0.476217
0.907872
0.473031
0.455623
0.831609
0.572277
0.039691
0.607406
0.494725
0.362326
0.349994
0.506858
0.284508
0.101071
0.000000
0.000000
0.000000
0.000000
0.402495
0.568340
0.712750
0.878331
1.179064
1.199972
1.221011
1.359683
1.434842
1.334341
0.915357
0.637124
0.955823
0.457507
0.099975
0.575485
0.385546
0.683553
0.554076
0.572583
0.000000
0.000000
0.000000
0.000000
0.855683
0.871185
1.063365
0.549360
0.230650
1.157861
1.475255
1.292546
1.424043
1.247892
0.916299
1.038638
1.006136
1.290755
1.028873
0.511493
1.084277
1.531337
0.832329
0.884947
0.000000
0.000000
0.000000
0.000000
0.450759
1.298375
0.307398
0.160929
1.061759
0.707200
0.944821
1.146071
1.017747
1.451255
0.994336
1.464277
1.324858
1.160455
1.223550
0.761775
1.250719
1.455003
1.410750
1.191168
0.000000
0.000000
0.000000
0.000000
0.921387
0.204893
0.964839
0.647220
0.369617
0.643708
0.493609
0.668759
0.173009
0.984515
0.721511
1.011193
0.423822
0.475826
1.026012
1.404591
1.383395
1.289977
1.311622
0.611155
0.000000
0.000000
0.000000
0.000000
1.219239
0.529227
0.515017
1.011811
0.917182
0.741718
0.186904
0.471325
0.366527
0.070023
0.647647
0.362796
0.650026
1.011508
0.757461
0.693649
0.324246
1.351150
1.242004
1.424927
0.000000
0.000000
0.000000
0.000000
0.439836
0.753984
0.357066
0.403174
0.315316
0.206436
0.379549
0.409115
0.666865
0.624739
0.489999
0.294607
0.886960
0.895898
0.702562
0.780001
0.590347
0.993442
0.941001
0.936890
0.000000
0.000000
0.000000
0.000000
0.486480
1.310979
0.105049
0.864836
1.209828
0.740837
0.268949
0.339953
0.287059
0.330369
0.104979
0.439613
1.144540
0.929959
0.472981
0.205613
0.602804
1.109041
0.475791
0.587245
0.000000
0.000000
0.000000
0.000000
0.585755
0.719928
0.541390
0.308834
1.005243
0.297258
0.774978
0.550942
0.946135
0.290248
0.906345
0.546295
0.368937
1.711299
0.553964
1.309289
0.992601
0.993409
0.353648
0.674174
0.000000
0.000000
0.000000
0.000000
0.000000
0.000000
0.000000
0.000000
0.000000
0.000000
0.000000
0.000000
0.000000
0.000000
0.000000
0.000000
0.000000
0.000000
0.000000
0.000000
0.000000
0.000000
0.000000
0.000000
0.000000
0.000000
0.000000
0.000000
0.000000
0.000000
0.000000
0.000000
0.000000
0.000000
0.000000
0.000000
0.000000
0.000000
0.000000
0.000000
0.000000
0.000000
0.000000
0.000000
0.000000
0.000000
0.000000
0.000000
0.000000
0.000000
0.000000
0.000000
0.000000
0.000000
0.000000
0.000000
0.000000
0.000000
0.000000
0.000000
0.000000
0.000000
0.000000
0.000000
0.000000
0.000000
0.000000
0.000000
0.000000
0.000000
0.000000
0.000000
0.000000
0.000000
0.000000
0.000000
0.000000
0.000000
0.000000
0.000000
0.000000
0.000000
0.000000
0.000000
0.000000
0.000000
0.000000
0.000000
0.000000
0.000000
0.000000
0.000000
0.000000
0.000000
0.000000
0.000000
0.000000
0.000000
0.000000
0.000000
0.000000
0.000000
0.000000
0.000000
0.000000
0.000000
0.000000
0.000000
0.000000
0.000000
0.000000
0.000000
0.000000
0.000000
0.000000
0.000000
0.000000
0.000000
0.000000
0.000000
0.000000
0.000000
0.000000
0.000000
0.000000
0.000000
0.000000
0.000000
0.000000
0.000000
0.000000
0.000000
0.000000
0.000000
0.000000
0.000000
0.000000
0.000000
0.000000
0.000000
0.000000
0.000000
0.000000
0.000000
0.000000
0.000000
0.000000
0.000000
0.000000
0.000000
0.000000
0.000000
0.000000
0.000000
0.000000
0.000000
0.000000
0.000000
0.000000
0.000000
0.000000
0.000000
0.000000
0.000000
0.000000
0.000000
0.000000
0.000000
0.000000
0.000000
0.000000
0.000000
0.000000
0.000000
0.000000
0.000000
0.000000
0.000000
0.000000
0.000000
0.000000
0.000000
0.000000
0.000000
0.000000
0.000000
0.000000
0.000000
0.000000
0.000000
0.000000
0.000000
0.000000
0.000000
0.000000
0.000000
0.000000
0.000000
0.000000
0.000000
0.000000
0.000000
0.000000
0.000000
0.000000
0.000000
0.000000
0.000000
0.000000
0.000000
0.000000
0.000000
0.000000
0.000000
0.000000
0.000000
0.000000
0.000000
0.000000
0.000000
0.000000
0.000000
0.000000
0.000000
0.000000
0.000000
0.000000
0.000000
0.000000
0.000000
0.000000
0.000000
</DataArray>
<DataArray NumberOfComponents='1' type='Float32' Name='pressure' format='ascii'>
0.000000
0.000000
0.000000
0.000000
0.000000
0.000000
0.000000
0.000000
0.000000
0.000000
0.000000
0.000000
0.000000
0.000000
0.000000
0.000000
0.000000
0.000000
0.000000
0.000000
0.000000
0.000000
0.000000
0.000000
0.000000
0.000000
0.000000
0.000000
0.000000
0.000000
0.000000
0.000000
0.000000
0.000000
0.000000
0.000000
0.000000
0.000000
0.000000
0.000000
0.000000
0.000000
0.000000
0.000000
0.000000
0.000000
0.000000
0.000000
0.000000
0.000000
0.000000
0.000000
0.000000
0.000000
0.000000
0.000000
0.000000
0.000000
1311.566406
973.498657
259.452820
0.000000
0.000000
0.000000
0.000000
0.000000
0.000000
0.000000
0.000000
0.000000
0.000000
0.000000
0.000000
0.000000
0.000000
0.000000
0.000000
0.000000
0.000000
0.000000
0.000000
0.000000
0.000000
0.000000
0.000000
0.000000
1473.218262
2101.697998
0.000000
0.000000
0.000000
0.000000
0.000000
0.000000
0.000000
0.000000
0.000000
0.000000
0.000000
0.000000
0.000000
0.000000
0.000000
0.000000
0.000000
0.000000
0.000000
0.000000
0.000000
0.000000
0.000000
0.000000
0.000000
0.000000
2399.278076
1837.724731
602.038208
904.466125
1178.047974
1057.322998
0.000000
708.598206
1014.564270
1256.633057
0.000000
0.000000
1204.949951
673.790894
535.048401
320.850677
1602.262207
0.000000
580.197266
0.000000
0.000000
120.272980
0.000000
0.000000
1016.672913
0.000000
0.000000
0.000000
0.000000
919.932312
0.000000
0.000000
232.625031
107.441132
46.221008
0.000000
0.000000
543.146545
0.000000
0.000000
0.000000
1387.938599
0.000000
0.000000
0.000000
1083.320801
0.000000
0.000000
1568.206299
1583.064575
1229.885010
552.627869
0.000000
0.000000
0.000000
240.421844
0.000000
291.992798
0.000000
0.000000
672.701843
0.000000
0.000000
0.000000
0.000000
0.000000
469.184021
0.000000
0.000000
0.000000
0.000000
0.000000
64.242424
667.445923
0.000000
0.000000
0.000000
1292.332764
1524.877319
0.000000
0.000000
0.000000
0.000000
411.432465
0.000000
0.000000
0.000000
0.000000
0.000000
2.845297
0.000000
0.000000
0.000000
0.000000
0.000000
0.000000
665.396729
1271.954712
93.151787
0.000000
3334.645264
1049.325439
0.000000
0.000000
0.000000
2121.477295
0.000000
0.000000
116.393509
545.165771
0.000000
0.000000
0.000000
1378.223511
434.887848
0.000000
0.000000
0.000000
0.000000
0.000000
839.144592
879.149780
915.858154
0.000000
0.000000
0.000000
2313.648438
0.000000
1370.046265
0.000000
3416.735840
914.703857
2388.687256
0.000000
2263.756348
1870.645264
210.421448
319.272003
0.000000
0.000000
0.000000
0.000000
0.000000
0.000000
1403.381592
1329.221680
0.000000
74.939430
745.011292
128.511505
1446.770752
0.000000
3174.732178
1036.345337
0.000000
2363.065674
0.000000
0.000000
0.000000
1276.748047
2158.923096
0.000000
1636.520508
2487.053467
0.000000
0.000000
0.000000
0.000000
1702.606934
1490.133545
0.000000
0.000000
0.000000
0.000000
0.000000
0.000000
0.000000
0.000000
0.000000
0.000000
0.000000
0.000000
0.000000
0.000000
0.000000
0.000000
0.000000
0.000000
785.308655
1321.365601
0.000000
0.000000
460.123871
1085.879395
0.000000
0.000000
0.000000
0.000000
0.000000
0.000000
0.000000
0.000000
0.000000
0.000000
0.000000
0.000000
0.000000
0.000000
0.000000
0.000000
0.000000
0.000000
0.000000
0.000000
0.000000
0.000000
531.229858
1818.291992
0.000000
0.000000
0.000000
0.000000
0.000000
0.000000
0.000000
0.000000
0.000000
0.000000
0.000000
0.000000
0.000000
0.000000
0.000000
0.000000
0.000000
0.000000
0.000000
0.000000
0.000000
0.000000
4.645641
577.177612
0.000000
0.000000
1055.857666
1414.263428
0.000000
0.000000
425.729126
962.299622
0.000000
0.000000
890.302734
928.604187
0.000000
0.000000
930.134766
0.000000
0.000000
0.000000
2476.620605
2309.313477
0.000000
0.000000
906.741150
184.488724
0.000000
0.000000
1559.064331
1683.492188
0.000000
0.000000
608.820007
592.810303
0.000000
0.000000
0.000000
0.000000
0.000000
0.000000
0.000000
0.000000
0.000000
0.000000
0.000000
0.000000
0.000000
0.000000
296.526520
1221.313477
0.000000
0.000000
25.986439
0.000000
0.000000
0.000000
0.000000
0.000000
0.000000
0.000000
0.000000
0.000000
0.000000
0.000000
515.700073
0.000000
0.000000
0.000000
0.000000
0.000000
0.000000
0.000000
0.000000
0.000000
0.000000
0.000000
1141.547485
1009.000061
0.000000
0.000000
1205.280640
566.541687
0.000000
0.000000
0.000000
0.000000
0.000000
0.000000
553.408081
0.000000
0.000000
0.000000
1025.127075
0.000000
0.000000
0.000000
2816.770996
4097.866211
0.000000
0.000000
1774.764771
1838.422974
0.000000
0.000000
1495.136963
0.000000
0.000000
0.000000
2427.361084
0.000000
0.000000
0.000000
2225.429443
2091.481445
0.000000
0.000000
678.907166
0.000000
0.000000
0.000000
468.900818
0.000000
0.000000
1487.602295
2904.578857
0.000000
0.000000
0.000000
0.000000
0.000000
0.000000
0.000000
0.000000
0.000000
0.000000
0.000000
0.000000
0.000000
0.000000
0.000000
0.000000
0.000000
0.000000
0.000000
0.000000
0.000000
0.000000
0.000000
365.504120
586.875610
1425.899780
2774.463867
3786.618652
2157.804932
0.000000
0.000000
0.000000
0.000000
1020.050415
0.000000
0.000000
0.000000
0.000000
0.000000
0.000000
0.000000
0.000000
0.000000
0.000000
0.000000
0.000000
0.000000
0.000000
0.000000
0.000000
0.000000
0.000000
0.000000
0.000000
0.000000
0.000000
0.000000
0.000000
0.000000
0.000000
0.000000
0.000000
0.000000
0.000000
0.000000
0.000000
0.000000
0.000000
0.000000
0.000000
0.000000
0.000000
0.000000
0.000000
0.000000
0.000000
0.000000
0.000000
0.000000
0.000000
0.000000
0.000000
0.000000
0.000000
0.000000
0.000000
0.000000
0.000000
0.000000
0.000000
0.000000
0.000000
0.000000
0.000000
0.000000
0.000000
0.000000
0.000000
0.000000
0.000000
0.000000
0.000000
0.000000
0.000000
0.000000
</DataArray>
</PointData>
<Cells>
<DataArray type='Int32' Name='connectivity' format='ascii'>
0
1
2
3
4
5
6
7
8
9
10
11
12
13
14
15
16
17
18
19
20
21
22
23
24
25
26
27
28
29
30
31
32
33
34
35
36
37
38
39
40
41
42
43
44
45
46
47
48
49
50
51
52
53
54
55
56
57
58
59
60
61
62
63
64
65
66
67
68
69
70
71
72
73
74
75
76
77
78
79
80
81
82
83
84
85
86
87
88
89
90
91
92
93
94
95
96
97
98
99
100
101
102
103
104
105
106
107
108
109
110
111
112
113
114
115
116
117
118
119
120
121
122
123
124
125
126
127
128
129
130
131
132
133
134
135
136
137
138
139
140
141
142
143
144
145
146
147
148
149
150
151
152
153
154
155
156
157
158
159
160
161
162
163
164
165
166
167
168
169
170
171
172
173
174
175
176
177
178
179
180
181
182
183
184
185
186
187
188
189
190
191
192
193
194
195
196
197
198
199
200
201
202
203
204
205
206
207
208
209
210
211
212
213
214
215
216
217
218
219
220
221
222
223
224
225
226
227
228
229
230
231
232
233
234
235
236
237
238
239
240
241
242
243
244
245
246
247
248
249
250
251
252
253
254
255
256
257
258
259
260
261
262
263
264
265
266
267
268
269
270
271
272
273
274
275
276
277
278
279
280
281
282
283
284
285
286
287
288
289
290
291
292
293
294
295
296
297
298
299
300
301
302
303
304
305
306
307
308
309
310
311
312
313
314
315
316
317
318
319
320
321
322
323
324
325
326
327
328
329
330
331
332
333
334
335
336
337
338
339
340
341
342
343
344
345
346
347
348
349
350
351
352
353
354
355