<?xml version='1.0' encoding='UTF-8'?>
<VTKFile xmlns='VTK' byte_order='LittleEndian' version='0.1' type='UnstructuredGrid'>
<UnstructuredGrid>
<Piece NumberOfCells='584' NumberOfPoints='584'>
<Points>
<DataArray NumberOfComponents='3' type='Float32' Name='Position' format='ascii'>
-0.075000 -0.075000 0.000000
-0.075000 -0.050000 0.000000
-0.075000 -0.025000 0.000000
-0.075000 0.000000 0.000000
-0.075000 0.025000 0.000000
-0.075000 0.050000 0.000000
-0.075000 0.075000 0.000000
-0.075000 0.100000 0.000000
-0.075000 0.125000 0.000000
-0.075000 0.150000 0.000000
-0.075000 0.175000 0.000000
-0.075000 0.200000 0.000000
-0.075000 0.225000 0.000000
-0.075000 0.250000 0.000000
-0.075000 0.275000 0.000000
-0.075000 0.300000 0.000000
-0.075000 0.325000 0.000000
-0.075000 0.350000 0.000000
-0.075000 0.375000 0.000000
-0.075000 0.400000 0.000000
-0.075000 0.425000 0.000000
-0.075000 0.450000 0.000000
-0.075000 0.475000 0.000000
-0.075000 0.500000 0.000000
-0.075000 0.525000 0.000000
-0.075000 0.550000 0.000000
-0.075000 0.575000 0.000000
-0.075000 0.600000 0.000000
-0.050000 -0.075000 0.000000
-0.050000 -0.050000 0.000000
-0.050000 -0.025000 0.000000
-0.050000 0.000000 0.000000
-0.050000 0.025000 0.000000
-0.050000 0.050000 0.000000
-0.050000 0.075000 0.000000
-0.050000 0.100000 0.000000
-0.050000 0.125000 0.000000
-0.050000 0.150000 0.000000
-0.050000 0.175000 0.000000
-0.050000 0.200000 0.000000
-0.050000 0.225000 0.000000
-0.050000 0.250000 0.000000
-0.050000 0.275000 0.000000
-0.050000 0.300000 0.000000
-0.050000 0.325000 0.000000
-0.050000 0.350000 0.000000
-0.050000 0.375000 0.000000
-0.050000 0.400000 0.000000
-0.050000 0.425000 0.000000
-0.050000 0.450000 0.000000
-0.050000 0.475000 0.000000
-0.050000 0.500000 0.000000
-0.050000 0.525000 0.000000
-0.050000 0.550000 0.000000
-0.050000 0.575000 0.000000
-0.050000 0.600000 0.000000
-0.025000 -0.075000 0.000000
-0.025000 -0.050000 0.000000
-0.025000 -0.025000 0.000000
-0.025000 0.000000 0.000000
-0.025000 0.025000 0.000000
-0.025000 0.050000 0.000000
-0.025000 0.075000 0.000000
-0.025000 0.100000 0.000000
-0.025000 0.125000 0.000000
-0.025000 0.150000 0.000000
-0.025000 0.175000 0.000000
-0.025000 0.200000 0.000000
-0.025000 0.225000 0.000000
-0.025000 0.250000 0.000000
-0.025000 0.275000 0.000000
-0.025000 0.300000 0.000000
-0.025000 0.325000 0.000000
-0.025000 0.350000 0.000000
-0.025000 0.375000 0.000000
-0.025000 0.400000 0.000000
-0.025000 0.425000 0.000000
-0.025000 0.450000 0.000000
-0.025000 0.475000 0.000000
-0.025000 0.500000 0.000000
-0.025000 0.525000 0.000000
-0.025000 0.550000 0.000000
-0.025000 0.575000 0.000000
-0.025000 0.600000 0.000000
0.000000 -0.075000 0.000000
0.000000 -0.050000 0.000000
0.000000 -0.025000 0.000000
0.000000 0.000000 0.000000
0.000000 0.025000 0.000000
0.000000 0.050000 0.000000
0.000000 0.075000 0.000000
0.000000 0.100000 0.000000
0.000000 0.125000 0.000000
0.000000 0.150000 0.000000
0.000000 0.175000 0.000000
0.000000 0.200000 0.000000
0.000000 0.225000 0.000000
0.000000 0.250000 0.000000
0.000000 0.275000 0.000000
0.000000 0.300000 0.000000
0.000000 0.325000 0.000000
0.000000 0.350000 0.000000
0.000000 0.375000 0.000000
0.000000 0.400000 0.000000
0.000000 0.425000 0.000000
0.000000 0.450000 0.000000
0.000000 0.475000 0.000000
0.000000 0.500000 0.000000
0.000000 0.525000 0.000000
0.000000 0.550000 0.000000
0.000000 0.575000 0.000000
0.000000 0.600000 0.000000
0.025000 -0.075000 0.000000
0.025000 -0.050000 0.000000
0.025000 -0.025000 0.000000
0.025000 0.000000 0.000000
0.305503 0.081472 0.000000
0.159237 0.116868 0.000000
0.283380 0.052183 0.000000
0.264322 0.027601 0.000000
0.305717 0.049933 0.000000
0.210860 0.049712 0.000000
0.382411 0.022235 0.000000
0.317504 0.096821 0.000000
0.244062 0.122678 0.000000
0.163703 0.138802 0.000000
0.288326 0.024323 0.000000
0.193860 0.068916 0.000000
0.240666 0.022383 0.000000
0.218088 0.030394 0.000000
0.167755 0.077676 0.000000
0.107842 0.041785 0.000000
0.023248 0.137814 0.000000
0.139272 0.021612 0.000000
0.063518 0.079441 0.000000
0.270323 0.076550 0.000000
0.050000 -0.075000 0.000000
0.050000 -0.050000 0.000000
0.050000 -0.025000 0.000000
0.050000 0.000000 0.000000
0.102696 0.166284 0.000000
0.155747 0.056730 0.000000
0.085834 0.097515 0.000000
0.057505 0.022584 0.000000
0.024062 0.074960 0.000000
0.484248 0.063044 0.000000
0.261612 0.123218 0.000000
0.623346 0.021823 0.000000
0.117602 0.100545 0.000000
0.291533 0.154373 0.000000
0.190232 0.022666 0.000000
0.273947 0.150912 0.000000
0.039673 0.165214 0.000000
0.353534 0.167237 0.000000
0.235670 0.053063 0.000000
0.049745 0.041331 0.000000
0.284170 0.091992 0.000000
0.345913 0.084864 0.000000
0.090648 0.122039 0.000000
0.134745 0.041079 0.000000
0.075000 -0.075000 0.000000
0.075000 -0.050000 0.000000
0.075000 -0.025000 0.000000
0.075000 0.000000 0.000000
0.218766 0.078556 0.000000
0.190352 0.122984 0.000000
0.457459 0.134368 0.000000
0.408105 0.026548 0.000000
0.473859 0.145776 0.000000
0.561350 0.132192 0.000000
0.576852 0.110885 0.000000
0.085105 0.062102 0.000000
0.379411 0.069432 0.000000
0.608955 0.049352 0.000000
0.490409 0.025973 0.000000
0.119116 0.061483 0.000000
0.285218 0.116589 0.000000
0.262560 0.177370 0.000000
0.349176 0.063812 0.000000
0.083772 0.040430 0.000000
0.181429 0.090134 0.000000
0.049259 0.065158 0.000000
0.206036 0.100643 0.000000
0.260574 0.052996 0.000000
0.100000 -0.075000 0.000000
0.100000 -0.050000 0.000000
0.100000 -0.025000 0.000000
0.100000 0.000000 0.000000
0.536851 0.029539 0.000000
0.387397 0.200314 0.000000
0.509017 0.137153 0.000000
0.786248 0.022331 0.000000
0.324521 0.063441 0.000000
0.721315 0.024891 0.000000
0.563852 0.066807 0.000000
0.333929 0.039212 0.000000
0.678614 0.037510 0.000000
0.702896 0.064367 0.000000
0.516271 0.025562 0.000000
0.366745 0.095024 0.000000
0.524221 0.126886 0.000000
0.663301 0.072290 0.000000
0.063681 0.126367 0.000000
0.313425 0.024070 0.000000
0.541991 0.074998 0.000000
0.366211 0.041903 0.000000
0.389280 0.097568 0.000000
0.136703 0.123371 0.000000
0.125000 -0.075000 0.000000
0.125000 -0.050000 0.000000
0.125000 -0.025000 0.000000
0.125000 0.000000 0.000000
0.720431 0.072993 0.000000
0.608493 0.075498 0.000000
0.989776 0.074778 0.000000
0.852600 0.029460 0.000000
0.538781 0.112316 0.000000
0.656234 0.048213 0.000000
0.048320 0.142496 0.000000
0.505608 0.077988 0.000000
0.790000 0.069255 0.000000
0.749105 0.048345 0.000000
0.853093 0.064723 0.000000
0.524217 0.057282 0.000000
0.560666 0.045688 0.000000
0.405328 0.131692 0.000000
0.467897 0.022798 0.000000
0.422338 0.151941 0.000000
0.210932 0.150511 0.000000
0.239139 0.079063 0.000000
0.434113 0.135750 0.000000
0.058667 0.104338 0.000000
0.150000 -0.075000 0.000000
0.150000 -0.050000 0.000000
0.150000 -0.025000 0.000000
0.150000 0.000000 0.000000
0.183138 0.177776 0.000000
0.973391 0.030529 0.000000
0.682217 0.067533 0.000000
0.387741 0.049134 0.000000
0.898168 0.024472 0.000000
0.252791 0.095184 0.000000
0.907780 0.066002 0.000000
0.437470 0.187295 0.000000
0.953610 0.048000 0.000000
0.520974 0.187521 0.000000
0.945343 0.025225 0.000000
0.693247 0.022307 0.000000
0.889389 0.073694 0.000000
0.820739 0.060346 0.000000
0.767683 0.034351 0.000000
0.591536 0.080911 0.000000
0.658449 0.023470 0.000000
0.591388 0.114898 0.000000
0.628348 0.086022 0.000000
0.344104 0.111605 0.000000
0.175000 -0.075000 0.000000
0.175000 -0.050000 0.000000
0.175000 -0.025000 0.000000
0.175000 0.000000 0.000000
0.140926 0.073850 0.000000
0.511174 0.159343 0.000000
0.895817 0.045510 0.000000
0.785859 0.057406 0.000000
0.994026 0.022158 0.000000
0.138618 0.097018 0.000000
0.872209 0.025396 0.000000
0.439778 0.044634 0.000000
0.464949 0.048068 0.000000
0.925769 0.025077 0.000000
0.532488 0.092047 0.000000
0.741989 0.080204 0.000000
0.448479 0.085366 0.000000
0.925101 0.056692 0.000000
0.981846 0.056942 0.000000
0.504569 0.048704 0.000000
1.003868 0.045451 0.000000
0.502664 0.098907 0.000000
0.118826 0.124270 0.000000
0.414433 0.098822 0.000000
0.200000 -0.075000 0.000000
0.200000 -0.050000 0.000000
0.200000 -0.025000 0.000000
0.200000 0.000000 0.000000
0.386576 0.119158 0.000000
0.166588 0.026542 0.000000
0.317346 0.120965 0.000000
0.823643 0.022780 0.000000
0.458051 0.107592 0.000000
0.376864 0.167519 0.000000
0.631312 0.044257 0.000000
0.960592 0.067010 0.000000
0.401179 0.155659 0.000000
0.097978 0.080781 0.000000
0.809066 0.034930 0.000000
0.638800 0.070841 0.000000
0.094355 0.020594 0.000000
0.453191 0.188331 0.000000
0.560269 0.024459 0.000000
0.233216 0.138813 0.000000
0.716273 0.047464 0.000000
0.418743 0.200323 0.000000
0.867852 0.057358 0.000000
0.676016 0.095674 0.000000
0.225000 -0.075000 0.000000
0.225000 -0.050000 0.000000
0.225000 -0.025000 0.000000
0.225000 0.000000 0.000000
0.429484 0.073688 0.000000
0.838225 0.052668 0.000000
0.530415 0.178510 0.000000
0.327608 0.159080 0.000000
0.052780 0.162542 0.000000
0.084628 0.139207 0.000000
0.483682 0.162141 0.000000
0.929901 0.079382 0.000000
0.588589 0.044045 0.000000
0.034883 0.095162 0.000000
0.570025 0.089522 0.000000
0.207118 0.165132 0.000000
0.434780 0.022568 0.000000
0.483977 0.100829 0.000000
0.181338 0.045371 0.000000
0.214098 0.116845 0.000000
0.551383 0.139721 0.000000
0.025799 0.024413 0.000000
0.296278 0.136950 0.000000
0.415782 0.049042 0.000000
0.250000 -0.075000 0.000000
0.250000 -0.050000 0.000000
0.250000 -0.025000 0.000000
0.250000 0.000000 0.000000
0.746257 0.024559 0.000000
0.415555 0.184624 0.000000
0.327962 0.173628 0.000000
0.406117 0.072778 0.000000
0.347700 0.023202 0.000000
0.364464 0.149190 0.000000
0.125321 0.154732 0.000000
0.379341 0.188014 0.000000
0.333437 0.136061 0.000000
0.481476 0.123463 0.000000
0.248105 0.171343 0.000000
0.024477 0.113548 0.000000
0.180903 0.139527 0.000000
0.591267 0.021906 0.000000
0.429915 0.114706 0.000000
0.461755 0.070236 0.000000
0.360385 0.125144 0.000000
0.751363 0.071742 0.000000
0.024426 0.047747 0.000000
0.495573 0.174065 0.000000
0.275000 -0.075000 0.000000
0.275000 -0.050000 0.000000
0.275000 -0.025000 0.000000
0.275000 0.000000 0.000000
0.300000 -0.075000 0.000000
0.300000 -0.050000 0.000000
0.300000 -0.025000 0.000000
0.300000 0.000000 0.000000
0.325000 -0.075000 0.000000
0.325000 -0.050000 0.000000
0.325000 -0.025000 0.000000
0.325000 0.000000 0.000000
0.350000 -0.075000 0.000000
0.350000 -0.050000 0.000000
0.350000 -0.025000 0.000000
0.350000 0.000000 0.000000
0.375000 -0.075000 0.000000
0.375000 -0.050000 0.000000
0.375000 -0.025000 0.000000
0.375000 0.000000 0.000000
0.400000 -0.075000 0.000000
0.400000 -0.050000 0.000000
0.400000 -0.025000 0.000000
0.400000 0.000000 0.000000
0.425000 -0.075000 0.000000
0.425000 -0.050000 0.000000
0.425000 -0.025000 0.000000
0.425000 0.000000 0.000000
0.450000 -0.075000 0.000000
0.450000 -0.050000 0.000000
0.450000 -0.025000 0.000000
0.450000 0.000000 0.000000
0.475000 -0.075000 0.000000
0.475000 -0.050000 0.000000
0.475000 -0.025000 0.000000
0.475000 0.000000 0.000000
0.500000 -0.075000 0.000000
0.500000 -0.050000 0.000000
0.500000 -0.025000 0.000000
0.500000 0.000000 0.000000
0.525000 -0.075000 0.000000
0.525000 -0.050000 0.000000
0.525000 -0.025000 0.000000
0.525000 0.000000 0.000000
0.550000 -0.075000 0.000000
0.550000 -0.050000 0.000000
0.550000 -0.025000 0.000000
0.550000 0.000000 0.000000
0.575000 -0.075000 0.000000
0.575000 -0.050000 0.000000
0.575000 -0.025000 0.000000
0.575000 0.000000 0.000000
0.600000 -0.075000 0.000000
0.600000 -0.050000 0.000000
0.600000 -0.025000 0.000000
0.600000 0.000000 0.000000
0.625000 -0.075000 0.000000
0.625000 -0.050000 0.000000
0.625000 -0.025000 0.000000
0.625000 0.000000 0.000000
0.650000 -0.075000 0.000000
0.650000 -0.050000 0.000000
0.650000 -0.025000 0.000000
0.650000 0.000000 0.000000
0.675000 -0.075000 0.000000
0.675000 -0.050000 0.000000
0.675000 -0.025000 0.000000
0.675000 0.000000 0.000000
0.700000 -0.075000 0.000000
0.700000 -0.050000 0.000000
0.700000 -0.025000 0.000000
0.700000 0.000000 0.000000
0.725000 -0.075000 0.000000
0.725000 -0.050000 0.000000
0.725000 -0.025000 0.000000
0.725000 0.000000 0.000000
0.750000 -0.075000 0.000000
0.750000 -0.050000 0.000000
0.750000 -0.025000 0.000000
0.750000 0.000000 0.000000
0.775000 -0.075000 0.000000
0.775000 -0.050000 0.000000
0.775000 -0.025000 0.000000
0.775000 0.000000 0.000000
0.800000 -0.075000 0.000000
0.800000 -0.050000 0.000000
0.800000 -0.025000 0.000000
0.800000 0.000000 0.000000
0.825000 -0.075000 0.000000
0.825000 -0.050000 0.000000
0.825000 -0.025000 0.000000
0.825000 0.000000 0.000000
0.850000 -0.075000 0.000000
0.850000 -0.050000 0.000000
0.850000 -0.025000 0.000000
0.850000 0.000000 0.000000
0.875000 -0.075000 0.000000
0.875000 -0.050000 0.000000
0.875000 -0.025000 0.000000
0.875000 0.000000 0.000000
0.900000 -0.075000 0.000000
0.900000 -0.050000 0.000000
0.900000 -0.025000 0.000000
0.900000 0.000000 0.000000
0.925000 -0.075000 0.000000
0.925000 -0.050000 0.000000
0.925000 -0.025000 0.000000
0.925000 0.000000 0.000000
0.950000 -0.075000 0.000000
0.950000 -0.050000 0.000000
0.950000 -0.025000 0.000000
0.950000 0.000000 0.000000
0.975000 -0.075000 0.000000
0.975000 -0.050000 0.000000
0.975000 -0.025000 0.000000
0.975000 0.000000 0.000000
1.000000 -0.075000 0.000000
1.000000 -0.050000 0.000000
1.000000 -0.025000 0.000000
1.000000 0.000000 0.000000
1.025000 -0.075000 0.000000
1.025000 -0.050000 0.000000
1.025000 -0.025000 0.000000
1.025000 0.000000 0.000000
1.025000 0.025000 0.000000
1.025000 0.050000 0.000000
1.025000 0.075000 0.000000
1.025000 0.100000 0.000000
1.025000 0.125000 0.000000
1.025000 0.150000 0.000000
1.025000 0.175000 0.000000
1.025000 0.200000 0.000000
1.025000 0.225000 0.000000
1.025000 0.250000 0.000000
1.025000 0.275000 0.000000
1.025000 0.300000 0.000000
1.025000 0.325000 0.000000
1.025000 0.350000 0.000000
1.025000 0.375000 0.000000
1.025000 0.400000 0.000000
1.025000 0.425000 0.000000
1.025000 0.450000 0.000000
1.025000 0.475000 0.000000
1.025000 0.500000 0.000000
1.025000 0.525000 0.000000
1.025000 0.550000 0.000000
1.025000 0.575000 0.000000
1.025000 0.600000 0.000000
1.050000 -0.075000 0.000000
1.050000 -0.050000 0.000000
1.050000 -0.025000 0.000000
1.050000 0.000000 0.000000
1.050000 0.025000 0.000000
1.050000 0.050000 0.000000
1.050000 0.075000 0.000000
1.050000 0.100000 0.000000
1.050000 0.125000 0.000000
1.050000 0.150000 0.000000
1.050000 0.175000 0.000000
1.050000 0.200000 0.000000
1.050000 0.225000 0.000000
1.050000 0.250000 0.000000
1.050000 0.275000 0.000000
1.050000 0.300000 0.000000
1.050000 0.325000 0.000000
1.050000 0.350000 0.000000
1.050000 0.375000 0.000000
1.050000 0.400000 0.000000
1.050000 0.425000 0.000000
1.050000 0.450000 0.000000
1.050000 0.475000 0.000000
1.050000 0.500000 0.000000
1.050000 0.525000 0.000000
1.050000 0.550000 0.000000
1.050000 0.575000 0.000000
1.050000 0.600000 0.000000
1.075000 -0.075000 0.000000
1.075000 -0.050000 0.000000
1.075000 -0.025000 0.000000
1.075000 0.000000 0.000000
1.075000 0.025000 0.000000
1.075000 0.050000 0.000000
1.075000 0.075000 0.000000
1.075000 0.100000 0.000000
1.075000 0.125000 0.000000
1.075000 0.150000 0.000000
1.075000 0.175000 0.000000
1.075000 0.200000 0.000000
1.075000 0.225000 0.000000
1.075000 0.250000 0.000000
1.075000 0.275000 0.000000
1.075000 0.300000 0.000000
1.075000 0.325000 0.000000
1.075000 0.350000 0.000000
1.075000 0.375000 0.000000
1.075000 0.400000 0.000000
1.075000 0.425000 0.000000
1.075000 0.450000 0.000000
1.075000 0.475000 0.000000
1.075000 0.500000 0.000000
1.075000 0.525000 0.000000
1.075000 0.550000 0.000000
1.075000 0.575000 0.000000
1.075000 0.600000 0.000000
1.100000 -0.075000 0.000000
1.100000 -0.050000 0.000000
1.100000 -0.025000 0.000000
1.100000 0.000000 0.000000
1.100000 0.025000 0.000000
1.100000 0.050000 0.000000
1.100000 0.075000 0.000000
1.100000 0.100000 0.000000
1.100000 0.125000 0.000000
1.100000 0.150000 0.000000
1.100000 0.175000 0.000000
1.100000 0.200000 0.000000
1.100000 0.225000 0.000000
1.100000 0.250000 0.000000
1.100000 0.275000 0.000000
1.100000 0.300000 0.000000
1.100000 0.325000 0.000000
1.100000 0.350000 0.000000
1.100000 0.375000 0.000000
1.100000 0.400000 0.000000
1.100000 0.425000 0.000000
1.100000 0.450000 0.000000
1.100000 0.475000 0.000000
1.100000 0.500000 0.000000
1.100000 0.525000 0.000000
1.100000 0.550000 0.000000
1.100000 0.575000 0.000000
1.100000 0.600000 0.000000
</DataArray>
</Points>
<PointData>
<DataArray NumberOfComponents='1' type='Int32' Name='ParticleType' format='ascii'>
3
3
3
3
3
3
3
3
3
3
3
3
3
3
3
3
3
3
3
3
3
3
3
3
3
3
2
2
3
3
3
3
3
3
3
3
3
3
3
3
3
3
3
3
3
3
3
3
3
3
3
3
3
3
2
2
3
3
2
2
2
2
2
2
2
2
2
2
2
2
2
2
2
2
2
2
2
2
2
2
2
2
2
2
3
3
2
2
2
2
2
2
2
2
2
2
2
2
2
2
2
2
2
2
2
2
2
2
2
2
2
2
3
3
2
2
0
0
0
0
0
0
0
0
0
0
0
0
0
0
0
0
0
0
0
0
3
3
2
2
0
0
0
0
0
0
0
0
0
0
0
0
0
0
0
0
0
0
0
0
3
3
2
2
0
0
0
0
0
0
0
0
0
0
0
0
0
0
0
0
0
0
0
0
3
3
2
2
0
0
0
0
0
0
0
0
0
0
0
0
0
0
0
0
0
0
0
0
3
3
2
2
0
0
0
0
0
0
0
0
0
0
0
0
0
0
0
0
0
0
0
0
3
3
2
2
0
0
0
0
0
0
0
0
0
0
0
0
0
0
0
0
0
0
0
0
3
3
2
2
0
0
0
0
0
0
0
0
0
0
0
0
0
0
0
0
0
0
0
0
3
3
2
2
0
0
0
0
0
0
0
0
0
0
0
0
0
0
0
0
0
0
0
0
3
3
2
2
0
0
0
0
0
0
0
0
0
0
0
0
0
0
0
0
0
0
0
0
3
3
2
2
0
0
0
0
0
0
0
0
0
0
0
0
0
0
0
0
0
0
0
0
3
3
2
2
3
3
2
2
3
3
2
2
3
3
2
2
3
3
2
2
3
3
2
2
3
3
2
2
3
3
2
2
3
3
2
2
3
3
2
2
3
3
2
2
3
3
2
2
3
3
2
2
3
3
2
2
3
3
2
2
3
3
2
2
3
3
2
2
3
3
2
2
3
3
2
2
3
3
2
2
3
3
2
2
3
3
2
2
3
3
2
2
3
3
2
2
3
3
2
2
3
3
2
2
3
3
2
2
3
3
2
2
3
3
2
2
3
3
2
2
3
3
2
2
2
2
2
2
2
2
2
2
2
2
2
2
2
2
2
2
2
2
2
2
2
2
2
2
3
3
2
2
2
2
2
2
2
2
2
2
2
2
2
2
2
2
2
2
2
2
2
2
2
2
2
2
3
3
3
3
3
3
3
3
3
3
3
3
3
3
3
3
3
3
3
3
3
3
3
3
3
3
2
2
3
3
3
3
3
3
3
3
3
3
3
3
3
3
3
3
3
3
3
3
3
3
3
3
3
3
2
2
</DataArray>
<DataArray NumberOfComponents='1' type='Float32' Name='Velocity' format='ascii'>
0.000000
0.000000
0.000000
0.000000
0.000000
0.000000
0.000000
0.000000
0.000000
0.000000
0.000000
0.000000
0.000000
0.000000
0.000000
0.000000
0.000000
0.000000
0.000000
0.000000
0.000000
0.000000
0.000000
0.000000
0.000000
0.000000
0.000000
0.000000
0.000000
0.000000
0.000000
0.000000
0.000000
0.000000
0.000000
0.000000
0.000000
0.000000
0.000000
0.000000
0.000000
0.000000
0.000000
0.000000
0.000000
0.000000
0.000000
0.000000
0.000000
0.000000
0.000000
0.000000
0.000000
0.000000
0.000000
0.000000
0.000000
0.000000
0.000000
0.000000
0.000000
0.000000
0.000000
0.000000
0.000000
0.000000
0.000000
0.000000
0.000000
0.000000
0.000000
0.000000
0.000000
0.000000
0.000000
0.000000
0.000000
0.000000
0.000000
0.000000
0.000000
0.000000
0.000000
0.000000
0.000000
0.000000
0.000000
0.000000
0.000000
0.000000
0.000000
0.000000
0.000000
0.000000
0.000000
0.000000
0.000000
0.000000
0.000000
0.000000
0.000000
0.000000
0.000000
0.000000
0.000000
0.000000
0.000000
0.000000
0.000000
0.000000
0.000000
0.000000
0.000000
0.000000
0.000000
0.000000
0.438276
0.346971
0.326454
0.354064
0.349313
0.333127
0.381776
0.767974
0.282375
0.621416
0.429335
0.489684
0.545228
0.493610
0.364964
0.131390
0.141940
0.378451
0.280928
0.491702
0.000000
0.000000
0.000000
0.000000
0.466833
0.289413
0.398204
0.259698
0.064417
0.774024
0.307748
0.513620
0.032217
0.501678
0.288539
0.279659
0.262678
1.063370
0.410777
0.214391
0.592275
0.369982
0.321105
0.158155
0.000000
0.000000
0.000000
0.000000
0.449562
0.393709
0.557450
0.545044
0.781096
0.429939
0.835445
0.149547
0.707962
0.574545
0.476861
0.131614
0.389246
0.235976
0.477628
0.100362
0.108734
0.143961
0.330908
0.307427
0.000000
0.000000
0.000000
0.000000
0.511852
0.359269
0.578853
0.132220
0.429737
0.086383
0.478350
0.490682
0.294275
0.604211
0.688075
0.728583
0.661182
0.519813
0.309225
0.451161
0.634143
0.593470
0.423594
0.524087
0.000000
0.000000
0.000000
0.000000
0.745378
0.413315
0.192219
0.108264
0.605062
0.841853
0.495412
0.676510
0.231023
0.305625
0.275719
0.641069
0.816580
0.470686
0.642319
0.413788
0.210369
0.402707
0.685249
0.370932
0.000000
0.000000
0.000000
0.000000
0.220975
0.294713
0.462861
0.560659
0.089659
0.439836
0.142903
0.098720
0.312118
0.674790
0.205299
0.199503
0.443795
0.193390
0.218367
0.253456
0.662245
0.629764
0.415202
0.550569
0.000000
0.000000
0.000000
0.000000
0.594455
0.131247
0.239114
0.397563
0.180188
0.342374
0.075344
0.742962
0.620304
0.217994
0.744445
0.224775
0.914572
0.162700
0.101626
0.917690
0.134895
0.647417
0.202855
0.956522
0.000000
0.000000
0.000000
0.000000
0.479842
0.259917
0.340619
0.219279
0.528881
0.469182
0.623658
0.454404
0.974713
0.225809
0.042096
0.271216
0.271514
0.291502
0.750498
0.374463
0.272255
0.615491
0.275383
0.175117
0.000000
0.000000
0.000000
0.000000
0.577394
0.018479
0.606070
0.403421
0.195004
0.589303
0.478607
0.328447
0.455280
0.379646
0.483007
0.226509
0.354714
0.883809
0.691381
0.105537
0.436872
0.191224
0.184496
0.554540
0.000000
0.000000
0.000000
0.000000
0.093802
0.498923
0.581564
0.720664
0.383895
0.694250
0.237409
0.418746
0.747687
0.485468
0.416248
0.400318
0.295853
0.485782
0.517161
0.665615
0.636511
0.066904
0.085610
0.539138
0.000000
0.000000
0.000000
0.000000
0.000000
0.000000
0.000000
0.000000
0.000000
0.000000
0.000000
0.000000
0.000000
0.000000
0.000000
0.000000
0.000000
0.000000
0.000000
0.000000
0.000000
0.000000
0.000000
0.000000
0.000000
0.000000
0.000000
0.000000
0.000000
0.000000
0.000000
0.000000
0.000000
0.000000
0.000000
0.000000
0.000000
0.000000
0.000000
0.000000
0.000000
0.000000
0.000000
0.000000
0.000000
0.000000
0.000000
0.000000
0.000000
0.000000
0.000000
0.000000
0.000000
0.000000
0.000000
0.000000
0.000000
0.000000
0.000000
0.000000
0.000000
0.000000
0.000000
0.000000
0.000000
0.000000
0.000000
0.000000
0.000000
0.000000
0.000000
0.000000
0.000000
0.000000
0.000000
0.000000
0.000000
0.000000
0.000000
0.000000
0.000000
0.000000
0.000000
0.000000
0.000000
0.000000
0.000000
0.000000
0.000000
0.000000
0.000000
0.000000
0.000000
0.000000
0.000000
0.000000
0.000000
0.000000
0.000000
0.000000
0.000000
0.000000
0.000000
0.000000
0.000000
0.000000
0.000000
0.000000
0.000000
0.000000
0.000000
0.000000
0.000000
0.000000
0.000000
0.000000
0.000000
0.000000
0.000000
0.000000
0.000000
0.000000
0.000000
0.000000
0.000000
0.000000
0.000000
0.000000
0.000000
0.000000
0.000000
0.000000
0.000000
0.000000
0.000000
0.000000
0.000000
0.000000
0.000000
0.000000
0.000000
0.000000
0.000000
0.000000
0.000000
0.000000
0.000000
0.000000
0.000000
0.000000
0.000000
0.000000
0.000000
0.000000
0.000000
0.000000
0.000000
0.000000
0.000000
0.000000
0.000000
0.000000
0.000000
0.000000
0.000000
0.000000
0.000000
0.000000
0.000000
0.000000
0.000000
0.000000
0.000000
0.000000
0.000000
0.000000
0.000000
0.000000
0.000000
0.000000
0.000000
0.000000
0.000000
0.000000
0.000000
0.000000
0.000000
0.000000
0.000000
0.000000
0.000000
0.000000
0.000000
0.000000
0.000000
0.000000
0.000000
0.000000
0.000000
0.000000
0.000000
0.000000
0.000000
0.000000
0.000000
0.000000
0.000000
0.000000
0.000000
0.000000
0.000000
0.000000
0.000000
0.000000
0.000000
0.000000
0.000000
0.000000
0.000000
0.000000
0.000000
0.000000
0.000000
0.000000
0.000000
0.000000
0.000000
0.000000
0.000000
0.000000
0.000000
0.000000
</DataArray>
<DataArray NumberOfComponents='1' type='Float32' Name='pressure' format='ascii'>
0.000000
0.000000
0.000000
0.000000
0.000000
0.000000
0.000000
0.000000
0.000000
0.000000
0.000000
0.000000
0.000000
0.000000
0.000000
0.000000
0.000000
0.000000
0.000000
0.000000
0.000000
0.000000
0.000000
0.000000
0.000000
0.000000
0.000000
0.000000
0.000000
0.000000
0.000000
0.000000
0.000000
0.000000
0.000000
0.000000
0.000000
0.000000
0.000000
0.000000
0.000000
0.000000
0.000000
0.000000
0.000000
0.000000
0.000000
0.000000
0.000000
0.000000
0.000000
0.000000
0.000000
0.000000
0.000000
0.000000
0.000000
0.000000
1887.408936
1787.010498
1411.564819
1569.629272
1146.121216
0.000000
395.257812
0.000000
0.000000
0.000000
0.000000
0.000000
0.000000
0.000000
0.000000
0.000000
0.000000
0.000000
0.000000
0.000000
0.000000
0.000000
0.000000
0.000000
0.000000
0.000000
0.000000
0.000000
2007.905273
1812.117432
1496.884399
1904.148438
827.923279
0.000000
0.000000
0.000000
0.000000
0.000000
0.000000
0.000000
0.000000
0.000000
0.000000
0.000000
0.000000
0.000000
0.000000
0.000000
0.000000
0.000000
0.000000
0.000000
0.000000
0.000000
0.000000
0.000000
2349.706299
2303.673096
1556.488525
0.000000
788.127747
1668.490112
1837.246216
1703.711304
1691.607788
942.456177
371.320251
0.000000
2110.833496
849.952026
1936.283203
1596.081909
1121.245239
1705.801880
0.000000
1780.599365
1293.526733
1676.615601
0.000000
0.000000
2924.564697
1507.428833
0.000000
2618.177490
1500.256592
914.663635
1199.861084
0.000000
977.477173
0.000000
1191.007202
0.000000
1818.740234
0.000000
0.000000
0.000000
850.969299
1181.109375
1617.177246
1731.088867
458.409821
1269.136230
0.000000
0.000000
3209.865967
1309.098145
96.663361
1225.419189
0.000000
1381.391113
1157.661743
0.000000
0.000000
1414.570923
0.000000
872.669373
0.928989
1212.256348
710.692566
0.000000
1405.654053
1946.903198
904.811157
1392.830688
1504.682983
1780.857666
0.000000
0.000000
4009.996826
2624.379150
524.535950
0.000000
0.000000
748.007874
1413.538696
0.000000
592.086975
1973.187134
1733.329956
0.000000
1246.595459
643.710388
0.000000
0.000000
1245.237427
2044.758179
682.327087
957.229492
2260.383301
2.888943
0.000000
0.000000
2892.135254
0.000000
0.000000
327.296967
0.000000
1051.740601
0.000000
1725.954956
770.248230
0.000000
0.000000
671.961304
0.000000
127.039291
629.078491
0.000000
698.916992
0.000000
0.000000
1545.691650
225.408981
543.663391
0.000000
0.000000
3158.143555
2815.355469
0.000000
961.656677
0.000000
2100.755859
736.099854
0.000000
0.000000
0.000000
247.728912
0.000000
1296.259033
637.529846
0.000000
0.000000
589.103516
759.796692
0.000000
0.000000
0.000000
1849.800293
0.000000
0.000000
2369.038818
2988.565186
268.579895
0.000000
921.128113
0.000000
1497.013184
1266.417358
118.375229
493.878815
442.669983
365.881256
0.000000
0.000000
587.627991
0.000000
94.463097
1058.847168
0.000000
852.731995
488.463318
0.000000
0.000000
0.000000
2418.397461
1269.036011
0.000000
260.047180
0.000000
557.379883
0.000000
0.000000
964.004211
0.000000
0.000000
1351.114502
226.410248
0.000000
2453.845459
0.000000
1399.055664
0.000000
508.555481
0.000000
0.000000
0.000000
0.000000
0.000000
1858.517334
105.514015
230.975662
0.000000
0.000000
0.000000
0.000000
0.000000
0.000000
0.000000
273.334747
737.684448
574.812500
0.000000
0.000000
328.618561
661.430603
956.940430
0.000000
2178.113037
2589.412354
1457.109741
0.000000
0.000000
2469.036621
2683.751709
515.910828
205.174210
0.000000
453.502258
1853.672241
1260.945435
0.000000
0.000000
443.118134
0.000000
0.000000
0.000000
640.027222
726.950378
941.041443
825.289673
954.608276
284.591614
2332.645264
0.000000
0.000000
0.000000
1610.160156
1710.295288
0.000000
0.000000
2276.948242
1410.055542
0.000000
0.000000
2197.782715
1736.131470
0.000000
0.000000
3247.786621
3246.422607
0.000000
0.000000
3382.914795
3274.165039
0.000000
0.000000
2209.185791
1342.364502
0.000000
0.000000
2327.468750
1749.512695
0.000000
0.000000
2055.300049
841.810913
0.000000
0.000000
1864.326416
2270.397705
0.000000
0.000000
253.162170
1084.223877
0.000000
0.000000
57.693336
0.000000
0.000000
0.000000
504.987122
267.926331
0.000000
0.000000
1557.675415
661.898499
0.000000
0.000000
2395.258789
2061.261475
0.000000
0.000000
2440.088623
1561.627686
0.000000
0.000000
1171.009399
0.000000
0.000000
0.000000
1024.314453
0.000000
0.000000
0.000000
1843.096802
1925.925293
0.000000
0.000000
1225.416382
1201.348877
0.000000
0.000000
1319.034302
1562.807983
0.000000
0.000000
1624.063843
315.902191
0.000000
0.000000
1389.602051
1474.558228
0.000000
0.000000
1567.139038
998.119019
0.000000
0.000000
0.000000
0.000000
0.000000
0.000000
182.921158
0.000000
0.000000
0.000000
638.677979
875.208984
0.000000
0.000000
528.378601
993.583069
0.000000
0.000000
377.344604
66.363396
0.000000
0.000000
313.014496
0.000000
0.000000
0.000000
1355.775269
1562.790283
0.000000
0.000000
227.675858
0.000000
0.000000
0.000000
0.000000
0.000000
0.000000
0.000000
0.000000
0.000000
0.000000
0.000000
0.000000
0.000000
0.000000
0.000000
0.000000
0.000000
0.000000
0.000000
0.000000
0.000000
0.000000
0.000000
0.000000
0.000000
0.000000
0.000000
0.000000
0.000000
0.000000
860.814758
0.000000
0.000000
0.000000
0.000000
0.000000
0.000000
0.000000
0.000000
0.000000
0.000000
0.000000
0.000000
0.000000
0.000000
0.000000
0.000000
0.000000
0.000000
0.000000
0.000000
0.000000
0.000000
0.000000
0.000000
0.000000
0.000000
0.000000
0.000000
0.000000
0.000000
0.000000
0.000000
0.000000
0.000000
0.000000
0.000000
0.000000
0.000000
0.000000
0.000000
0.000000
0.000000
0.000000
0.000000
0.000000
0.000000
0.000000
0.000000
0.000000
0.000000
0.000000
0.000000
0.000000
0.000000
0.000000
0.000000
0.000000
0.000000
0.000000
0.000000
0.000000
0.000000
0.000000
0.000000
0.000000
0.000000
0.000000
0.000000
0.000000
0.000000
0.000000
0.000000
0.000000
0.000000
0.000000
0.000000
0.000000
0.000000
</DataArray>
</PointData>
<Cells>
<DataArray type='Int32' Name='connectivity' format='ascii'>
0
1
2
3
4
5
6
7
8
9
10
11
12
13
14
15
16
17
18
19
20
21
22
23
24
25
26
27
28
29
30
31
32
33
34
35
36
37
38
39
40
41
42
43
44
45
46
47
48
49
50
51
52
53
54
55
56
57
58
59
60
61
62
63
64
65
66
67
68
69
70
71
72
73
74
75
76
77
78
79
80
81
82
83
84
85
86
87
88
89
90
91
92
93
94
95
96
97
98
99
100
101
102
103
104
105
106
107
108
109
110
111
112
113
114
115
116
117
118
119
120
121
122
123
124
125
126
127
128
129
130
131
132
133
134
135
136
137
138
139
140
141
142
143
144
145
146
147
148
149
150
151
152
153
154
155
156
157
158
159
160
161
162
163
164
165
166
167
168
169
170
171
172
173
174
175
176
177
178
179
180
181
182
183
184
185
186
187
188
189
190
191
192
193
194
195
196
197
198
199
200
201
202
203
204
205
206
207
208
209
210
211
212
213
214
215
216
217
218
219
220
221
222
223
224
225
226
227
228
229
230
231
232
233
234
235
236
237
238
239
240
241
242
243
244
245
246
247
248
249
250
251
252
253
254
255
256
257
258
259
260
261
262
263
264
265
266
267
268
269
270
271
272
273
274
275
276
277
278
279
280
281
282
283
284
285
286
287
288
289
290
291
292
293
294
295
296
297
298
299
300
301
302
303
304