<?xml version='1.0' encoding='UTF-8'?>
<VTKFile xmlns='VTK' byte_order='LittleEndian' version='0.1' type='UnstructuredGrid'>
<UnstructuredGrid>
<Piece NumberOfCells='584' NumberOfPoints='584'>
<Points>
<DataArray NumberOfComponents='3' type='Float32' Name='Position' format='ascii'>
-0.075000 -0.075000 0.000000
-0.075000 -0.050000 0.000000
-0.075000 -0.025000 0.000000
-0.075000 0.000000 0.000000
-0.075000 0.025000 0.000000
-0.075000 0.050000 0.000000
-0.075000 0.075000 0.000000
-0.075000 0.100000 0.000000
-0.075000 0.125000 0.000000
-0.075000 0.150000 0.000000
-0.075000 0.175000 0.000000
-0.075000 0.200000 0.000000
-0.075000 0.225000 0.000000
-0.075000 0.250000 0.000000
-0.075000 0.275000 0.000000
-0.075000 0.300000 0.000000
-0.075000 0.325000 0.000000
-0.075000 0.350000 0.000000
-0.075000 0.375000 0.000000
-0.075000 0.400000 0.000000
-0.075000 0.425000 0.000000
-0.075000 0.450000 0.000000
-0.075000 0.475000 0.000000
-0.075000 0.500000 0.000000
-0.075000 0.525000 0.000000
-0.075000 0.550000 0.000000
-0.075000 0.575000 0.000000
-0.075000 0.600000 0.000000
-0.050000 -0.075000 0.000000
-0.050000 -0.050000 0.000000
-0.050000 -0.025000 0.000000
-0.050000 0.000000 0.000000
-0.050000 0.025000 0.000000
-0.050000 0.050000 0.000000
-0.050000 0.075000 0.000000
-0.050000 0.100000 0.000000
-0.050000 0.125000 0.000000
-0.050000 0.150000 0.000000
-0.050000 0.175000 0.000000
-0.050000 0.200000 0.000000
-0.050000 0.225000 0.000000
-0.050000 0.250000 0.000000
-0.050000 0.275000 0.000000
-0.050000 0.300000 0.000000
-0.050000 0.325000 0.000000
-0.050000 0.350000 0.000000
-0.050000 0.375000 0.000000
-0.050000 0.400000 0.000000
-0.050000 0.425000 0.000000
-0.050000 0.450000 0.000000
-0.050000 0.475000 0.000000
-0.050000 0.500000 0.000000
-0.050000 0.525000 0.000000
-0.050000 0.550000 0.000000
-0.050000 0.575000 0.000000
-0.050000 0.600000 0.000000
-0.025000 -0.075000 0.000000
-0.025000 -0.050000 0.000000
-0.025000 -0.025000 0.000000
-0.025000 0.000000 0.000000
-0.025000 0.025000 0.000000
-0.025000 0.050000 0.000000
-0.025000 0.075000 0.000000
-0.025000 0.100000 0.000000
-0.025000 0.125000 0.000000
-0.025000 0.150000 0.000000
-0.025000 0.175000 0.000000
-0.025000 0.200000 0.000000
-0.025000 0.225000 0.000000
-0.025000 0.250000 0.000000
-0.025000 0.275000 0.000000
-0.025000 0.300000 0.000000
-0.025000 0.325000 0.000000
-0.025000 0.350000 0.000000
-0.025000 0.375000 0.000000
-0.025000 0.400000 0.000000
-0.025000 0.425000 0.000000
-0.025000 0.450000 0.000000
-0.025000 0.475000 0.000000
-0.025000 0.500000 0.000000
-0.025000 0.525000 0.000000
-0.025000 0.550000 0.000000
-0.025000 0.575000 0.000000
-0.025000 0.600000 0.000000
0.000000 -0.075000 0.000000
0.000000 -0.050000 0.000000
0.000000 -0.025000 0.000000
0.000000 0.000000 0.000000
0.000000 0.025000 0.000000
0.000000 0.050000 0.000000
0.000000 0.075000 0.000000
0.000000 0.100000 0.000000
0.000000 0.125000 0.000000
0.000000 0.150000 0.000000
0.000000 0.175000 0.000000
0.000000 0.200000 0.000000
0.000000 0.225000 0.000000
0.000000 0.250000 0.000000
0.000000 0.275000 0.000000
0.000000 0.300000 0.000000
0.000000 0.325000 0.000000
0.000000 0.350000 0.000000
0.000000 0.375000 0.000000
0.000000 0.400000 0.000000
0.000000 0.425000 0.000000
0.000000 0.450000 0.000000
0.000000 0.475000 0.000000
0.000000 0.500000 0.000000
0.000000 0.525000 0.000000
0.000000 0.550000 0.000000
0.000000 0.575000 0.000000
0.000000 0.600000 0.000000
0.025000 -0.075000 0.000000
0.025000 -0.050000 0.000000
0.025000 -0.025000 0.000000
0.025000 0.000000 0.000000
0.090583 0.022980 0.000000
0.066764 0.027428 0.000000
0.055727 0.043991 0.000000
0.036264 0.021056 0.000000
0.099189 0.041682 0.000000
0.021324 0.037947 0.000000
0.115204 0.059229 0.000000
0.085668 0.060441 0.000000
0.073557 0.075232 0.000000
0.046935 0.063787 0.000000
0.080761 0.098361 0.000000
0.047226 0.089880 0.000000
0.023961 0.068543 0.000000
0.025439 0.092527 0.000000
0.020339 0.128466 0.000000
0.035037 0.146602 0.000000
0.051945 0.167650 0.000000
0.023457 0.168114 0.000000
0.037174 0.205598 0.000000
0.023771 0.193760 0.000000
0.050000 -0.075000 0.000000
0.050000 -0.050000 0.000000
0.050000 -0.025000 0.000000
0.050000 0.000000 0.000000
0.135314 0.019190 0.000000
0.131203 0.038340 0.000000
0.151373 0.045028 0.000000
0.221181 0.056395 0.000000
0.168868 0.069011 0.000000
0.171508 0.091743 0.000000
0.144933 0.069101 0.000000
0.200553 0.108109 0.000000
0.106725 0.083743 0.000000
0.130867 0.086353 0.000000
0.118194 0.103779 0.000000
0.135842 0.113095 0.000000
0.044540 0.113143 0.000000
0.107196 0.136502 0.000000
0.075193 0.113528 0.000000
0.077729 0.140134 0.000000
0.056178 0.133795 0.000000
0.074149 0.163622 0.000000
0.053206 0.192149 0.000000
0.071825 0.205109 0.000000
0.075000 -0.075000 0.000000
0.075000 -0.050000 0.000000
0.075000 -0.025000 0.000000
0.075000 0.000000 0.000000
0.181666 0.021158 0.000000
0.192325 0.063132 0.000000
0.218483 0.023188 0.000000
0.175793 0.041776 0.000000
0.248107 0.042321 0.000000
0.319840 0.042166 0.000000
0.306978 0.081911 0.000000
0.201320 0.082899 0.000000
0.253376 0.063624 0.000000
0.217151 0.128145 0.000000
0.222470 0.094534 0.000000
0.164515 0.111089 0.000000
0.152397 0.131646 0.000000
0.127367 0.140009 0.000000
0.099330 0.154933 0.000000
0.091211 0.185764 0.000000
0.117006 0.182342 0.000000
0.124381 0.200886 0.000000
0.150573 0.182752 0.000000
0.084431 0.204152 0.000000
0.100000 -0.075000 0.000000
0.100000 -0.050000 0.000000
0.100000 -0.025000 0.000000
0.100000 0.000000 0.000000
0.274273 0.029719 0.000000
0.252838 0.023419 0.000000
0.296109 0.045015 0.000000
0.365721 0.065374 0.000000
0.204254 0.036046 0.000000
0.359350 0.024440 0.000000
0.345231 0.047322 0.000000
0.334887 0.066098 0.000000
0.291990 0.066943 0.000000
0.319719 0.108699 0.000000
0.236408 0.076760 0.000000
0.271377 0.075957 0.000000
0.255777 0.099513 0.000000
0.245060 0.114176 0.000000
0.188879 0.125994 0.000000
0.126124 0.165184 0.000000
0.214790 0.153326 0.000000
0.174475 0.142699 0.000000
0.178961 0.192476 0.000000
0.161761 0.158753 0.000000
0.125000 -0.075000 0.000000
0.125000 -0.050000 0.000000
0.125000 -0.025000 0.000000
0.125000 0.000000 0.000000
0.427436 0.021821 0.000000
0.335481 0.024336 0.000000
0.536984 0.023971 0.000000
0.504669 0.023794 0.000000
0.517579 0.039665 0.000000
0.298435 0.023104 0.000000
0.389768 0.022232 0.000000
0.411155 0.037886 0.000000
0.388787 0.065778 0.000000
0.334319 0.088212 0.000000
0.377907 0.085458 0.000000
0.363157 0.094579 0.000000
0.290736 0.098449 0.000000
0.242365 0.163736 0.000000
0.228305 0.181340 0.000000
0.235651 0.135949 0.000000
0.309177 0.163878 0.000000
0.214593 0.171319 0.000000
0.260526 0.171451 0.000000
0.179264 0.171242 0.000000
0.150000 -0.075000 0.000000
0.150000 -0.050000 0.000000
0.150000 -0.025000 0.000000
0.150000 0.000000 0.000000
0.631909 0.033393 0.000000
0.562278 0.024618 0.000000
0.612055 0.052995 0.000000
0.553859 0.054781 0.000000
0.607414 0.023432 0.000000
0.643959 0.049486 0.000000
0.480230 0.042049 0.000000
0.580513 0.051847 0.000000
0.472550 0.023063 0.000000
0.495945 0.060024 0.000000
0.449128 0.035156 0.000000
0.383721 0.042665 0.000000
0.429343 0.052544 0.000000
0.426770 0.084918 0.000000
0.366029 0.122735 0.000000
0.299867 0.120579 0.000000
0.275825 0.120180 0.000000
0.296863 0.145821 0.000000
0.288177 0.163054 0.000000
0.273894 0.140736 0.000000
0.175000 -0.075000 0.000000
0.175000 -0.050000 0.000000
0.175000 -0.025000 0.000000
0.175000 0.000000 0.000000
0.805370 0.048724 0.000000
0.693335 0.022027 0.000000
0.772819 0.032469 0.000000
0.803473 0.020171 0.000000
0.755732 0.025456 0.000000
0.650819 0.020540 0.000000
0.732387 0.023282 0.000000
0.716990 0.045199 0.000000
0.631615 0.068783 0.000000
0.681120 0.032779 0.000000
0.535879 0.051925 0.000000
0.573796 0.079102 0.000000
0.458847 0.056556 0.000000
0.474493 0.110641 0.000000
0.414059 0.071027 0.000000
0.458296 0.074623 0.000000
0.412080 0.107920 0.000000
0.382777 0.141482 0.000000
0.348588 0.131321 0.000000
0.341852 0.113596 0.000000
0.200000 -0.075000 0.000000
0.200000 -0.050000 0.000000
0.200000 -0.025000 0.000000
0.200000 0.000000 0.000000
0.987955 0.120780 0.000000
0.889173 0.024109 0.000000
0.956949 0.084823 0.000000
0.842566 0.019835 0.000000
0.948937 0.023747 0.000000
0.910572 0.025214 0.000000
0.869071 0.035395 0.000000
0.827787 0.041720 0.000000
0.750416 0.061751 0.000000
0.747442 0.083133 0.000000
0.701961 0.068365 0.000000
0.583942 0.028190 0.000000
0.664639 0.071033 0.000000
0.595609 0.067532 0.000000
0.491156 0.094443 0.000000
0.543965 0.112425 0.000000
0.530231 0.092022 0.000000
0.445237 0.094470 0.000000
0.458822 0.110284 0.000000
0.406589 0.139227 0.000000
0.225000 -0.075000 0.000000
0.225000 -0.050000 0.000000
0.225000 -0.025000 0.000000
0.225000 0.000000 0.000000
1.005705 0.031851 0.000000
0.987278 0.205912 0.000000
0.986766 0.031769 0.000000
0.941362 0.094111 0.000000
0.965721 0.032753 0.000000
0.971789 0.114409 0.000000
0.976812 0.068385 0.000000
0.929571 0.037488 0.000000
0.894725 0.049503 0.000000
0.927489 0.059926 0.000000
0.852829 0.047554 0.000000
0.835017 0.067002 0.000000
0.827028 0.076852 0.000000
0.767436 0.068670 0.000000
0.693826 0.080891 0.000000
0.646742 0.084451 0.000000
0.630827 0.094748 0.000000
0.565632 0.097351 0.000000
0.500472 0.104148 0.000000
0.408780 0.120082 0.000000
0.250000 -0.075000 0.000000
0.250000 -0.050000 0.000000
0.250000 -0.025000 0.000000
0.250000 0.000000 0.000000
1.005768 0.270240 0.000000
0.985832 0.178460 0.000000
0.994796 0.083510 0.000000
0.993252 0.062838 0.000000
0.992204 0.241060 0.000000
1.005354 0.115583 0.000000
0.971254 0.185253 0.000000
1.004066 0.156241 0.000000
0.957133 0.118895 0.000000
0.951574 0.057435 0.000000
0.923292 0.085050 0.000000
0.908933 0.105430 0.000000
0.901264 0.075224 0.000000
0.888536 0.086837 0.000000
0.868020 0.065787 0.000000
0.790663 0.046344 0.000000
0.729041 0.055782 0.000000
0.678668 0.060428 0.000000
0.590283 0.091565 0.000000
0.525404 0.078268 0.000000
0.275000 -0.075000 0.000000
0.275000 -0.050000 0.000000
0.275000 -0.025000 0.000000
0.275000 0.000000 0.000000
0.300000 -0.075000 0.000000
0.300000 -0.050000 0.000000
0.300000 -0.025000 0.000000
0.300000 0.000000 0.000000
0.325000 -0.075000 0.000000
0.325000 -0.050000 0.000000
0.325000 -0.025000 0.000000
0.325000 0.000000 0.000000
0.350000 -0.075000 0.000000
0.350000 -0.050000 0.000000
0.350000 -0.025000 0.000000
0.350000 0.000000 0.000000
0.375000 -0.075000 0.000000
0.375000 -0.050000 0.000000
0.375000 -0.025000 0.000000
0.375000 0.000000 0.000000
0.400000 -0.075000 0.000000
0.400000 -0.050000 0.000000
0.400000 -0.025000 0.000000
0.400000 0.000000 0.000000
0.425000 -0.075000 0.000000
0.425000 -0.050000 0.000000
0.425000 -0.025000 0.000000
0.425000 0.000000 0.000000
0.450000 -0.075000 0.000000
0.450000 -0.050000 0.000000
0.450000 -0.025000 0.000000
0.450000 0.000000 0.000000
0.475000 -0.075000 0.000000
0.475000 -0.050000 0.000000
0.475000 -0.025000 0.000000
0.475000 0.000000 0.000000
0.500000 -0.075000 0.000000
0.500000 -0.050000 0.000000
0.500000 -0.025000 0.000000
0.500000 0.000000 0.000000
0.525000 -0.075000 0.000000
0.525000 -0.050000 0.000000
0.525000 -0.025000 0.000000
0.525000 0.000000 0.000000
0.550000 -0.075000 0.000000
0.550000 -0.050000 0.000000
0.550000 -0.025000 0.000000
0.550000 0.000000 0.000000
0.575000 -0.075000 0.000000
0.575000 -0.050000 0.000000
0.575000 -0.025000 0.000000
0.575000 0.000000 0.000000
0.600000 -0.075000 0.000000
0.600000 -0.050000 0.000000
0.600000 -0.025000 0.000000
0.600000 0.000000 0.000000
0.625000 -0.075000 0.000000
0.625000 -0.050000 0.000000
0.625000 -0.025000 0.000000
0.625000 0.000000 0.000000
0.650000 -0.075000 0.000000
0.650000 -0.050000 0.000000
0.650000 -0.025000 0.000000
0.650000 0.000000 0.000000
0.675000 -0.075000 0.000000
0.675000 -0.050000 0.000000
0.675000 -0.025000 0.000000
0.675000 0.000000 0.000000
0.700000 -0.075000 0.000000
0.700000 -0.050000 0.000000
0.700000 -0.025000 0.000000
0.700000 0.000000 0.000000
0.725000 -0.075000 0.000000
0.725000 -0.050000 0.000000
0.725000 -0.025000 0.000000
0.725000 0.000000 0.000000
0.750000 -0.075000 0.000000
0.750000 -0.050000 0.000000
0.750000 -0.025000 0.000000
0.750000 0.000000 0.000000
0.775000 -0.075000 0.000000
0.775000 -0.050000 0.000000
0.775000 -0.025000 0.000000
0.775000 0.000000 0.000000
0.800000 -0.075000 0.000000
0.800000 -0.050000 0.000000
0.800000 -0.025000 0.000000
0.800000 0.000000 0.000000
0.825000 -0.075000 0.000000
0.825000 -0.050000 0.000000
0.825000 -0.025000 0.000000
0.825000 0.000000 0.000000
0.850000 -0.075000 0.000000
0.850000 -0.050000 0.000000
0.850000 -0.025000 0.000000
0.850000 0.000000 0.000000
0.875000 -0.075000 0.000000
0.875000 -0.050000 0.000000
0.875000 -0.025000 0.000000
0.875000 0.000000 0.000000
0.900000 -0.075000 0.000000
0.900000 -0.050000 0.000000
0.900000 -0.025000 0.000000
0.900000 0.000000 0.000000
0.925000 -0.075000 0.000000
0.925000 -0.050000 0.000000
0.925000 -0.025000 0.000000
0.925000 0.000000 0.000000
0.950000 -0.075000 0.000000
0.950000 -0.050000 0.000000
0.950000 -0.025000 0.000000
0.950000 0.000000 0.000000
0.975000 -0.075000 0.000000
0.975000 -0.050000 0.000000
0.975000 -0.025000 0.000000
0.975000 0.000000 0.000000
1.000000 -0.075000 0.000000
1.000000 -0.050000 0.000000
1.000000 -0.025000 0.000000
1.000000 0.000000 0.000000
1.025000 -0.075000 0.000000
1.025000 -0.050000 0.000000
1.025000 -0.025000 0.000000
1.025000 0.000000 0.000000
1.025000 0.025000 0.000000
1.025000 0.050000 0.000000
1.025000 0.075000 0.000000
1.025000 0.100000 0.000000
1.025000 0.125000 0.000000
1.025000 0.150000 0.000000
1.025000 0.175000 0.000000
1.025000 0.200000 0.000000
1.025000 0.225000 0.000000
1.025000 0.250000 0.000000
1.025000 0.275000 0.000000
1.025000 0.300000 0.000000
1.025000 0.325000 0.000000
1.025000 0.350000 0.000000
1.025000 0.375000 0.000000
1.025000 0.400000 0.000000
1.025000 0.425000 0.000000
1.025000 0.450000 0.000000
1.025000 0.475000 0.000000
1.025000 0.500000 0.000000
1.025000 0.525000 0.000000
1.025000 0.550000 0.000000
1.025000 0.575000 0.000000
1.025000 0.600000 0.000000
1.050000 -0.075000 0.000000
1.050000 -0.050000 0.000000
1.050000 -0.025000 0.000000
1.050000 0.000000 0.000000
1.050000 0.025000 0.000000
1.050000 0.050000 0.000000
1.050000 0.075000 0.000000
1.050000 0.100000 0.000000
1.050000 0.125000 0.000000
1.050000 0.150000 0.000000
1.050000 0.175000 0.000000
1.050000 0.200000 0.000000
1.050000 0.225000 0.000000
1.050000 0.250000 0.000000
1.050000 0.275000 0.000000
1.050000 0.300000 0.000000
1.050000 0.325000 0.000000
1.050000 0.350000 0.000000
1.050000 0.375000 0.000000
1.050000 0.400000 0.000000
1.050000 0.425000 0.000000
1.050000 0.450000 0.000000
1.050000 0.475000 0.000000
1.050000 0.500000 0.000000
1.050000 0.525000 0.000000
1.050000 0.550000 0.000000
1.050000 0.575000 0.000000
1.050000 0.600000 0.000000
1.075000 -0.075000 0.000000
1.075000 -0.050000 0.000000
1.075000 -0.025000 0.000000
1.075000 0.000000 0.000000
1.075000 0.025000 0.000000
1.075000 0.050000 0.000000
1.075000 0.075000 0.000000
1.075000 0.100000 0.000000
1.075000 0.125000 0.000000
1.075000 0.150000 0.000000
1.075000 0.175000 0.000000
1.075000 0.200000 0.000000
1.075000 0.225000 0.000000
1.075000 0.250000 0.000000
1.075000 0.275000 0.000000
1.075000 0.300000 0.000000
1.075000 0.325000 0.000000
1.075000 0.350000 0.000000
1.075000 0.375000 0.000000
1.075000 0.400000 0.000000
1.075000 0.425000 0.000000
1.075000 0.450000 0.000000
1.075000 0.475000 0.000000
1.075000 0.500000 0.000000
1.075000 0.525000 0.000000
1.075000 0.550000 0.000000
1.075000 0.575000 0.000000
1.075000 0.600000 0.000000
1.100000 -0.075000 0.000000
1.100000 -0.050000 0.000000
1.100000 -0.025000 0.000000
1.100000 0.000000 0.000000
1.100000 0.025000 0.000000
1.100000 0.050000 0.000000
1.100000 0.075000 0.000000
1.100000 0.100000 0.000000
1.100000 0.125000 0.000000
1.100000 0.150000 0.000000
1.100000 0.175000 0.000000
1.100000 0.200000 0.000000
1.100000 0.225000 0.000000
1.100000 0.250000 0.000000
1.100000 0.275000 0.000000
1.100000 0.300000 0.000000
1.100000 0.325000 0.000000
1.100000 0.350000 0.000000
1.100000 0.375000 0.000000
1.100000 0.400000 0.000000
1.100000 0.425000 0.000000
1.100000 0.450000 0.000000
1.100000 0.475000 0.000000
1.100000 0.500000 0.000000
1.100000 0.525000 0.000000
1.100000 0.550000 0.000000
1.100000 0.575000 0.000000
1.100000 0.600000 0.000000
</DataArray>
</Points>
<PointData>
<DataArray NumberOfComponents='1' type='Int32' Name='ParticleType' format='ascii'>
3
3
3
3
3
3
3
3
3
3
3
3
3
3
3
3
3
3
3
3
3
3
3
3
3
3
2
2
3
3
3
3
3
3
3
3
3
3
3
3
3
3
3
3
3
3
3
3
3
3
3
3
3
3
2
2
3
3
2
2
2
2
2
2
2
2
2
2
2
2
2
2
2
2
2
2
2
2
2
2
2
2
2
2
3
3
2
2
2
2
2
2
2
2
2
2
2
2
2
2
2
2
2
2
2
2
2
2
2
2
2
2
3
3
2
2
0
0
0
0
0
0
0
0
0
0
0
0
0
0
0
0
0
0
0
0
3
3
2
2
0
0
0
0
0
0
0
0
0
0
0
0
0
0
0
0
0
0
0
0
3
3
2
2
0
0
0
0
0
0
0
0
0
0
0
0
0
0
0
0
0
0
0
0
3
3
2
2
0
0
0
0
0
0
0
0
0
0
0
0
0
0
0
0
0
0
0
0
3
3
2
2
0
0
0
0
0
0
0
0
0
0
0
0
0
0
0
0
0
0
0
0
3
3
2
2
0
0
0
0
0
0
0
0
0
0
0
0
0
0
0
0
0
0
0
0
3
3
2
2
0
0
0
0
0
0
0
0
0
0
0
0
0
0
0
0
0
0
0
0
3
3
2
2
0
0
0
0
0
0
0
0
0
0
0
0
0
0
0
0
0
0
0
0
3
3
2
2
0
0
0
0
0
0
0
0
0
0
0
0
0
0
0
0
0
0
0
0
3
3
2
2
0
0
0
0
0
0
0
0
0
0
0
0
0
0
0
0
0
0
0
0
3
3
2
2
3
3
2
2
3
3
2
2
3
3
2
2
3
3
2
2
3
3
2
2
3
3
2
2
3
3
2
2
3
3
2
2
3
3
2
2
3
3
2
2
3
3
2
2
3
3
2
2
3
3
2
2
3
3
2
2
3
3
2
2
3
3
2
2
3
3
2
2
3
3
2
2
3
3
2
2
3
3
2
2
3
3
2
2
3
3
2
2
3
3
2
2
3
3
2
2
3
3
2
2
3
3
2
2
3
3
2
2
3
3
2
2
3
3
2
2
3
3
2
2
2
2
2
2
2
2
2
2
2
2
2
2
2
2
2
2
2
2
2
2
2
2
2
2
3
3
2
2
2
2
2
2
2
2
2
2
2
2
2
2
2
2
2
2
2
2
2
2
2
2
2
2
3
3
3
3
3
3
3
3
3
3
3
3
3
3
3
3
3
3
3
3
3
3
3
3
3
3
2
2
3
3
3
3
3
3
3
3
3
3
3
3
3
3
3
3
3
3
3
3
3
3
3
3
3
3
2
2
</DataArray>
<DataArray NumberOfComponents='1' type='Float32' Name='Velocity' format='ascii'>
0.000000
0.000000
0.000000
0.000000
0.000000
0.000000
0.000000
0.000000
0.000000
0.000000
0.000000
0.000000
0.000000
0.000000
0.000000
0.000000
0.000000
0.000000
0.000000
0.000000
0.000000
0.000000
0.000000
0.000000
0.000000
0.000000
0.000000
0.000000
0.000000
0.000000
0.000000
0.000000
0.000000
0.000000
0.000000
0.000000
0.000000
0.000000
0.000000
0.000000
0.000000
0.000000
0.000000
0.000000
0.000000
0.000000
0.000000
0.000000
0.000000
0.000000
0.000000
0.000000
0.000000
0.000000
0.000000
0.000000
0.000000
0.000000
0.000000
0.000000
0.000000
0.000000
0.000000
0.000000
0.000000
0.000000
0.000000
0.000000
0.000000
0.000000
0.000000
0.000000
0.000000
0.000000
0.000000
0.000000
0.000000
0.000000
0.000000
0.000000
0.000000
0.000000
0.000000
0.000000
0.000000
0.000000
0.000000
0.000000
0.000000
0.000000
0.000000
0.000000
0.000000
0.000000
0.000000
0.000000
0.000000
0.000000
0.000000
0.000000
0.000000
0.000000
0.000000
0.000000
0.000000
0.000000
0.000000
0.000000
0.000000
0.000000
0.000000
0.000000
0.000000
0.000000
0.000000
0.000000
0.378810
0.483089
0.102568
0.424288
0.463734
0.401393
0.698541
0.511828
0.319704
0.548221
0.336039
0.278766
0.431027
0.701340
0.720994
0.747806
0.563142
0.544545
0.586774
0.988613
0.000000
0.000000
0.000000
0.000000
0.122275
0.409129
0.689857
0.810011
0.903991
0.764066
0.826588
1.011378
0.365300
0.519996
0.695979
0.511488
0.240362
0.566505
0.397426
0.339941
0.630637
0.327182
0.660437
0.685293
0.000000
0.000000
0.000000
0.000000
0.390362
0.531296
0.495484
0.338496
0.776105
1.154345
1.041529
0.974627
0.944723
1.032091
0.788696
0.616785
0.245474
0.523409
0.429194
0.417694
0.220364
0.846261
1.315851
0.494381
0.000000
0.000000
0.000000
0.000000
0.486187
0.758862
1.425029
1.273879
0.427775
0.996246
1.642552
1.113873
1.218015
0.938921
0.810163
1.080020
1.028020
0.707246
0.865238
0.493723
0.913350
0.630015
0.864749
0.884524
0.000000
0.000000
0.000000
0.000000
1.320284
0.854748
1.888283
2.089433
1.975426
0.653239
1.144917
1.459619
1.400761
1.238762
1.342212
1.177206
1.241376
0.645510
0.548127
1.049206
1.342345
0.679767
1.338461
0.832947
0.000000
0.000000
0.000000
0.000000
2.046305
2.073483
1.784093
2.046974
2.307660
1.899287
1.827868
2.104843
1.714392
1.677746
1.644780
0.881283
1.521736
1.956047
1.424063
0.956670
1.176478
1.128656
1.058499
1.206752
0.000000
0.000000
0.000000
0.000000
2.498317
2.347257
2.650399
2.980924
2.661627
1.954125
2.419058
2.243668
2.281703
1.961313
1.973553
1.827874
1.577760
1.588454
1.605865
1.798198
1.391318
1.520837
1.218215
1.580762
0.000000
0.000000
0.000000
0.000000
2.593322
2.074871
1.324602
2.552367
1.368824
1.743254
2.026436
2.512811
2.499340
2.413169
2.497722
1.949616
2.427452
1.863342
1.529299
1.552370
2.321290
1.692492
1.312396
1.294140
0.000000
0.000000
0.000000
0.000000
0.898843
4.641943
0.951894
2.007114
1.030883
1.909807
1.223046
1.460479
1.943996
2.584644
2.199444
2.773570
2.554710
2.370588
2.277295
2.508809
2.260952
1.728051
1.818447
1.346461
0.000000
0.000000
0.000000
0.000000
3.908654
4.195171
2.838530
2.300053
4.126078
1.835591
3.647119
3.950800
2.094227
1.812361
1.596820
1.976287
2.000462
1.955987
2.978373
2.663873
2.446809
2.267602
1.975678
1.551299
0.000000
0.000000
0.000000
0.000000
0.000000
0.000000
0.000000
0.000000
0.000000
0.000000
0.000000
0.000000
0.000000
0.000000
0.000000
0.000000
0.000000
0.000000
0.000000
0.000000
0.000000
0.000000
0.000000
0.000000
0.000000
0.000000
0.000000
0.000000
0.000000
0.000000
0.000000
0.000000
0.000000
0.000000
0.000000
0.000000
0.000000
0.000000
0.000000
0.000000
0.000000
0.000000
0.000000
0.000000
0.000000
0.000000
0.000000
0.000000
0.000000
0.000000
0.000000
0.000000
0.000000
0.000000
0.000000
0.000000
0.000000
0.000000
0.000000
0.000000
0.000000
0.000000
0.000000
0.000000
0.000000
0.000000
0.000000
0.000000
0.000000
0.000000
0.000000
0.000000
0.000000
0.000000
0.000000
0.000000
0.000000
0.000000
0.000000
0.000000
0.000000
0.000000
0.000000
0.000000
0.000000
0.000000
0.000000
0.000000
0.000000
0.000000
0.000000
0.000000
0.000000
0.000000
0.000000
0.000000
0.000000
0.000000
0.000000
0.000000
0.000000
0.000000
0.000000
0.000000
0.000000
0.000000
0.000000
0.000000
0.000000
0.000000
0.000000
0.000000
0.000000
0.000000
0.000000
0.000000
0.000000
0.000000
0.000000
0.000000
0.000000
0.000000
0.000000
0.000000
0.000000
0.000000
0.000000
0.000000
0.000000
0.000000
0.000000
0.000000
0.000000
0.000000
0.000000
0.000000
0.000000
0.000000
0.000000
0.000000
0.000000
0.000000
0.000000
0.000000
0.000000
0.000000
0.000000
0.000000
0.000000
0.000000
0.000000
0.000000
0.000000
0.000000
0.000000
0.000000
0.000000
0.000000
0.000000
0.000000
0.000000
0.000000
0.000000
0.000000
0.000000
0.000000
0.000000
0.000000
0.000000
0.000000
0.000000
0.000000
0.000000
0.000000
0.000000
0.000000
0.000000
0.000000
0.000000
0.000000
0.000000
0.000000
0.000000
0.000000
0.000000
0.000000
0.000000
0.000000
0.000000
0.000000
0.000000
0.000000
0.000000
0.000000
0.000000
0.000000
0.000000
0.000000
0.000000
0.000000
0.000000
0.000000
0.000000
0.000000
0.000000
0.000000
0.000000
0.000000
0.000000
0.000000
0.000000
0.000000
0.000000
0.000000
0.000000
0.000000
0.000000
0.000000
0.000000
0.000000
0.000000
0.000000
0.000000
0.000000
0.000000
0.000000
0.000000
0.000000
0.000000
0.000000
0.000000
0.000000
</DataArray>
<DataArray NumberOfComponents='1' type='Float32' Name='pressure' format='ascii'>
0.000000
0.000000
0.000000
0.000000
0.000000
0.000000
0.000000
0.000000
0.000000
0.000000
0.000000
0.000000
0.000000
0.000000
0.000000
0.000000
0.000000
0.000000
0.000000
0.000000
0.000000
0.000000
0.000000
0.000000
0.000000
0.000000
0.000000
0.000000
0.000000
0.000000
0.000000
0.000000
0.000000
0.000000
0.000000
0.000000
0.000000
0.000000
0.000000
0.000000
0.000000
0.000000
0.000000
0.000000
0.000000
0.000000
0.000000
0.000000
0.000000
0.000000
0.000000
0.000000
0.000000
0.000000
0.000000
0.000000
0.000000
0.000000
2308.464844
2371.149414
3233.742676
3641.053223
3307.268799
3000.344482
5102.949707
3345.125488
2668.707275
1288.890869
0.000000
0.000000
0.000000
0.000000
0.000000
0.000000
0.000000
0.000000
0.000000
0.000000
0.000000
0.000000
0.000000
0.000000
0.000000
0.000000
0.000000
0.000000
2248.875488
1840.325439
1857.257935
2733.150391
3523.860596
1874.698975
5145.720703
2553.308594
2718.601807
0.000000
0.000000
0.000000
0.000000
0.000000
0.000000
0.000000
0.000000
0.000000
0.000000
0.000000
0.000000
0.000000
0.000000
0.000000
0.000000
0.000000
0.000000
0.000000
2992.668457
1818.325439
90.561493
1306.787476
894.412354
1358.585693
0.000000
1072.223755
0.000000
1592.880249
723.004517
1195.546875
487.271088
2749.706543
2673.042236
1244.506470
2325.844482
1818.220093
839.504883
2585.771973
0.000000
2212.881104
0.000000
0.000000
2427.384277
1683.314087
2198.013916
1424.625000
151.987152
0.000000
1013.783875
0.000000
1363.881592
925.097534
0.000000
1987.220825
438.219971
628.909119
852.134644
0.000000
633.538391
1006.516724
3225.098389
1221.504150
1739.386963
0.000000
0.000000
0.000000
1267.862183
806.500488
355.875122
2016.437744
198.414749
1080.115356
1717.984009
1878.969360
2014.651733
583.298157
2545.609619
654.373962
996.007751
568.079468
890.990723
0.000000
1057.782715
556.719604
0.000000
0.000000
0.000000
0.000000
0.000000
0.000000
1724.842163
0.000000
1629.103882
3440.414307
1538.088867
724.300903
907.378235
103.116501
291.499237
0.000000
1360.643066
0.000000
2123.259277
0.000000
453.504150
0.000000
0.000000
0.000000
1066.959839
229.632248
0.000000
0.000000
0.000000
0.000000
3375.649658
1123.735596
1892.982178
2510.718994
2350.868896
1216.406494
2275.774170
1077.594727
2234.138916
1597.862671
1168.392334
1809.928833
0.000000
349.799652
1758.957153
0.000000
0.000000
457.815033
0.000000
0.000000
0.000000
0.000000
0.000000
0.000000
3166.448486
263.628937
864.678528
1907.424072
0.000000
0.000000
0.000000
1580.380981
0.000000
1943.701660
1198.283691
0.000000
1595.722656
987.684509
1019.379700
887.153748
0.000000
0.000000
973.070984
0.000000
0.000000
16.207611
0.000000
0.000000
3124.010254
560.913696
123.896355
184.566452
369.727234
0.000000
897.675903
0.000000
0.000000
0.000000
941.893188
0.000000
649.309937
376.857574
1580.214355
0.000000
0.000000
0.000000
0.000000
0.000000
0.000000
850.081238
0.000000
0.000000
2373.287842
2167.637451
0.000000
4673.867188
3251.035156
0.000000
7854.787109
4666.098145
2607.073242
782.441895
0.000000
0.000000
0.000000
1772.294067
0.000000
2037.036621
0.000000
0.000000
0.000000
0.000000
0.000000
0.000000
0.000000
0.000000
2423.973633
1064.608887
10235.932617
0.000000
7492.092773
1008.529602
7871.624512
821.841492
5842.674316
5319.722168
0.000000
3421.646973
2061.293457
334.267334
0.000000
0.000000
0.000000
0.000000
0.000000
0.000000
0.000000
0.000000
0.000000
0.000000
2390.983398
2497.037354
0.000000
0.000000
0.000000
7863.408691
0.000000
2414.125000
0.000000
0.000000
0.000000
2135.179443
3741.634521
0.000000
979.573608
0.000000
0.000000
181.838058
286.217987
534.621765
0.000000
0.000000
0.000000
0.000000
882.880432
1368.472900
0.000000
0.000000
1963.911377
1218.284424
0.000000
0.000000
1189.879150
0.000000
0.000000
0.000000
1945.861572
1585.878784
0.000000
0.000000
2680.960693
1999.639771
0.000000
0.000000
3267.686279
3645.220459
0.000000
0.000000
3485.400635
2901.800049
0.000000
0.000000
1250.439697
0.000000
0.000000
0.000000
2185.979736
1034.007446
0.000000
0.000000
1900.906494
1901.950684
0.000000
0.000000
1359.763062
1421.631836
0.000000
0.000000
1396.950562
826.671997
0.000000
0.000000
480.318298
1327.176392
0.000000
0.000000
857.505127
0.000000
0.000000
0.000000
269.799164
0.000000
0.000000
0.000000
2573.068359
2853.167969
0.000000
0.000000
1028.490234
0.000000
0.000000
0.000000
1279.785400
0.000000
0.000000
0.000000
503.226898
0.000000
0.000000
0.000000
313.152283
250.176346
0.000000
0.000000
0.000000
0.000000
0.000000
0.000000
2931.402588
1341.799927
0.000000
0.000000
3132.956543
0.000000
0.000000
0.000000
3627.330322
2049.445068
0.000000
0.000000
1841.891846
0.000000
0.000000
0.000000
2751.915039
3444.439453
0.000000
0.000000
1975.941895
1568.818848
0.000000
0.000000
2962.804443
3018.848877
0.000000
0.000000
1757.691650
0.000000
0.000000
0.000000
2334.571045
0.000000
0.000000
0.000000
4230.600586
4981.004883
9922.801758
3160.642090
0.000000
0.000000
2784.396240
0.000000
0.000000
0.000000
0.000000
0.000000
0.000000
0.000000
0.000000
0.000000
0.000000
0.000000
0.000000
0.000000
0.000000
0.000000
0.000000
0.000000
0.000000
0.000000
0.000000
0.000000
5087.515625
5859.302246
8061.557617
5665.207031
2419.698975
3108.723877
3464.968750
2448.504395
520.449097
0.000000
0.000000
742.397583
2350.546875
0.000000
0.000000
0.000000
0.000000
0.000000
0.000000
0.000000
0.000000
0.000000
0.000000
0.000000
0.000000
0.000000
0.000000
0.000000
0.000000
0.000000
0.000000
0.000000
0.000000
0.000000
0.000000
0.000000
0.000000
0.000000
0.000000
0.000000
0.000000
0.000000
0.000000
0.000000
0.000000
0.000000
0.000000
0.000000
0.000000
0.000000
0.000000
0.000000
0.000000
0.000000
0.000000
0.000000
0.000000
0.000000
0.000000
0.000000
0.000000
0.000000
0.000000
0.000000
0.000000
0.000000
0.000000
0.000000
0.000000
0.000000
0.000000
0.000000
0.000000
0.000000
0.000000
0.000000
0.000000
0.000000
0.000000
0.000000
0.000000
0.000000
</DataArray>
</PointData>
<Cells>
<DataArray type='Int32' Name='connectivity' format='ascii'>
0
1
2
3
4
5
6
7
8
9
10
11
12
13
14
15
16
17
18
19
20
21
22
23
24
25
26
27
28
29
30
31
32
33
34
35
36
37
38
39
40
41
42
43
44
45
46
47
48
49
50
51
52
53
54
55
56
57
58
59
60
61
62
63
64
65
66
67
68
69
70
71
72
73
74
75
76
77
78
79
80
81
82
83
84
85
86
87
88
89
90
91
92
93
94
95
96
97
98
99
100
101
102
103
104
105
106
107
108
109
110
111
112
113
114
115
116
117
118
119
120
121
122
123
124
125
126
127
128
129
130
131
132
133
134
135
136
137
138
139
140
141
142
143
144
145
146
147
148
149
150
151
152
153
154
155
156
157
158
159
160
161
162
163
164
165
166
167
168
169
170
171
172
173
174
175
176
177
178
179
180
181
182
183
184
185
186
187
188
189
190
191
192
193
194
195
196
197
198
199
200
201
202
203
204
205
206
207
208
209
210
211
212
213
214
215
216
217
218
219
220
221
222
223
224
225
226
227
228
229
230
231
232
233
234
235
236
237
238
239
240
241
242
243
244
245
246
247
248
249
250
251
252
253
254
255
256
257
258
259
260
261
262
263
264
265
266
267
268
269
270
271
272
273
274
275
276
277
278
279
280
281
282
283
284
285
286
287