<?xml version='1.0' encoding='UTF-8'?>
<VTKFile xmlns='VTK' byte_order='LittleEndian' version='0.1' type='UnstructuredGrid'>
<UnstructuredGrid>
<Piece NumberOfCells='584' NumberOfPoints='584'>
<Points>
<DataArray NumberOfComponents='3' type='Float32' Name='Position' format='ascii'>
-0.075000 -0.075000 0.000000
-0.075000 -0.050000 0.000000
-0.075000 -0.025000 0.000000
-0.075000 0.000000 0.000000
-0.075000 0.025000 0.000000
-0.075000 0.050000 0.000000
-0.075000 0.075000 0.000000
-0.075000 0.100000 0.000000
-0.075000 0.125000 0.000000
-0.075000 0.150000 0.000000
-0.075000 0.175000 0.000000
-0.075000 0.200000 0.000000
-0.075000 0.225000 0.000000
-0.075000 0.250000 0.000000
-0.075000 0.275000 0.000000
-0.075000 0.300000 0.000000
-0.075000 0.325000 0.000000
-0.075000 0.350000 0.000000
-0.075000 0.375000 0.000000
-0.075000 0.400000 0.000000
-0.075000 0.425000 0.000000
-0.075000 0.450000 0.000000
-0.075000 0.475000 0.000000
-0.075000 0.500000 0.000000
-0.075000 0.525000 0.000000
-0.075000 0.550000 0.000000
-0.075000 0.575000 0.000000
-0.075000 0.600000 0.000000
-0.050000 -0.075000 0.000000
-0.050000 -0.050000 0.000000
-0.050000 -0.025000 0.000000
-0.050000 0.000000 0.000000
-0.050000 0.025000 0.000000
-0.050000 0.050000 0.000000
-0.050000 0.075000 0.000000
-0.050000 0.100000 0.000000
-0.050000 0.125000 0.000000
-0.050000 0.150000 0.000000
-0.050000 0.175000 0.000000
-0.050000 0.200000 0.000000
-0.050000 0.225000 0.000000
-0.050000 0.250000 0.000000
-0.050000 0.275000 0.000000
-0.050000 0.300000 0.000000
-0.050000 0.325000 0.000000
-0.050000 0.350000 0.000000
-0.050000 0.375000 0.000000
-0.050000 0.400000 0.000000
-0.050000 0.425000 0.000000
-0.050000 0.450000 0.000000
-0.050000 0.475000 0.000000
-0.050000 0.500000 0.000000
-0.050000 0.525000 0.000000
-0.050000 0.550000 0.000000
-0.050000 0.575000 0.000000
-0.050000 0.600000 0.000000
-0.025000 -0.075000 0.000000
-0.025000 -0.050000 0.000000
-0.025000 -0.025000 0.000000
-0.025000 0.000000 0.000000
-0.025000 0.025000 0.000000
-0.025000 0.050000 0.000000
-0.025000 0.075000 0.000000
-0.025000 0.100000 0.000000
-0.025000 0.125000 0.000000
-0.025000 0.150000 0.000000
-0.025000 0.175000 0.000000
-0.025000 0.200000 0.000000
-0.025000 0.225000 0.000000
-0.025000 0.250000 0.000000
-0.025000 0.275000 0.000000
-0.025000 0.300000 0.000000
-0.025000 0.325000 0.000000
-0.025000 0.350000 0.000000
-0.025000 0.375000 0.000000
-0.025000 0.400000 0.000000
-0.025000 0.425000 0.000000
-0.025000 0.450000 0.000000
-0.025000 0.475000 0.000000
-0.025000 0.500000 0.000000
-0.025000 0.525000 0.000000
-0.025000 0.550000 0.000000
-0.025000 0.575000 0.000000
-0.025000 0.600000 0.000000
0.000000 -0.075000 0.000000
0.000000 -0.050000 0.000000
0.000000 -0.025000 0.000000
0.000000 0.000000 0.000000
0.000000 0.025000 0.000000
0.000000 0.050000 0.000000
0.000000 0.075000 0.000000
0.000000 0.100000 0.000000
0.000000 0.125000 0.000000
0.000000 0.150000 0.000000
0.000000 0.175000 0.000000
0.000000 0.200000 0.000000
0.000000 0.225000 0.000000
0.000000 0.250000 0.000000
0.000000 0.275000 0.000000
0.000000 0.300000 0.000000
0.000000 0.325000 0.000000
0.000000 0.350000 0.000000
0.000000 0.375000 0.000000
0.000000 0.400000 0.000000
0.000000 0.425000 0.000000
0.000000 0.450000 0.000000
0.000000 0.475000 0.000000
0.000000 0.500000 0.000000
0.000000 0.525000 0.000000
0.000000 0.550000 0.000000
0.000000 0.575000 0.000000
0.000000 0.600000 0.000000
0.025000 -0.075000 0.000000
0.025000 -0.050000 0.000000
0.025000 -0.025000 0.000000
0.025000 0.000000 0.000000
0.279811 0.046121 0.000000
0.262230 0.027663 0.000000
0.246146 0.056831 0.000000
0.193181 0.022362 0.000000
0.365367 0.023814 0.000000
0.066788 0.026371 0.000000
0.444213 0.024739 0.000000
0.289296 0.021980 0.000000
0.225846 0.022789 0.000000
0.156097 0.049421 0.000000
0.301977 0.038119 0.000000
0.201651 0.057590 0.000000
0.169885 0.027721 0.000000
0.028101 0.020606 0.000000
0.031503 0.058703 0.000000
0.042645 0.038436 0.000000
0.113661 0.023858 0.000000
0.092997 0.027158 0.000000
0.117930 0.048766 0.000000
0.144640 0.023727 0.000000
0.050000 -0.075000 0.000000
0.050000 -0.050000 0.000000
0.050000 -0.025000 0.000000
0.050000 0.000000 0.000000
0.356701 0.053838 0.000000
0.444856 0.181846 0.000000
0.442377 0.157856 0.000000
0.184419 0.171795 0.000000
0.272161 0.130431 0.000000
0.621058 0.058977 0.000000
0.388313 0.110612 0.000000
0.731056 0.043684 0.000000
0.381137 0.037922 0.000000
0.406080 0.082691 0.000000
0.272120 0.110915 0.000000
0.426370 0.055089 0.000000
0.065016 0.067836 0.000000
0.426241 0.082533 0.000000
0.272459 0.080684 0.000000
0.250030 0.098822 0.000000
0.212166 0.047636 0.000000
0.335538 0.020249 0.000000
0.135294 0.046360 0.000000
0.187338 0.050424 0.000000
0.075000 -0.075000 0.000000
0.075000 -0.050000 0.000000
0.075000 -0.025000 0.000000
0.075000 0.000000 0.000000
0.385701 0.082362 0.000000
0.376393 0.149617 0.000000
0.533257 0.024080 0.000000
0.486167 0.023413 0.000000
0.761582 0.093540 0.000000
0.806312 0.026201 0.000000
0.811539 0.052045 0.000000
0.017659 0.082004 0.000000
0.740521 0.084195 0.000000
0.787980 0.052295 0.000000
0.602101 0.028949 0.000000
0.428862 0.141063 0.000000
0.296626 0.069963 0.000000
0.374934 0.062673 0.000000
0.402544 0.022920 0.000000
0.338441 0.080403 0.000000
0.334171 0.041158 0.000000
0.248285 0.121361 0.000000
0.290715 0.092425 0.000000
0.243268 0.035059 0.000000
0.100000 -0.075000 0.000000
0.100000 -0.050000 0.000000
0.100000 -0.025000 0.000000
0.100000 0.000000 0.000000
0.642373 0.028489 0.000000
0.579468 0.022903 0.000000
0.676826 0.074609 0.000000
0.896355 0.024379 0.000000
0.401346 0.055786 0.000000
0.873892 0.024938 0.000000
0.835425 0.094651 0.000000
0.509664 0.113249 0.000000
0.834052 0.021096 0.000000
0.834211 0.050073 0.000000
0.623351 0.032186 0.000000
0.626845 0.079636 0.000000
0.781214 0.073341 0.000000
0.761137 0.048045 0.000000
0.463582 0.080419 0.000000
0.424003 0.029437 0.000000
0.684523 0.020692 0.000000
0.662881 0.115490 0.000000
0.547940 0.058040 0.000000
0.462250 0.056360 0.000000
0.125000 -0.075000 0.000000
0.125000 -0.050000 0.000000
0.125000 -0.025000 0.000000
0.125000 0.000000 0.000000
0.859988 0.065160 0.000000
0.915777 0.102372 0.000000
1.002929 0.106495 0.000000
0.921306 0.026229 0.000000
0.876951 0.162534 0.000000
0.758185 0.023673 0.000000
0.588132 0.089072 0.000000
0.798265 0.131213 0.000000
0.923367 0.084246 0.000000
0.874630 0.098537 0.000000
0.950116 0.069063 0.000000
0.747827 0.177714 0.000000
0.661483 0.033706 0.000000
0.710191 0.055667 0.000000
0.511602 0.024951 0.000000
0.748133 0.064409 0.000000
0.700356 0.097641 0.000000
0.354130 0.127311 0.000000
0.675412 0.052778 0.000000
0.308210 0.118565 0.000000
0.150000 -0.075000 0.000000
0.150000 -0.050000 0.000000
0.150000 -0.025000 0.000000
0.150000 0.000000 0.000000
0.562302 0.122751 0.000000
1.000778 0.027114 0.000000
0.920160 0.165533 0.000000
0.535793 0.079040 0.000000
0.966712 0.043109 0.000000
0.318663 0.126677 0.000000
0.985544 0.092853 0.000000
0.665585 0.091661 0.000000
0.998914 0.073388 0.000000
0.934104 0.128777 0.000000
0.938966 0.048985 0.000000
0.853487 0.035837 0.000000
0.903242 0.051460 0.000000
0.915460 0.065226 0.000000
0.878350 0.079060 0.000000
0.787428 0.099580 0.000000
0.783443 0.024057 0.000000
0.808513 0.103087 0.000000
0.804447 0.078143 0.000000
0.600244 0.074410 0.000000
0.175000 -0.075000 0.000000
0.175000 -0.050000 0.000000
0.175000 -0.025000 0.000000
0.175000 0.000000 0.000000
0.232870 0.103061 0.000000
0.891675 0.141798 0.000000
0.966326 0.149870 0.000000
0.988628 0.125270 0.000000
0.961394 0.125986 0.000000
0.400884 0.130802 0.000000
0.943377 0.025289 0.000000
0.535915 0.137355 0.000000
0.529809 0.048734 0.000000
0.975963 0.022022 0.000000
0.816013 0.151784 0.000000
0.915565 0.128469 0.000000
0.726162 0.164718 0.000000
0.961516 0.093552 0.000000
0.973073 0.064895 0.000000
0.591031 0.053258 0.000000
0.999090 0.049812 0.000000
0.721385 0.101905 0.000000
0.581432 0.131289 0.000000
0.748791 0.135470 0.000000
0.200000 -0.075000 0.000000
0.200000 -0.050000 0.000000
0.200000 -0.025000 0.000000
0.200000 0.000000 0.000000
0.644170 0.098015 0.000000
0.339260 0.139169 0.000000
0.545409 0.098496 0.000000
0.934954 0.159857 0.000000
0.497762 0.064718 0.000000
0.681710 0.140065 0.000000
0.774448 0.124946 0.000000
0.955795 0.163958 0.000000
0.728380 0.125059 0.000000
0.374508 0.110573 0.000000
1.004845 0.156599 0.000000
0.879626 0.054808 0.000000
0.070918 0.041776 0.000000
0.654222 0.064157 0.000000
0.844403 0.109893 0.000000
0.435209 0.128771 0.000000
0.877987 0.127862 0.000000
0.628107 0.114662 0.000000
0.945884 0.105090 0.000000
0.835357 0.073650 0.000000
0.225000 -0.075000 0.000000
0.225000 -0.050000 0.000000
0.225000 -0.025000 0.000000
0.225000 0.000000 0.000000
0.576236 0.165934 0.000000
0.933394 0.779000 0.000000
0.846589 0.132406 0.000000
0.310510 0.082222 0.000000
0.330221 0.059928 0.000000
0.041350 0.073623 0.000000
0.753443 0.116943 0.000000
0.987607 0.146182 0.000000
0.846896 0.152046 0.000000
0.476964 0.095271 0.000000
0.904732 0.171535 0.000000
0.322387 0.154893 0.000000
0.490918 0.047350 0.000000
0.709664 0.075833 0.000000
0.362140 0.148483 0.000000
0.559452 0.091065 0.000000
0.700413 0.035476 0.000000
0.157712 0.129259 0.000000
0.483643 0.176063 0.000000
0.505690 0.130552 0.000000
0.250000 -0.075000 0.000000
0.250000 -0.050000 0.000000
0.250000 -0.025000 0.000000
0.250000 0.000000 0.000000
0.925834 0.257040 0.000000
0.675828 0.191352 0.000000
0.617304 0.105658 0.000000
0.593028 0.147349 0.000000
0.445306 0.356343 0.000000
0.701710 0.122190 0.000000
0.518098 0.150271 0.000000
0.494642 0.082211 0.000000
0.463060 0.035465 0.000000
0.819212 0.131209 0.000000
0.440679 0.077602 0.000000
0.131636 0.177800 0.000000
0.456105 0.145164 0.000000
0.728661 0.023550 0.000000
0.569448 0.057324 0.000000
0.483566 0.111798 0.000000
0.558418 0.030355 0.000000
0.891532 0.107503 0.000000
0.158587 0.164109 0.000000
0.863375 0.162224 0.000000
0.275000 -0.075000 0.000000
0.275000 -0.050000 0.000000
0.275000 -0.025000 0.000000
0.275000 0.000000 0.000000
0.300000 -0.075000 0.000000
0.300000 -0.050000 0.000000
0.300000 -0.025000 0.000000
0.300000 0.000000 0.000000
0.325000 -0.075000 0.000000
0.325000 -0.050000 0.000000
0.325000 -0.025000 0.000000
0.325000 0.000000 0.000000
0.350000 -0.075000 0.000000
0.350000 -0.050000 0.000000
0.350000 -0.025000 0.000000
0.350000 0.000000 0.000000
0.375000 -0.075000 0.000000
0.375000 -0.050000 0.000000
0.375000 -0.025000 0.000000
0.375000 0.000000 0.000000
0.400000 -0.075000 0.000000
0.400000 -0.050000 0.000000
0.400000 -0.025000 0.000000
0.400000 0.000000 0.000000
0.425000 -0.075000 0.000000
0.425000 -0.050000 0.000000
0.425000 -0.025000 0.000000
0.425000 0.000000 0.000000
0.450000 -0.075000 0.000000
0.450000 -0.050000 0.000000
0.450000 -0.025000 0.000000
0.450000 0.000000 0.000000
0.475000 -0.075000 0.000000
0.475000 -0.050000 0.000000
0.475000 -0.025000 0.000000
0.475000 0.000000 0.000000
0.500000 -0.075000 0.000000
0.500000 -0.050000 0.000000
0.500000 -0.025000 0.000000
0.500000 0.000000 0.000000
0.525000 -0.075000 0.000000
0.525000 -0.050000 0.000000
0.525000 -0.025000 0.000000
0.525000 0.000000 0.000000
0.550000 -0.075000 0.000000
0.550000 -0.050000 0.000000
0.550000 -0.025000 0.000000
0.550000 0.000000 0.000000
0.575000 -0.075000 0.000000
0.575000 -0.050000 0.000000
0.575000 -0.025000 0.000000
0.575000 0.000000 0.000000
0.600000 -0.075000 0.000000
0.600000 -0.050000 0.000000
0.600000 -0.025000 0.000000
0.600000 0.000000 0.000000
0.625000 -0.075000 0.000000
0.625000 -0.050000 0.000000
0.625000 -0.025000 0.000000
0.625000 0.000000 0.000000
0.650000 -0.075000 0.000000
0.650000 -0.050000 0.000000
0.650000 -0.025000 0.000000
0.650000 0.000000 0.000000
0.675000 -0.075000 0.000000
0.675000 -0.050000 0.000000
0.675000 -0.025000 0.000000
0.675000 0.000000 0.000000
0.700000 -0.075000 0.000000
0.700000 -0.050000 0.000000
0.700000 -0.025000 0.000000
0.700000 0.000000 0.000000
0.725000 -0.075000 0.000000
0.725000 -0.050000 0.000000
0.725000 -0.025000 0.000000
0.725000 0.000000 0.000000
0.750000 -0.075000 0.000000
0.750000 -0.050000 0.000000
0.750000 -0.025000 0.000000
0.750000 0.000000 0.000000
0.775000 -0.075000 0.000000
0.775000 -0.050000 0.000000
0.775000 -0.025000 0.000000
0.775000 0.000000 0.000000
0.800000 -0.075000 0.000000
0.800000 -0.050000 0.000000
0.800000 -0.025000 0.000000
0.800000 0.000000 0.000000
0.825000 -0.075000 0.000000
0.825000 -0.050000 0.000000
0.825000 -0.025000 0.000000
0.825000 0.000000 0.000000
0.850000 -0.075000 0.000000
0.850000 -0.050000 0.000000
0.850000 -0.025000 0.000000
0.850000 0.000000 0.000000
0.875000 -0.075000 0.000000
0.875000 -0.050000 0.000000
0.875000 -0.025000 0.000000
0.875000 0.000000 0.000000
0.900000 -0.075000 0.000000
0.900000 -0.050000 0.000000
0.900000 -0.025000 0.000000
0.900000 0.000000 0.000000
0.925000 -0.075000 0.000000
0.925000 -0.050000 0.000000
0.925000 -0.025000 0.000000
0.925000 0.000000 0.000000
0.950000 -0.075000 0.000000
0.950000 -0.050000 0.000000
0.950000 -0.025000 0.000000
0.950000 0.000000 0.000000
0.975000 -0.075000 0.000000
0.975000 -0.050000 0.000000
0.975000 -0.025000 0.000000
0.975000 0.000000 0.000000
1.000000 -0.075000 0.000000
1.000000 -0.050000 0.000000
1.000000 -0.025000 0.000000
1.000000 0.000000 0.000000
1.025000 -0.075000 0.000000
1.025000 -0.050000 0.000000
1.025000 -0.025000 0.000000
1.025000 0.000000 0.000000
1.025000 0.025000 0.000000
1.025000 0.050000 0.000000
1.025000 0.075000 0.000000
1.025000 0.100000 0.000000
1.025000 0.125000 0.000000
1.025000 0.150000 0.000000
1.025000 0.175000 0.000000
1.025000 0.200000 0.000000
1.025000 0.225000 0.000000
1.025000 0.250000 0.000000
1.025000 0.275000 0.000000
1.025000 0.300000 0.000000
1.025000 0.325000 0.000000
1.025000 0.350000 0.000000
1.025000 0.375000 0.000000
1.025000 0.400000 0.000000
1.025000 0.425000 0.000000
1.025000 0.450000 0.000000
1.025000 0.475000 0.000000
1.025000 0.500000 0.000000
1.025000 0.525000 0.000000
1.025000 0.550000 0.000000
1.025000 0.575000 0.000000
1.025000 0.600000 0.000000
1.050000 -0.075000 0.000000
1.050000 -0.050000 0.000000
1.050000 -0.025000 0.000000
1.050000 0.000000 0.000000
1.050000 0.025000 0.000000
1.050000 0.050000 0.000000
1.050000 0.075000 0.000000
1.050000 0.100000 0.000000
1.050000 0.125000 0.000000
1.050000 0.150000 0.000000
1.050000 0.175000 0.000000
1.050000 0.200000 0.000000
1.050000 0.225000 0.000000
1.050000 0.250000 0.000000
1.050000 0.275000 0.000000
1.050000 0.300000 0.000000
1.050000 0.325000 0.000000
1.050000 0.350000 0.000000
1.050000 0.375000 0.000000
1.050000 0.400000 0.000000
1.050000 0.425000 0.000000
1.050000 0.450000 0.000000
1.050000 0.475000 0.000000
1.050000 0.500000 0.000000
1.050000 0.525000 0.000000
1.050000 0.550000 0.000000
1.050000 0.575000 0.000000
1.050000 0.600000 0.000000
1.075000 -0.075000 0.000000
1.075000 -0.050000 0.000000
1.075000 -0.025000 0.000000
1.075000 0.000000 0.000000
1.075000 0.025000 0.000000
1.075000 0.050000 0.000000
1.075000 0.075000 0.000000
1.075000 0.100000 0.000000
1.075000 0.125000 0.000000
1.075000 0.150000 0.000000
1.075000 0.175000 0.000000
1.075000 0.200000 0.000000
1.075000 0.225000 0.000000
1.075000 0.250000 0.000000
1.075000 0.275000 0.000000
1.075000 0.300000 0.000000
1.075000 0.325000 0.000000
1.075000 0.350000 0.000000
1.075000 0.375000 0.000000
1.075000 0.400000 0.000000
1.075000 0.425000 0.000000
1.075000 0.450000 0.000000
1.075000 0.475000 0.000000
1.075000 0.500000 0.000000
1.075000 0.525000 0.000000
1.075000 0.550000 0.000000
1.075000 0.575000 0.000000
1.075000 0.600000 0.000000
1.100000 -0.075000 0.000000
1.100000 -0.050000 0.000000
1.100000 -0.025000 0.000000
1.100000 0.000000 0.000000
1.100000 0.025000 0.000000
1.100000 0.050000 0.000000
1.100000 0.075000 0.000000
1.100000 0.100000 0.000000
1.100000 0.125000 0.000000
1.100000 0.150000 0.000000
1.100000 0.175000 0.000000
1.100000 0.200000 0.000000
1.100000 0.225000 0.000000
1.100000 0.250000 0.000000
1.100000 0.275000 0.000000
1.100000 0.300000 0.000000
1.100000 0.325000 0.000000
1.100000 0.350000 0.000000
1.100000 0.375000 0.000000
1.100000 0.400000 0.000000
1.100000 0.425000 0.000000
1.100000 0.450000 0.000000
1.100000 0.475000 0.000000
1.100000 0.500000 0.000000
1.100000 0.525000 0.000000
1.100000 0.550000 0.000000
1.100000 0.575000 0.000000
1.100000 0.600000 0.000000
</DataArray>
</Points>
<PointData>
<DataArray NumberOfComponents='1' type='Int32' Name='ParticleType' format='ascii'>
3
3
3
3
3
3
3
3
3
3
3
3
3
3
3
3
3
3
3
3
3
3
3
3
3
3
2
2
3
3
3
3
3
3
3
3
3
3
3
3
3
3
3
3
3
3
3
3
3
3
3
3
3
3
2
2
3
3
2
2
2
2
2
2
2
2
2
2
2
2
2
2
2
2
2
2
2
2
2
2
2
2
2
2
3
3
2
2
2
2
2
2
2
2
2
2
2
2
2
2
2
2
2
2
2
2
2
2
2
2
2
2
3
3
2
2
0
0
0
0
0
0
0
0
0
0
0
0
0
0
0
0
0
0
0
0
3
3
2
2
0
0
0
0
0
0
0
0
0
0
0
0
0
0
0
0
0
0
0
0
3
3
2
2
0
0
0
0
0
0
0
0
0
0
0
0
0
0
0
0
0
0
0
0
3
3
2
2
0
0
0
0
0
0
0
0
0
0
0
0
0
0
0
0
0
0
0
0
3
3
2
2
0
0
0
0
0
0
0
0
0
0
0
0
0
0
0
0
0
0
0
0
3
3
2
2
0
0
0
0
0
0
0
0
0
0
0
0
0
0
0
0
0
0
0
0
3
3
2
2
0
0
0
0
0
0
0
0
0
0
0
0
0
0
0
0
0
0
0
0
3
3
2
2
0
0
0
0
0
0
0
0
0
0
0
0
0
0
0
0
0
0
0
0
3
3
2
2
0
0
0
0
0
0
0
0
0
0
0
0
0
0
0
0
0
0
0
0
3
3
2
2
0
0
0
0
0
0
0
0
0
0
0
0
0
0
0
0
0
0
0
0
3
3
2
2
3
3
2
2
3
3
2
2
3
3
2
2
3
3
2
2
3
3
2
2
3
3
2
2
3
3
2
2
3
3
2
2
3
3
2
2
3
3
2
2
3
3
2
2
3
3
2
2
3
3
2
2
3
3
2
2
3
3
2
2
3
3
2
2
3
3
2
2
3
3
2
2
3
3
2
2
3
3
2
2
3
3
2
2
3
3
2
2
3
3
2
2
3
3
2
2
3
3
2
2
3
3
2
2
3
3
2
2
3
3
2
2
3
3
2
2
3
3
2
2
2
2
2
2
2
2
2
2
2
2
2
2
2
2
2
2
2
2
2
2
2
2
2
2
3
3
2
2
2
2
2
2
2
2
2
2
2
2
2
2
2
2
2
2
2
2
2
2
2
2
2
2
3
3
3
3
3
3
3
3
3
3
3
3
3
3
3
3
3
3
3
3
3
3
3
3
3
3
2
2
3
3
3
3
3
3
3
3
3
3
3
3
3
3
3
3
3
3
3
3
3
3
3
3
3
3
2
2
</DataArray>
<DataArray NumberOfComponents='1' type='Float32' Name='Velocity' format='ascii'>
0.000000
0.000000
0.000000
0.000000
0.000000
0.000000
0.000000
0.000000
0.000000
0.000000
0.000000
0.000000
0.000000
0.000000
0.000000
0.000000
0.000000
0.000000
0.000000
0.000000
0.000000
0.000000
0.000000
0.000000
0.000000
0.000000
0.000000
0.000000
0.000000
0.000000
0.000000
0.000000
0.000000
0.000000
0.000000
0.000000
0.000000
0.000000
0.000000
0.000000
0.000000
0.000000
0.000000
0.000000
0.000000
0.000000
0.000000
0.000000
0.000000
0.000000
0.000000
0.000000
0.000000
0.000000
0.000000
0.000000
0.000000
0.000000
0.000000
0.000000
0.000000
0.000000
0.000000
0.000000
0.000000
0.000000
0.000000
0.000000
0.000000
0.000000
0.000000
0.000000
0.000000
0.000000
0.000000
0.000000
0.000000
0.000000
0.000000
0.000000
0.000000
0.000000
0.000000
0.000000
0.000000
0.000000
0.000000
0.000000
0.000000
0.000000
0.000000
0.000000
0.000000
0.000000
0.000000
0.000000
0.000000
0.000000
0.000000
0.000000
0.000000
0.000000
0.000000
0.000000
0.000000
0.000000
0.000000
0.000000
0.000000
0.000000
0.000000
0.000000
0.000000
0.000000
0.000000
0.000000
0.614506
0.318008
0.603910
0.060293
0.538850
0.671982
0.475533
0.439056
0.120744
0.335461
0.511640
0.303192
0.306788
0.440256
1.251816
0.846637
0.456246
0.921334
0.589735
0.167608
0.000000
0.000000
0.000000
0.000000
0.520979
1.695039
1.239970
2.354024
2.031242
0.444046
1.233931
0.577011
0.752486
0.604630
1.457915
0.286846
0.626323
1.007677
0.669370
1.556812
0.216486
0.060214
0.188498
0.097292
0.000000
0.000000
0.000000
0.000000
0.260580
1.657888
0.444234
0.331782
0.668564
0.426134
0.188619
2.027309
0.824473
0.259128
0.617334
1.327371
0.807143
0.571858
0.310522
1.638865
0.634118
2.065079
1.374685
0.501516
0.000000
0.000000
0.000000
0.000000
0.716768
0.451819
0.975567
0.179961
0.321863
0.145783
0.381800
2.207796
0.379821
0.341370
0.597007
0.816203
0.668825
0.552808
0.427504
0.565749
0.431948
1.074875
0.813575
0.998047
0.000000
0.000000
0.000000
0.000000
0.523050
0.305048
0.134937
0.303366
0.791718
0.083040
0.574152
0.760079
0.037698
0.347853
0.135106
0.568686
0.502291
0.615829
0.454080
0.617002
0.939657
2.010461
0.310791
1.677691
0.000000
0.000000
0.000000
0.000000
1.572212
0.318033
0.920020
1.098897
0.372840
1.613732
0.248995
0.914209
0.358396
0.423050
0.431944
0.351603
0.534315
0.278566
0.309299
0.431666
0.587190
0.631186
0.596081
0.899310
0.000000
0.000000
0.000000
0.000000
1.842683
0.839357
0.371589
0.374289
0.476789
1.274145
0.257791
2.386909
0.466596
0.261640
0.480184
0.278669
0.694483
0.125156
0.219359
0.407851
0.290265
0.822545
1.940939
0.795269
0.000000
0.000000
0.000000
0.000000
1.090309
1.679900
1.064518
0.626591
0.624689
1.204841
0.769522
1.229588
1.051602
1.256700
0.519997
0.893723
0.345153
1.055111
0.402094
1.590336
0.602989
1.087345
0.390446
0.499276
0.000000
0.000000
0.000000
0.000000
1.358266
3.199462
0.984830
0.569508
0.127351
2.590542
1.111499
0.498513
0.763059
1.005915
0.670727
1.280142
0.465433
0.763818
1.715684
1.010642
0.335795
2.861414
0.859133
1.372385
0.000000
0.000000
0.000000
0.000000
3.933001
3.918842
1.164366
1.408386
3.832460
1.118615
1.191026
0.947619
0.516245
1.010128
1.058279
2.666796
1.874222
0.434149
0.653965
1.089335
0.438247
0.449105
2.403866
0.989040
0.000000
0.000000
0.000000
0.000000
0.000000
0.000000
0.000000
0.000000
0.000000
0.000000
0.000000
0.000000
0.000000
0.000000
0.000000
0.000000
0.000000
0.000000
0.000000
0.000000
0.000000
0.000000
0.000000
0.000000
0.000000
0.000000
0.000000
0.000000
0.000000
0.000000
0.000000
0.000000
0.000000
0.000000
0.000000
0.000000
0.000000
0.000000
0.000000
0.000000
0.000000
0.000000
0.000000
0.000000
0.000000
0.000000
0.000000
0.000000
0.000000
0.000000
0.000000
0.000000
0.000000
0.000000
0.000000
0.000000
0.000000
0.000000
0.000000
0.000000
0.000000
0.000000
0.000000
0.000000
0.000000
0.000000
0.000000
0.000000
0.000000
0.000000
0.000000
0.000000
0.000000
0.000000
0.000000
0.000000
0.000000
0.000000
0.000000
0.000000
0.000000
0.000000
0.000000
0.000000
0.000000
0.000000
0.000000
0.000000
0.000000
0.000000
0.000000
0.000000
0.000000
0.000000
0.000000
0.000000
0.000000
0.000000
0.000000
0.000000
0.000000
0.000000
0.000000
0.000000
0.000000
0.000000
0.000000
0.000000
0.000000
0.000000
0.000000
0.000000
0.000000
0.000000
0.000000
0.000000
0.000000
0.000000
0.000000
0.000000
0.000000
0.000000
0.000000
0.000000
0.000000
0.000000
0.000000
0.000000
0.000000
0.000000
0.000000
0.000000
0.000000
0.000000
0.000000
0.000000
0.000000
0.000000
0.000000
0.000000
0.000000
0.000000
0.000000
0.000000
0.000000
0.000000
0.000000
0.000000
0.000000
0.000000
0.000000
0.000000
0.000000
0.000000
0.000000
0.000000
0.000000
0.000000
0.000000
0.000000
0.000000
0.000000
0.000000
0.000000
0.000000
0.000000
0.000000
0.000000
0.000000
0.000000
0.000000
0.000000
0.000000
0.000000
0.000000
0.000000
0.000000
0.000000
0.000000
0.000000
0.000000
0.000000
0.000000
0.000000
0.000000
0.000000
0.000000
0.000000
0.000000
0.000000
0.000000
0.000000
0.000000
0.000000
0.000000
0.000000
0.000000
0.000000
0.000000
0.000000
0.000000
0.000000
0.000000
0.000000
0.000000
0.000000
0.000000
0.000000
0.000000
0.000000
0.000000
0.000000
0.000000
0.000000
0.000000
0.000000
0.000000
0.000000
0.000000
0.000000
0.000000
0.000000
0.000000
0.000000
0.000000
0.000000
0.000000
0.000000
0.000000
0.000000
0.000000
0.000000
</DataArray>
<DataArray NumberOfComponents='1' type='Float32' Name='pressure' format='ascii'>
0.000000
0.000000
0.000000
0.000000
0.000000
0.000000
0.000000
0.000000
0.000000
0.000000
0.000000
0.000000
0.000000
0.000000
0.000000
0.000000
0.000000
0.000000
0.000000
0.000000
0.000000
0.000000
0.000000
0.000000
0.000000
0.000000
0.000000
0.000000
0.000000
0.000000
0.000000
0.000000
0.000000
0.000000
0.000000
0.000000
0.000000
0.000000
0.000000
0.000000
0.000000
0.000000
0.000000
0.000000
0.000000
0.000000
0.000000
0.000000
0.000000
0.000000
0.000000
0.000000
0.000000
0.000000
0.000000
0.000000
0.000000
0.000000
1464.116455
1158.406738
350.506409
1029.998535
5146.202148
3271.230469
0.000000
0.000000
0.000000
0.000000
0.000000
0.000000
0.000000
0.000000
0.000000
0.000000
0.000000
0.000000
0.000000
0.000000
0.000000
0.000000
0.000000
0.000000
0.000000
0.000000
0.000000
0.000000
1624.767700
1568.967896
0.000000
0.000000
6740.714844
0.000000
0.000000
0.000000
0.000000
0.000000
0.000000
0.000000
0.000000
0.000000
0.000000
0.000000
0.000000
0.000000
0.000000
0.000000
0.000000
0.000000
0.000000
0.000000
0.000000
0.000000
0.000000
0.000000
2992.248779
3332.405029
0.000000
0.000000
0.000000
1165.299683
2597.857666
5772.346680
1526.711792
920.191711
0.000000
0.000000
0.000000
0.000000
0.000000
0.000000
1474.049438
0.000000
1464.223633
0.000000
0.000000
1967.730835
0.000000
0.000000
648.702576
0.000000
0.000000
0.000000
0.000000
0.000000
0.000000
0.000000
0.000000
1224.616699
2529.735107
0.000000
101.120216
0.000000
0.000000
0.000000
0.000000
0.000000
285.500458
2583.558350
0.000000
0.000000
0.000000
0.000000
0.000000
0.000000
0.000000
0.000000
3692.406250
2388.731689
470.425995
0.000000
1108.548950
0.000000
0.000000
1387.665405
960.847839
0.000000
823.590515
0.000000
1003.074890
0.000000
2854.312744
0.000000
1460.169434
0.000000
0.000000
0.000000
52.680767
299.860474
877.198914
1651.924438
314.841705
1389.141602
791.138611
1290.746826
1728.066772
0.000000
535.831238
1598.270386
1153.045044
0.000000
1501.895874
16.479971
469.946503
1823.526611
1342.035278
0.000000
1909.625000
2108.328369
0.000000
0.000000
418.905975
559.342896
637.630981
1038.833740
786.903992
511.558228
0.000000
1003.210449
0.000000
0.000000
903.770996
375.376495
646.620483
0.000000
731.939758
802.984680
2941.831055
1064.241333
0.000000
0.000000
0.000000
0.000000
0.000000
0.000000
910.456970
627.847229
0.000000
2533.471436
0.000000
0.000000
1594.112671
0.000000
1706.488159
0.000000
1009.688416
1358.799438
1142.487549
1578.364014
682.153259
1438.197632
0.000000
279.618286
908.124878
215.023285
446.826843
123.912544
0.000000
0.000000
410.553009
0.000000
0.000000
245.270401
754.366882
900.365967
0.000000
0.000000
1417.559082
0.000000
0.000000
1368.748657
0.000000
399.942871
0.000000
1361.859009
1453.522461
873.790344
1109.194458
339.713013
0.000000
0.000000
0.000000
0.000000
1307.638428
604.690857
1212.962646
0.000000
0.000000
0.000000
1032.727905
0.000000
0.000000
0.000000
0.000000
0.000000
0.000000
0.000000
0.000000
0.000000
0.000000
0.000000
57.079304
0.000000
754.055847
0.000000
0.000000
0.000000
1031.117188
769.289734
0.000000
0.000000
1149.074829
0.000000
0.000000
0.000000
2234.428223
379.843933
0.000000
416.946411
0.000000
0.000000
1378.630249
0.000000
0.000000
0.000000
259.634888
0.000000
0.000000
0.000000
0.000000
0.000000
0.000000
0.000000
0.000000
0.000000
0.000000
0.000000
0.000000
0.000000
0.000000
0.000000
1877.541992
0.000000
143.336914
0.000000
0.000000
260.053650
546.960693
0.000000
1091.624756
0.000000
0.000000
0.000000
0.000000
0.000000
533.603149
0.000000
0.000000
0.000000
1784.131104
0.000000
0.000000
0.000000
3530.917725
1714.520874
0.000000
0.000000
4161.750488
3709.856934
0.000000
0.000000
2801.532715
1806.239868
0.000000
0.000000
2783.785889
2639.397949
0.000000
0.000000
770.415588
1269.152710
0.000000
0.000000
1321.926636
82.796623
0.000000
0.000000
1985.000854
435.946167
0.000000
0.000000
2942.265137
3898.332520
0.000000
0.000000
3156.598877
4976.679199
0.000000
0.000000
1626.670776
1004.566589
0.000000
0.000000
1970.180908
2066.699707
0.000000
0.000000
0.000000
0.000000
0.000000
0.000000
0.000000
0.000000
0.000000
0.000000
0.000000
0.000000
0.000000
0.000000
1775.455688
1088.104980
0.000000
0.000000
1410.007202
0.000000
0.000000
0.000000
1549.750000
76.738602
0.000000
0.000000
1802.416992
2089.748535
0.000000
0.000000
2226.616699
2624.692139
0.000000
0.000000
1594.631958
1838.799072
0.000000
0.000000
2735.856689
2128.929443
0.000000
0.000000
1937.077271
0.000000
0.000000
0.000000
1514.770020
1327.242188
0.000000
0.000000
1632.822998
2277.010010
0.000000
0.000000
1090.669800
1060.381592
0.000000
0.000000
1551.905396
1279.602539
0.000000
0.000000
3047.983887
3703.019043
0.000000
0.000000
1278.438843
1546.364502
0.000000
0.000000
1665.849487
1226.671509
2246.664551
1072.966919
166.085831
1716.554321
0.000000
949.053955
0.000000
0.000000
0.000000
0.000000
0.000000
0.000000
0.000000
0.000000
0.000000
0.000000
0.000000
0.000000
0.000000
0.000000
0.000000
0.000000
0.000000
0.000000
0.000000
0.000000
1587.779785
1596.166992
1735.375977
954.550415
732.396484
1954.262329
955.022827
2479.894775
839.975098
0.000000
0.000000
0.000000
0.000000
0.000000
0.000000
0.000000
0.000000
0.000000
0.000000
0.000000
0.000000
0.000000
0.000000
0.000000
0.000000
0.000000
0.000000
0.000000
0.000000
0.000000
0.000000
0.000000
0.000000
0.000000
0.000000
0.000000
0.000000
0.000000
0.000000
0.000000
0.000000
0.000000
0.000000
0.000000
0.000000
0.000000
0.000000
0.000000
0.000000
0.000000
0.000000
0.000000
0.000000
0.000000
0.000000
0.000000
0.000000
0.000000
0.000000
0.000000
0.000000
0.000000
0.000000
0.000000
0.000000
0.000000
0.000000
0.000000
0.000000
0.000000
0.000000
0.000000
0.000000
0.000000
0.000000
0.000000
0.000000
0.000000
0.000000
0.000000
0.000000
0.000000
</DataArray>
</PointData>
<Cells>
<DataArray type='Int32' Name='connectivity' format='ascii'>
0
1
2
3
4
5
6
7
8
9
10
11
12
13
14
15
16
17
18
19
20
21
22
23
24
25
26
27
28
29
30
31
32
33
34
35
36
37
38
39
40
41
42
43
44
45
46
47
48
49
50
51
52
53
54
55
56
57
58
59
60
61
62
63
64
65
66
67
68
69
70
71
72
73
74
75
76
77
78
79
80
81
82
83
84
85
86
87
88
89
90
91
92
93
94
95
96
97
98
99
100
101
102
103
104
105
106
107
108
109
110
111
112
113
114
115
116
117
118
119
120
121
122
123
124
125
126
127
128
129
130
131
132
133
134
135
136
137
138
139
140
141
142
143
144
145
146
147
148
149
150
151
152
153
154
155
156
157
158
159
160
161
162
163
164
165
166
167
168
169
170
171
172
173
174
175
176
177
178
179
180
181
182
183
184
185
186
187
188
189
190
191
192
193
194
195
196
197
198
199
200
201
202
203
204
205
206
207
208
209
210
211
212
213
214
215
216
217
218
219
220
221
222
223
224
225
226
227
228
229
230
231
232
233
234
235
236
237
238
239
240
241
242
243
244
245
246
247
248
249
250
251
252
253
254
255
256
257
258
259
260
261
262
263
264
265
266
267
268
269
270
271
272
273
274
275
276
277
278
279
280
281
282
283
284
285
286
287
288
289
290
291
292
293
294
295
296
297
298
299
300
301
302
303
304
305
306
307
308
309
310
311
312
313
314
315
316
317