<?xml version='1.0' encoding='UTF-8'?>
<VTKFile xmlns='VTK' byte_order='LittleEndian' version='0.1' type='UnstructuredGrid'>
<UnstructuredGrid>
<Piece NumberOfCells='584' NumberOfPoints='584'>
<Points>
<DataArray NumberOfComponents='3' type='Float32' Name='Position' format='ascii'>
-0.075000 -0.075000 0.000000
-0.075000 -0.050000 0.000000
-0.075000 -0.025000 0.000000
-0.075000 0.000000 0.000000
-0.075000 0.025000 0.000000
-0.075000 0.050000 0.000000
-0.075000 0.075000 0.000000
-0.075000 0.100000 0.000000
-0.075000 0.125000 0.000000
-0.075000 0.150000 0.000000
-0.075000 0.175000 0.000000
-0.075000 0.200000 0.000000
-0.075000 0.225000 0.000000
-0.075000 0.250000 0.000000
-0.075000 0.275000 0.000000
-0.075000 0.300000 0.000000
-0.075000 0.325000 0.000000
-0.075000 0.350000 0.000000
-0.075000 0.375000 0.000000
-0.075000 0.400000 0.000000
-0.075000 0.425000 0.000000
-0.075000 0.450000 0.000000
-0.075000 0.475000 0.000000
-0.075000 0.500000 0.000000
-0.075000 0.525000 0.000000
-0.075000 0.550000 0.000000
-0.075000 0.575000 0.000000
-0.075000 0.600000 0.000000
-0.050000 -0.075000 0.000000
-0.050000 -0.050000 0.000000
-0.050000 -0.025000 0.000000
-0.050000 0.000000 0.000000
-0.050000 0.025000 0.000000
-0.050000 0.050000 0.000000
-0.050000 0.075000 0.000000
-0.050000 0.100000 0.000000
-0.050000 0.125000 0.000000
-0.050000 0.150000 0.000000
-0.050000 0.175000 0.000000
-0.050000 0.200000 0.000000
-0.050000 0.225000 0.000000
-0.050000 0.250000 0.000000
-0.050000 0.275000 0.000000
-0.050000 0.300000 0.000000
-0.050000 0.325000 0.000000
-0.050000 0.350000 0.000000
-0.050000 0.375000 0.000000
-0.050000 0.400000 0.000000
-0.050000 0.425000 0.000000
-0.050000 0.450000 0.000000
-0.050000 0.475000 0.000000
-0.050000 0.500000 0.000000
-0.050000 0.525000 0.000000
-0.050000 0.550000 0.000000
-0.050000 0.575000 0.000000
-0.050000 0.600000 0.000000
-0.025000 -0.075000 0.000000
-0.025000 -0.050000 0.000000
-0.025000 -0.025000 0.000000
-0.025000 0.000000 0.000000
-0.025000 0.025000 0.000000
-0.025000 0.050000 0.000000
-0.025000 0.075000 0.000000
-0.025000 0.100000 0.000000
-0.025000 0.125000 0.000000
-0.025000 0.150000 0.000000
-0.025000 0.175000 0.000000
-0.025000 0.200000 0.000000
-0.025000 0.225000 0.000000
-0.025000 0.250000 0.000000
-0.025000 0.275000 0.000000
-0.025000 0.300000 0.000000
-0.025000 0.325000 0.000000
-0.025000 0.350000 0.000000
-0.025000 0.375000 0.000000
-0.025000 0.400000 0.000000
-0.025000 0.425000 0.000000
-0.025000 0.450000 0.000000
-0.025000 0.475000 0.000000
-0.025000 0.500000 0.000000
-0.025000 0.525000 0.000000
-0.025000 0.550000 0.000000
-0.025000 0.575000 0.000000
-0.025000 0.600000 0.000000
0.000000 -0.075000 0.000000
0.000000 -0.050000 0.000000
0.000000 -0.025000 0.000000
0.000000 0.000000 0.000000
0.000000 0.025000 0.000000
0.000000 0.050000 0.000000
0.000000 0.075000 0.000000
0.000000 0.100000 0.000000
0.000000 0.125000 0.000000
0.000000 0.150000 0.000000
0.000000 0.175000 0.000000
0.000000 0.200000 0.000000
0.000000 0.225000 0.000000
0.000000 0.250000 0.000000
0.000000 0.275000 0.000000
0.000000 0.300000 0.000000
0.000000 0.325000 0.000000
0.000000 0.350000 0.000000
0.000000 0.375000 0.000000
0.000000 0.400000 0.000000
0.000000 0.425000 0.000000
0.000000 0.450000 0.000000
0.000000 0.475000 0.000000
0.000000 0.500000 0.000000
0.000000 0.525000 0.000000
0.000000 0.550000 0.000000
0.000000 0.575000 0.000000
0.000000 0.600000 0.000000
0.025000 -0.075000 0.000000
0.025000 -0.050000 0.000000
0.025000 -0.025000 0.000000
0.025000 0.000000 0.000000
0.025050 0.024732 0.000000
0.025098 0.049283 0.000000
0.025064 0.073864 0.000000
0.025074 0.098500 0.000000
0.025029 0.123107 0.000000
0.025040 0.147817 0.000000
0.025009 0.172485 0.000000
0.024999 0.197245 0.000000
0.024982 0.221999 0.000000
0.024969 0.246799 0.000000
0.024950 0.271620 0.000000
0.024937 0.296467 0.000000
0.024921 0.321324 0.000000
0.024898 0.346232 0.000000
0.024916 0.371097 0.000000
0.024936 0.395950 0.000000
0.024867 0.420919 0.000000
0.024817 0.446036 0.000000
0.024952 0.470812 0.000000
0.024997 0.495455 0.000000
0.050000 -0.075000 0.000000
0.050000 -0.050000 0.000000
0.050000 -0.025000 0.000000
0.050000 0.000000 0.000000
0.050807 0.024869 0.000000
0.050681 0.049179 0.000000
0.050725 0.073892 0.000000
0.050639 0.098438 0.000000
0.050586 0.123066 0.000000
0.050531 0.147767 0.000000
0.050446 0.172430 0.000000
0.050388 0.197202 0.000000
0.050316 0.221949 0.000000
0.050258 0.246756 0.000000
0.050203 0.271581 0.000000
0.050156 0.296435 0.000000
0.050112 0.321285 0.000000
0.050064 0.346192 0.000000
0.050024 0.371118 0.000000
0.050051 0.395972 0.000000
0.050047 0.420881 0.000000
0.050016 0.446010 0.000000
0.049973 0.470826 0.000000
0.049993 0.495472 0.000000
0.075000 -0.075000 0.000000
0.075000 -0.050000 0.000000
0.075000 -0.025000 0.000000
0.075000 0.000000 0.000000
0.076099 0.024824 0.000000
0.076062 0.049192 0.000000
0.076002 0.073836 0.000000
0.075875 0.098342 0.000000
0.075795 0.123021 0.000000
0.075687 0.147679 0.000000
0.075591 0.172354 0.000000
0.075507 0.197130 0.000000
0.075422 0.221880 0.000000
0.075360 0.246701 0.000000
0.075293 0.271528 0.000000
0.075240 0.296388 0.000000
0.075183 0.321245 0.000000
0.075141 0.346148 0.000000
0.075097 0.371093 0.000000
0.075057 0.395971 0.000000
0.075035 0.420865 0.000000
0.075012 0.445979 0.000000
0.074993 0.470824 0.000000
0.074998 0.495491 0.000000
0.100000 -0.075000 0.000000
0.100000 -0.050000 0.000000
0.100000 -0.025000 0.000000
0.100000 0.000000 0.000000
0.101684 0.024804 0.000000
0.101548 0.049093 0.000000
0.101456 0.073722 0.000000
0.101379 0.098235 0.000000
0.101253 0.122887 0.000000
0.101118 0.147553 0.000000
0.100997 0.172249 0.000000
0.100865 0.197025 0.000000
0.100751 0.221791 0.000000
0.100629 0.246617 0.000000
0.100524 0.271450 0.000000
0.100416 0.296314 0.000000
0.100322 0.321178 0.000000
0.100260 0.346105 0.000000
0.100214 0.371037 0.000000
0.100136 0.395915 0.000000
0.100092 0.420839 0.000000
0.100067 0.445954 0.000000
0.100032 0.470803 0.000000
0.100005 0.495482 0.000000
0.125000 -0.075000 0.000000
0.125000 -0.050000 0.000000
0.125000 -0.025000 0.000000
0.125000 0.000000 0.000000
0.127372 0.024751 0.000000
0.127252 0.048971 0.000000
0.127085 0.073644 0.000000
0.126840 0.098107 0.000000
0.126637 0.122739 0.000000
0.126415 0.147403 0.000000
0.126207 0.172088 0.000000
0.126018 0.196874 0.000000
0.125843 0.221642 0.000000
0.125693 0.246477 0.000000
0.125562 0.271324 0.000000
0.125458 0.296196 0.000000
0.125381 0.321101 0.000000
0.125332 0.346053 0.000000
0.125258 0.370963 0.000000
0.125169 0.395845 0.000000
0.125122 0.420807 0.000000
0.125088 0.445918 0.000000
0.125037 0.470760 0.000000
0.125005 0.495465 0.000000
0.150000 -0.075000 0.000000
0.150000 -0.050000 0.000000
0.150000 -0.025000 0.000000
0.150000 0.000000 0.000000
0.152641 0.024811 0.000000
0.152393 0.048816 0.000000
0.152311 0.073354 0.000000
0.152046 0.097792 0.000000
0.151825 0.122486 0.000000
0.151608 0.147134 0.000000
0.151396 0.171868 0.000000
0.151211 0.196675 0.000000
0.151043 0.221477 0.000000
0.150903 0.246344 0.000000
0.150774 0.271217 0.000000
0.150669 0.296124 0.000000
0.150566 0.321043 0.000000
0.150455 0.345974 0.000000
0.150313 0.370855 0.000000
0.150217 0.395777 0.000000
0.150173 0.420770 0.000000
0.150119 0.445861 0.000000
0.150031 0.470710 0.000000
0.150002 0.495451 0.000000
0.175000 -0.075000 0.000000
0.175000 -0.050000 0.000000
0.175000 -0.025000 0.000000
0.175000 0.000000 0.000000
0.179251 0.024525 0.000000
0.178637 0.048624 0.000000
0.178290 0.073279 0.000000
0.177888 0.097547 0.000000
0.177499 0.122277 0.000000
0.177133 0.146929 0.000000
0.176828 0.171660 0.000000
0.176537 0.196491 0.000000
0.176298 0.221307 0.000000
0.176075 0.246186 0.000000
0.175892 0.271072 0.000000
0.175714 0.295976 0.000000
0.175564 0.320895 0.000000
0.175422 0.345811 0.000000
0.175314 0.370731 0.000000
0.175255 0.395718 0.000000
0.175213 0.420728 0.000000
0.175159 0.445764 0.000000
0.175029 0.470630 0.000000
0.175000 0.495446 0.000000
0.200000 -0.075000 0.000000
0.200000 -0.050000 0.000000
0.200000 -0.025000 0.000000
0.200000 0.000000 0.000000
0.203832 0.024741 0.000000
0.203804 0.047978 0.000000
0.203266 0.072659 0.000000
0.202846 0.097011 0.000000
0.202439 0.121752 0.000000
0.202056 0.146491 0.000000
0.201751 0.171297 0.000000
0.201473 0.196170 0.000000
0.201242 0.221041 0.000000
0.201046 0.245962 0.000000
0.200874 0.270882 0.000000
0.200733 0.295822 0.000000
0.200617 0.320776 0.000000
0.200533 0.345732 0.000000
0.200485 0.370689 0.000000
0.200431 0.395668 0.000000
0.200317 0.420669 0.000000
0.200179 0.445645 0.000000
0.200028 0.470536 0.000000
0.200000 0.495444 0.000000
0.225000 -0.075000 0.000000
0.225000 -0.050000 0.000000
0.225000 -0.025000 0.000000
0.225000 0.000000 0.000000
0.232329 0.024418 0.000000
0.230691 0.047980 0.000000
0.229677 0.072231 0.000000
0.228870 0.096694 0.000000
0.228237 0.121426 0.000000
0.227705 0.146214 0.000000
0.227279 0.171050 0.000000
0.226911 0.195955 0.000000
0.226608 0.220859 0.000000
0.226347 0.245794 0.000000
0.226119 0.270735 0.000000
0.225926 0.295693 0.000000
0.225751 0.320660 0.000000
0.225597 0.345642 0.000000
0.225461 0.370612 0.000000
0.225343 0.395552 0.000000
0.225219 0.420499 0.000000
0.225097 0.445476 0.000000
0.225013 0.470456 0.000000
0.225000 0.495443 0.000000
0.250000 -0.075000 0.000000
0.250000 -0.050000 0.000000
0.250000 -0.025000 0.000000
0.250000 0.000000 0.000000
0.257186 0.021438 0.000000
0.255366 0.045965 0.000000
0.254086 0.070781 0.000000
0.253195 0.095677 0.000000
0.252548 0.120624 0.000000
0.252018 0.145584 0.000000
0.251627 0.170552 0.000000
0.251295 0.195535 0.000000
0.251029 0.220517 0.000000
0.250806 0.245504 0.000000
0.250624 0.270494 0.000000
0.250469 0.295486 0.000000
0.250339 0.320480 0.000000
0.250222 0.345477 0.000000
0.250115 0.370472 0.000000
0.250037 0.395459 0.000000
0.250007 0.420447 0.000000
0.250001 0.445443 0.000000
0.250000 0.470443 0.000000
0.250000 0.495443 0.000000
0.275000 -0.075000 0.000000
0.275000 -0.050000 0.000000
0.275000 -0.025000 0.000000
0.275000 0.000000 0.000000
0.300000 -0.075000 0.000000
0.300000 -0.050000 0.000000
0.300000 -0.025000 0.000000
0.300000 0.000000 0.000000
0.325000 -0.075000 0.000000
0.325000 -0.050000 0.000000
0.325000 -0.025000 0.000000
0.325000 0.000000 0.000000
0.350000 -0.075000 0.000000
0.350000 -0.050000 0.000000
0.350000 -0.025000 0.000000
0.350000 0.000000 0.000000
0.375000 -0.075000 0.000000
0.375000 -0.050000 0.000000
0.375000 -0.025000 0.000000
0.375000 0.000000 0.000000
0.400000 -0.075000 0.000000
0.400000 -0.050000 0.000000
0.400000 -0.025000 0.000000
0.400000 0.000000 0.000000
0.425000 -0.075000 0.000000
0.425000 -0.050000 0.000000
0.425000 -0.025000 0.000000
0.425000 0.000000 0.000000
0.450000 -0.075000 0.000000
0.450000 -0.050000 0.000000
0.450000 -0.025000 0.000000
0.450000 0.000000 0.000000
0.475000 -0.075000 0.000000
0.475000 -0.050000 0.000000
0.475000 -0.025000 0.000000
0.475000 0.000000 0.000000
0.500000 -0.075000 0.000000
0.500000 -0.050000 0.000000
0.500000 -0.025000 0.000000
0.500000 0.000000 0.000000
0.525000 -0.075000 0.000000
0.525000 -0.050000 0.000000
0.525000 -0.025000 0.000000
0.525000 0.000000 0.000000
0.550000 -0.075000 0.000000
0.550000 -0.050000 0.000000
0.550000 -0.025000 0.000000
0.550000 0.000000 0.000000
0.575000 -0.075000 0.000000
0.575000 -0.050000 0.000000
0.575000 -0.025000 0.000000
0.575000 0.000000 0.000000
0.600000 -0.075000 0.000000
0.600000 -0.050000 0.000000
0.600000 -0.025000 0.000000
0.600000 0.000000 0.000000
0.625000 -0.075000 0.000000
0.625000 -0.050000 0.000000
0.625000 -0.025000 0.000000
0.625000 0.000000 0.000000
0.650000 -0.075000 0.000000
0.650000 -0.050000 0.000000
0.650000 -0.025000 0.000000
0.650000 0.000000 0.000000
0.675000 -0.075000 0.000000
0.675000 -0.050000 0.000000
0.675000 -0.025000 0.000000
0.675000 0.000000 0.000000
0.700000 -0.075000 0.000000
0.700000 -0.050000 0.000000
0.700000 -0.025000 0.000000
0.700000 0.000000 0.000000
0.725000 -0.075000 0.000000
0.725000 -0.050000 0.000000
0.725000 -0.025000 0.000000
0.725000 0.000000 0.000000
0.750000 -0.075000 0.000000
0.750000 -0.050000 0.000000
0.750000 -0.025000 0.000000
0.750000 0.000000 0.000000
0.775000 -0.075000 0.000000
0.775000 -0.050000 0.000000
0.775000 -0.025000 0.000000
0.775000 0.000000 0.000000
0.800000 -0.075000 0.000000
0.800000 -0.050000 0.000000
0.800000 -0.025000 0.000000
0.800000 0.000000 0.000000
0.825000 -0.075000 0.000000
0.825000 -0.050000 0.000000
0.825000 -0.025000 0.000000
0.825000 0.000000 0.000000
0.850000 -0.075000 0.000000
0.850000 -0.050000 0.000000
0.850000 -0.025000 0.000000
0.850000 0.000000 0.000000
0.875000 -0.075000 0.000000
0.875000 -0.050000 0.000000
0.875000 -0.025000 0.000000
0.875000 0.000000 0.000000
0.900000 -0.075000 0.000000
0.900000 -0.050000 0.000000
0.900000 -0.025000 0.000000
0.900000 0.000000 0.000000
0.925000 -0.075000 0.000000
0.925000 -0.050000 0.000000
0.925000 -0.025000 0.000000
0.925000 0.000000 0.000000
0.950000 -0.075000 0.000000
0.950000 -0.050000 0.000000
0.950000 -0.025000 0.000000
0.950000 0.000000 0.000000
0.975000 -0.075000 0.000000
0.975000 -0.050000 0.000000
0.975000 -0.025000 0.000000
0.975000 0.000000 0.000000
1.000000 -0.075000 0.000000
1.000000 -0.050000 0.000000
1.000000 -0.025000 0.000000
1.000000 0.000000 0.000000
1.025000 -0.075000 0.000000
1.025000 -0.050000 0.000000
1.025000 -0.025000 0.000000
1.025000 0.000000 0.000000
1.025000 0.025000 0.000000
1.025000 0.050000 0.000000
1.025000 0.075000 0.000000
1.025000 0.100000 0.000000
1.025000 0.125000 0.000000
1.025000 0.150000 0.000000
1.025000 0.175000 0.000000
1.025000 0.200000 0.000000
1.025000 0.225000 0.000000
1.025000 0.250000 0.000000
1.025000 0.275000 0.000000
1.025000 0.300000 0.000000
1.025000 0.325000 0.000000
1.025000 0.350000 0.000000
1.025000 0.375000 0.000000
1.025000 0.400000 0.000000
1.025000 0.425000 0.000000
1.025000 0.450000 0.000000
1.025000 0.475000 0.000000
1.025000 0.500000 0.000000
1.025000 0.525000 0.000000
1.025000 0.550000 0.000000
1.025000 0.575000 0.000000
1.025000 0.600000 0.000000
1.050000 -0.075000 0.000000
1.050000 -0.050000 0.000000
1.050000 -0.025000 0.000000
1.050000 0.000000 0.000000
1.050000 0.025000 0.000000
1.050000 0.050000 0.000000
1.050000 0.075000 0.000000
1.050000 0.100000 0.000000
1.050000 0.125000 0.000000
1.050000 0.150000 0.000000
1.050000 0.175000 0.000000
1.050000 0.200000 0.000000
1.050000 0.225000 0.000000
1.050000 0.250000 0.000000
1.050000 0.275000 0.000000
1.050000 0.300000 0.000000
1.050000 0.325000 0.000000
1.050000 0.350000 0.000000
1.050000 0.375000 0.000000
1.050000 0.400000 0.000000
1.050000 0.425000 0.000000
1.050000 0.450000 0.000000
1.050000 0.475000 0.000000
1.050000 0.500000 0.000000
1.050000 0.525000 0.000000
1.050000 0.550000 0.000000
1.050000 0.575000 0.000000
1.050000 0.600000 0.000000
1.075000 -0.075000 0.000000
1.075000 -0.050000 0.000000
1.075000 -0.025000 0.000000
1.075000 0.000000 0.000000
1.075000 0.025000 0.000000
1.075000 0.050000 0.000000
1.075000 0.075000 0.000000
1.075000 0.100000 0.000000
1.075000 0.125000 0.000000
1.075000 0.150000 0.000000
1.075000 0.175000 0.000000
1.075000 0.200000 0.000000
1.075000 0.225000 0.000000
1.075000 0.250000 0.000000
1.075000 0.275000 0.000000
1.075000 0.300000 0.000000
1.075000 0.325000 0.000000
1.075000 0.350000 0.000000
1.075000 0.375000 0.000000
1.075000 0.400000 0.000000
1.075000 0.425000 0.000000
1.075000 0.450000 0.000000
1.075000 0.475000 0.000000
1.075000 0.500000 0.000000
1.075000 0.525000 0.000000
1.075000 0.550000 0.000000
1.075000 0.575000 0.000000
1.075000 0.600000 0.000000
1.100000 -0.075000 0.000000
1.100000 -0.050000 0.000000
1.100000 -0.025000 0.000000
1.100000 0.000000 0.000000
1.100000 0.025000 0.000000
1.100000 0.050000 0.000000
1.100000 0.075000 0.000000
1.100000 0.100000 0.000000
1.100000 0.125000 0.000000
1.100000 0.150000 0.000000
1.100000 0.175000 0.000000
1.100000 0.200000 0.000000
1.100000 0.225000 0.000000
1.100000 0.250000 0.000000
1.100000 0.275000 0.000000
1.100000 0.300000 0.000000
1.100000 0.325000 0.000000
1.100000 0.350000 0.000000
1.100000 0.375000 0.000000
1.100000 0.400000 0.000000
1.100000 0.425000 0.000000
1.100000 0.450000 0.000000
1.100000 0.475000 0.000000
1.100000 0.500000 0.000000
1.100000 0.525000 0.000000
1.100000 0.550000 0.000000
1.100000 0.575000 0.000000
1.100000 0.600000 0.000000
</DataArray>
</Points>
<PointData>
<DataArray NumberOfComponents='1' type='Int32' Name='ParticleType' format='ascii'>
3
3
3
3
3
3
3
3
3
3
3
3
3
3
3
3
3
3
3
3
3
3
3
3
3
3
2
2
3
3
3
3
3
3
3
3
3
3
3
3
3
3
3
3
3
3
3
3
3
3
3
3
3
3
2
2
3
3
2
2
2
2
2
2
2
2
2
2
2
2
2
2
2
2
2
2
2
2
2
2
2
2
2
2
3
3
2
2
2
2
2
2
2
2
2
2
2
2
2
2
2
2
2
2
2
2
2
2
2
2
2
2
3
3
2
2
0
0
0
0
0
0
0
0
0
0
0
0
0
0
0
0
0
0
0
0
3
3
2
2
0
0
0
0
0
0
0
0
0
0
0
0
0
0
0
0
0
0
0
0
3
3
2
2
0
0
0
0
0
0
0
0
0
0
0
0
0
0
0
0
0
0
0
0
3
3
2
2
0
0
0
0
0
0
0
0
0
0
0
0
0
0
0
0
0
0
0
0
3
3
2
2
0
0
0
0
0
0
0
0
0
0
0
0
0
0
0
0
0
0
0
0
3
3
2
2
0
0
0
0
0
0
0
0
0
0
0
0
0
0
0
0
0
0
0
0
3
3
2
2
0
0
0
0
0
0
0
0
0
0
0
0
0
0
0
0
0
0
0
0
3
3
2
2
0
0
0
0
0
0
0
0
0
0
0
0
0
0
0
0
0
0
0
0
3
3
2
2
0
0
0
0
0
0
0
0
0
0
0
0
0
0
0
0
0
0
0
0
3
3
2
2
0
0
0
0
0
0
0
0
0
0
0
0
0
0
0
0
0
0
0
0
3
3
2
2
3
3
2
2
3
3
2
2
3
3
2
2
3
3
2
2
3
3
2
2
3
3
2
2
3
3
2
2
3
3
2
2
3
3
2
2
3
3
2
2
3
3
2
2
3
3
2
2
3
3
2
2
3
3
2
2
3
3
2
2
3
3
2
2
3
3
2
2
3
3
2
2
3
3
2
2
3
3
2
2
3
3
2
2
3
3
2
2
3
3
2
2
3
3
2
2
3
3
2
2
3
3
2
2
3
3
2
2
3
3
2
2
3
3
2
2
3
3
2
2
2
2
2
2
2
2
2
2
2
2
2
2
2
2
2
2
2
2
2
2
2
2
2
2
3
3
2
2
2
2
2
2
2
2
2
2
2
2
2
2
2
2
2
2
2
2
2
2
2
2
2
2
3
3
3
3
3
3
3
3
3
3
3
3
3
3
3
3
3
3
3
3
3
3
3
3
3
3
2
2
3
3
3
3
3
3
3
3
3
3
3
3
3
3
3
3
3
3
3
3
3
3
3
3
3
3
2
2
</DataArray>
<DataArray NumberOfComponents='1' type='Float32' Name='Velocity' format='ascii'>
0.000000
0.000000
0.000000
0.000000
0.000000
0.000000
0.000000
0.000000
0.000000
0.000000
0.000000
0.000000
0.000000
0.000000
0.000000
0.000000
0.000000
0.000000
0.000000
0.000000
0.000000
0.000000
0.000000
0.000000
0.000000
0.000000
0.000000
0.000000
0.000000
0.000000
0.000000
0.000000
0.000000
0.000000
0.000000
0.000000
0.000000
0.000000
0.000000
0.000000
0.000000
0.000000
0.000000
0.000000
0.000000
0.000000
0.000000
0.000000
0.000000
0.000000
0.000000
0.000000
0.000000
0.000000
0.000000
0.000000
0.000000
0.000000
0.000000
0.000000
0.000000
0.000000
0.000000
0.000000
0.000000
0.000000
0.000000
0.000000
0.000000
0.000000
0.000000
0.000000
0.000000
0.000000
0.000000
0.000000
0.000000
0.000000
0.000000
0.000000
0.000000
0.000000
0.000000
0.000000
0.000000
0.000000
0.000000
0.000000
0.000000
0.000000
0.000000
0.000000
0.000000
0.000000
0.000000
0.000000
0.000000
0.000000
0.000000
0.000000
0.000000
0.000000
0.000000
0.000000
0.000000
0.000000
0.000000
0.000000
0.000000
0.000000
0.000000
0.000000
0.000000
0.000000
0.000000
0.000000
0.011894
0.049524
0.064143
0.095610
0.113574
0.136636
0.157308
0.172459
0.190356
0.203019
0.216244
0.225759
0.237643
0.243088
0.242502
0.255311
0.271261
0.261590
0.266273
0.290299
0.000000
0.000000
0.000000
0.000000
0.052475
0.068201
0.078471
0.108905
0.121446
0.146503
0.162719
0.176917
0.194605
0.206234
0.219606
0.226424
0.239156
0.252188
0.243967
0.247811
0.269936
0.270337
0.267379
0.282379
0.000000
0.000000
0.000000
0.000000
0.076567
0.092650
0.097418
0.118874
0.127010
0.155113
0.167684
0.182403
0.200015
0.210328
0.222376
0.227544
0.239690
0.256432
0.249739
0.246149
0.268252
0.276403
0.265451
0.276445
0.000000
0.000000
0.000000
0.000000
0.095980
0.099072
0.110284
0.138297
0.145764
0.171068
0.181785
0.195461
0.209879
0.217537
0.227401
0.233848
0.248268
0.258405
0.248949
0.251213
0.272543
0.275222
0.265980
0.278791
0.000000
0.000000
0.000000
0.000000
0.168624
0.172682
0.161094
0.174100
0.179370
0.193792
0.199316
0.209104
0.220257
0.227113
0.237286
0.247162
0.260345
0.258149
0.246993
0.258537
0.277434
0.271605
0.268311
0.284463
0.000000
0.000000
0.000000
0.000000
0.148474
0.166114
0.178822
0.183371
0.187089
0.210327
0.212587
0.222818
0.234531
0.241041
0.250195
0.256157
0.258612
0.251697
0.253785
0.271215
0.281467
0.267500
0.270131
0.290963
0.000000
0.000000
0.000000
0.000000
0.274621
0.224518
0.231732
0.240732
0.223234
0.241593
0.239460
0.243982
0.251650
0.253617
0.258591
0.260657
0.260689
0.262122
0.272910
0.282567
0.284172
0.268273
0.272088
0.293377
0.000000
0.000000
0.000000
0.000000
0.239197
0.280801
0.251458
0.274880
0.255266
0.266225
0.263206
0.263934
0.268058
0.268375
0.271545
0.273231
0.274578
0.274911
0.278536
0.283406
0.285247
0.273406
0.276988
0.293684
0.000000
0.000000
0.000000
0.000000
0.448441
0.370223
0.332321
0.319883
0.297327
0.294063
0.287410
0.282905
0.283204
0.282182
0.283355
0.285084
0.286939
0.283234
0.275168
0.274591
0.285609
0.290616
0.291058
0.294000
0.000000
0.000000
0.000000
0.000000
0.610119
0.493855
0.418724
0.378468
0.346719
0.328950
0.316983
0.307957
0.302969
0.299229
0.297160
0.295965
0.295532
0.294064
0.291168
0.289926
0.292278
0.294001
0.294000
0.294000
0.000000
0.000000
0.000000
0.000000
0.000000
0.000000
0.000000
0.000000
0.000000
0.000000
0.000000
0.000000
0.000000
0.000000
0.000000
0.000000
0.000000
0.000000
0.000000
0.000000
0.000000
0.000000
0.000000
0.000000
0.000000
0.000000
0.000000
0.000000
0.000000
0.000000
0.000000
0.000000
0.000000
0.000000
0.000000
0.000000
0.000000
0.000000
0.000000
0.000000
0.000000
0.000000
0.000000
0.000000
0.000000
0.000000
0.000000
0.000000
0.000000
0.000000
0.000000
0.000000
0.000000
0.000000
0.000000
0.000000
0.000000
0.000000
0.000000
0.000000
0.000000
0.000000
0.000000
0.000000
0.000000
0.000000
0.000000
0.000000
0.000000
0.000000
0.000000
0.000000
0.000000
0.000000
0.000000
0.000000
0.000000
0.000000
0.000000
0.000000
0.000000
0.000000
0.000000
0.000000
0.000000
0.000000
0.000000
0.000000
0.000000
0.000000
0.000000
0.000000
0.000000
0.000000
0.000000
0.000000
0.000000
0.000000
0.000000
0.000000
0.000000
0.000000
0.000000
0.000000
0.000000
0.000000
0.000000
0.000000
0.000000
0.000000
0.000000
0.000000
0.000000
0.000000
0.000000
0.000000
0.000000
0.000000
0.000000
0.000000
0.000000
0.000000
0.000000
0.000000
0.000000
0.000000
0.000000
0.000000
0.000000
0.000000
0.000000
0.000000
0.000000
0.000000
0.000000
0.000000
0.000000
0.000000
0.000000
0.000000
0.000000
0.000000
0.000000
0.000000
0.000000
0.000000
0.000000
0.000000
0.000000
0.000000
0.000000
0.000000
0.000000
0.000000
0.000000
0.000000
0.000000
0.000000
0.000000
0.000000
0.000000
0.000000
0.000000
0.000000
0.000000
0.000000
0.000000
0.000000
0.000000
0.000000
0.000000
0.000000
0.000000
0.000000
0.000000
0.000000
0.000000
0.000000
0.000000
0.000000
0.000000
0.000000
0.000000
0.000000
0.000000
0.000000
0.000000
0.000000
0.000000
0.000000
0.000000
0.000000
0.000000
0.000000
0.000000
0.000000
0.000000
0.000000
0.000000
0.000000
0.000000
0.000000
0.000000
0.000000
0.000000
0.000000
0.000000
0.000000
0.000000
0.000000
0.000000
0.000000
0.000000
0.000000
0.000000
0.000000
0.000000
0.000000
0.000000
0.000000
0.000000
0.000000
0.000000
0.000000
0.000000
0.000000
0.000000
0.000000
0.000000
0.000000
0.000000
0.000000
</DataArray>
<DataArray NumberOfComponents='1' type='Float32' Name='pressure' format='ascii'>
0.000000
0.000000
0.000000
0.000000
0.000000
0.000000
0.000000
0.000000
0.000000
0.000000
0.000000
0.000000
0.000000
0.000000
0.000000
0.000000
0.000000
0.000000
0.000000
0.000000
0.000000
0.000000
0.000000
0.000000
0.000000
0.000000
0.000000
0.000000
0.000000
0.000000
0.000000
0.000000
0.000000
0.000000
0.000000
0.000000
0.000000
0.000000
0.000000
0.000000
0.000000
0.000000
0.000000
0.000000
0.000000
0.000000
0.000000
0.000000
0.000000
0.000000
0.000000
0.000000
0.000000
0.000000
0.000000
0.000000
0.000000
0.000000
1838.246704
1770.863159
1622.664551
1433.328735
1261.412354
1088.320312
944.646790
799.816956
683.441223
578.755249
495.090790
430.580200
388.601807
364.068848
351.583466
329.345886
254.486053
153.498505
95.534828
39.168102
0.000000
0.000000
0.000000
0.000000
0.000000
0.000000
0.000000
0.000000
1887.702881
1895.339111
1649.539062
1486.798462
1266.186035
1112.450073
959.113525
813.193176
699.367859
587.074402
506.819641
438.471130
398.298218
379.392853
391.914307
418.697235
357.907959
172.916168
99.415092
223.419937
18.223942
0.000000
0.000000
0.000000
0.000000
0.000000
0.000000
0.000000
2019.320068
2064.989502
1724.228638
1630.312988
1359.676880
1245.205200
1048.808228
915.136780
802.550476
671.177612
596.906982
508.260925
454.755402
422.746552
388.466095
417.074982
467.480225
214.945114
0.000000
79.803986
96.579613
0.000000
0.000000
0.000000
1976.558716
1969.669434
1591.308716
1521.961670
1224.864502
1172.020386
956.568054
883.189514
761.120422
634.531372
568.292297
467.042877
412.265778
385.692535
313.328033
260.948151
384.963135
291.735321
0.000000
0.000000
268.355316
0.000000
0.000000
0.000000
1951.452148
1975.357056
1630.149536
1631.302612
1366.679443
1234.141968
962.706848
909.264526
738.392822
612.721375
546.042725
462.370148
432.320435
420.701385
338.452942
219.421158
324.538452
374.566040
0.000000
115.826653
285.899109
0.000000
0.000000
0.000000
1888.186157
1824.831299
1350.149902
1268.498413
991.593506
934.054260
747.344116
726.305542
616.164429
558.421692
539.707703
486.575806
457.368256
393.666870
264.141876
194.408112
321.079865
284.630371
0.000000
102.754707
256.118591
0.000000
0.000000
0.000000
1825.905640
1873.872925
1551.610962
1675.391235
1268.956421
1225.902466
1026.188599
950.421570
786.516479
671.268616
579.571350
445.922760
336.337891
207.662125
110.155373
204.716629
361.772522
169.989243
0.000000
73.023262
232.831558
0.000000
0.000000
0.000000
1725.542358
1575.726807
1031.678223
1128.683105
913.090088
770.872742
525.481934
541.651428
382.650208
295.243988
239.046616
158.237930
133.811005
136.521896
208.880417
350.018951
295.854309
0.000000
0.000000
0.000000
87.952660
0.000000
0.000000
0.000000
1726.470459
1741.260498
1484.083496
1228.551758
944.918030
977.146973
636.676697
668.484131
522.225159
442.338959
401.225677
346.493073
343.256317
341.017731
342.155182
263.896271
0.000000
0.000000
0.000000
0.000000
0.000000
0.000000
0.000000
0.000000
1658.406860
1451.837646
755.292358
858.080688
540.249695
583.571533
329.394257
355.657898
262.993683
210.482651
184.864288
140.757233
130.175415
103.548042
94.740211
81.448151
16.799025
0.000000
0.000000
121.441360
0.000000
0.000000
0.000000
0.000000
1635.582153
1560.256958
1556.721924
934.984192
727.172302
611.636902
383.702820
359.571228
275.063446
209.166580
175.395721
125.247597
84.039337
37.573910
30.189547
97.920471
217.601074
212.458282
0.000000
0.000000
0.000000
0.000000
0.000000
0.000000
2374.878418
2296.669189
0.000000
0.000000
0.000000
0.000000
0.000000
0.000000
0.000000
0.000000
0.000000
0.000000
0.000000
0.000000
0.000000
0.000000
0.000000
0.000000
0.000000
0.000000
0.000000
0.000000
0.000000
0.000000
658.660339
0.000000
0.000000
0.000000
0.000000
0.000000
0.000000
0.000000
0.000000
0.000000
0.000000
0.000000
0.000000
0.000000
0.000000
0.000000
0.000000
0.000000
0.000000
0.000000
0.000000
0.000000
0.000000
0.000000
0.000000
0.000000
0.000000
0.000000
0.000000
0.000000
0.000000
0.000000
0.000000
0.000000
0.000000
0.000000
0.000000
0.000000
0.000000
0.000000
0.000000
0.000000
0.000000
0.000000
0.000000
0.000000
0.000000
0.000000
0.000000
0.000000
0.000000
0.000000
0.000000
0.000000
0.000000
0.000000
0.000000
0.000000
0.000000
0.000000
0.000000
0.000000
0.000000
0.000000
0.000000
0.000000
0.000000
0.000000
0.000000
0.000000
0.000000
0.000000
0.000000
0.000000
0.000000
0.000000
0.000000
0.000000
0.000000
0.000000
0.000000
0.000000
0.000000
0.000000
0.000000
0.000000
0.000000
0.000000
0.000000
0.000000
0.000000
0.000000
0.000000
0.000000
0.000000
0.000000
0.000000
0.000000
0.000000
0.000000
0.000000
0.000000
0.000000
0.000000
0.000000
0.000000
0.000000
0.000000
0.000000
0.000000
0.000000
0.000000
0.000000
0.000000
0.000000
0.000000
0.000000
0.000000
0.000000
0.000000
0.000000
0.000000
0.000000
0.000000
0.000000
0.000000
0.000000
0.000000
0.000000
0.000000
0.000000
0.000000
0.000000
0.000000
0.000000
0.000000
0.000000
0.000000
0.000000
0.000000
0.000000
0.000000
0.000000
0.000000
0.000000
0.000000
0.000000
0.000000
0.000000
0.000000
0.000000
0.000000
0.000000
0.000000
0.000000
0.000000
0.000000
0.000000
0.000000
0.000000
0.000000
0.000000
0.000000
0.000000
0.000000
0.000000
0.000000
0.000000
0.000000
0.000000
0.000000
0.000000
0.000000
0.000000
0.000000
0.000000
0.000000
0.000000
0.000000
0.000000
0.000000
0.000000
0.000000
0.000000
0.000000
0.000000
0.000000
0.000000
0.000000
0.000000
0.000000
0.000000
0.000000
0.000000
0.000000
0.000000
0.000000
0.000000
0.000000
0.000000
0.000000
0.000000
0.000000
0.000000
0.000000
0.000000
0.000000
0.000000
0.000000
0.000000
0.000000
0.000000
0.000000
0.000000
0.000000
0.000000
0.000000
0.000000
0.000000
0.000000
0.000000
0.000000
0.000000
0.000000
0.000000
0.000000
0.000000
0.000000
0.000000
0.000000
</DataArray>
</PointData>
<Cells>
<DataArray type='Int32' Name='connectivity' format='ascii'>
0
1
2
3
4
5
6
7
8
9
10
11
12
13
14
15
16
17
18
19
20
21
22
23
24
25
26
27
28
29
30
31
32
33
34
35
36
37
38
39
40
41
42
43
44
45
46
47
48
49
50
51
52
53
54
55
56
57
58
59
60
61
62
63
64
65
66
67
68
69
70
71
72
73
74
75
76
77
78
79
80
81
82
83
84
85
86
87
88
89
90
91
92
93
94
95
96
97
98
99
100
101
102
103
104
105
106
107
108
109
110
111
112
113
114
115
116
117
118
119
120
121
122
123
124
125
126
127
128
129
130
131
132
133
134
135
136
137
138
139
140
141
142
143
144
145
146
147
148
149
150
151
152
153
154
155
156
157
158
159
160
161
162
163
164
165
166
167
168
169
170
171
172
173
174
175
176
177
178
179
180
181
182
183
184
185
186
187
188
189
190
191
192
193
194
195
196
197
198
199
200
201
202
203
204
205
206
207
208
209
210
211
212
213
214
215
216
217
218
219
220
221
222
223
224
225
226
227
228
229
230
231
232
233
234
235
236
237
238
239
240
241
242
243
244
245
246
247
248
249
250
251
252
253
254
255
256
257
258
259
260
261
262
263
264
265
266
267
268
269
270
271
272
273
274
275
276
277
278
279
280
281
282
283
284
285
286
287
288
289
290
291
292
293
294
295
296
297
298
299
300
301
302
303
304
305
306
307
308
309
310
311
312
313
314
315
316
317
318
319