<?xml version='1.0' encoding='UTF-8'?>
<VTKFile xmlns='VTK' byte_order='LittleEndian' version='0.1' type='UnstructuredGrid'>
<UnstructuredGrid>
<Piece NumberOfCells='584' NumberOfPoints='584'>
<Points>
<DataArray NumberOfComponents='3' type='Float32' Name='Position' format='ascii'>
-0.075000 -0.075000 0.000000
-0.075000 -0.050000 0.000000
-0.075000 -0.025000 0.000000
-0.075000 0.000000 0.000000
-0.075000 0.025000 0.000000
-0.075000 0.050000 0.000000
-0.075000 0.075000 0.000000
-0.075000 0.100000 0.000000
-0.075000 0.125000 0.000000
-0.075000 0.150000 0.000000
-0.075000 0.175000 0.000000
-0.075000 0.200000 0.000000
-0.075000 0.225000 0.000000
-0.075000 0.250000 0.000000
-0.075000 0.275000 0.000000
-0.075000 0.300000 0.000000
-0.075000 0.325000 0.000000
-0.075000 0.350000 0.000000
-0.075000 0.375000 0.000000
-0.075000 0.400000 0.000000
-0.075000 0.425000 0.000000
-0.075000 0.450000 0.000000
-0.075000 0.475000 0.000000
-0.075000 0.500000 0.000000
-0.075000 0.525000 0.000000
-0.075000 0.550000 0.000000
-0.075000 0.575000 0.000000
-0.075000 0.600000 0.000000
-0.050000 -0.075000 0.000000
-0.050000 -0.050000 0.000000
-0.050000 -0.025000 0.000000
-0.050000 0.000000 0.000000
-0.050000 0.025000 0.000000
-0.050000 0.050000 0.000000
-0.050000 0.075000 0.000000
-0.050000 0.100000 0.000000
-0.050000 0.125000 0.000000
-0.050000 0.150000 0.000000
-0.050000 0.175000 0.000000
-0.050000 0.200000 0.000000
-0.050000 0.225000 0.000000
-0.050000 0.250000 0.000000
-0.050000 0.275000 0.000000
-0.050000 0.300000 0.000000
-0.050000 0.325000 0.000000
-0.050000 0.350000 0.000000
-0.050000 0.375000 0.000000
-0.050000 0.400000 0.000000
-0.050000 0.425000 0.000000
-0.050000 0.450000 0.000000
-0.050000 0.475000 0.000000
-0.050000 0.500000 0.000000
-0.050000 0.525000 0.000000
-0.050000 0.550000 0.000000
-0.050000 0.575000 0.000000
-0.050000 0.600000 0.000000
-0.025000 -0.075000 0.000000
-0.025000 -0.050000 0.000000
-0.025000 -0.025000 0.000000
-0.025000 0.000000 0.000000
-0.025000 0.025000 0.000000
-0.025000 0.050000 0.000000
-0.025000 0.075000 0.000000
-0.025000 0.100000 0.000000
-0.025000 0.125000 0.000000
-0.025000 0.150000 0.000000
-0.025000 0.175000 0.000000
-0.025000 0.200000 0.000000
-0.025000 0.225000 0.000000
-0.025000 0.250000 0.000000
-0.025000 0.275000 0.000000
-0.025000 0.300000 0.000000
-0.025000 0.325000 0.000000
-0.025000 0.350000 0.000000
-0.025000 0.375000 0.000000
-0.025000 0.400000 0.000000
-0.025000 0.425000 0.000000
-0.025000 0.450000 0.000000
-0.025000 0.475000 0.000000
-0.025000 0.500000 0.000000
-0.025000 0.525000 0.000000
-0.025000 0.550000 0.000000
-0.025000 0.575000 0.000000
-0.025000 0.600000 0.000000
0.000000 -0.075000 0.000000
0.000000 -0.050000 0.000000
0.000000 -0.025000 0.000000
0.000000 0.000000 0.000000
0.000000 0.025000 0.000000
0.000000 0.050000 0.000000
0.000000 0.075000 0.000000
0.000000 0.100000 0.000000
0.000000 0.125000 0.000000
0.000000 0.150000 0.000000
0.000000 0.175000 0.000000
0.000000 0.200000 0.000000
0.000000 0.225000 0.000000
0.000000 0.250000 0.000000
0.000000 0.275000 0.000000
0.000000 0.300000 0.000000
0.000000 0.325000 0.000000
0.000000 0.350000 0.000000
0.000000 0.375000 0.000000
0.000000 0.400000 0.000000
0.000000 0.425000 0.000000
0.000000 0.450000 0.000000
0.000000 0.475000 0.000000
0.000000 0.500000 0.000000
0.000000 0.525000 0.000000
0.000000 0.550000 0.000000
0.000000 0.575000 0.000000
0.000000 0.600000 0.000000
0.025000 -0.075000 0.000000
0.025000 -0.050000 0.000000
0.025000 -0.025000 0.000000
0.025000 0.000000 0.000000
0.096847 0.023490 0.000000
0.076753 0.027293 0.000000
0.058829 0.041227 0.000000
0.042624 0.022363 0.000000
0.107984 0.040743 0.000000
0.023935 0.031253 0.000000
0.126298 0.055757 0.000000
0.095091 0.062336 0.000000
0.076182 0.072047 0.000000
0.052372 0.059991 0.000000
0.086848 0.090824 0.000000
0.049638 0.083459 0.000000
0.022327 0.058786 0.000000
0.027366 0.080917 0.000000
0.022882 0.112645 0.000000
0.038120 0.132582 0.000000
0.050715 0.155134 0.000000
0.025786 0.154939 0.000000
0.037504 0.195607 0.000000
0.027999 0.176142 0.000000
0.050000 -0.075000 0.000000
0.050000 -0.050000 0.000000
0.050000 -0.025000 0.000000
0.050000 0.000000 0.000000
0.140232 0.018739 0.000000
0.138939 0.040237 0.000000
0.164967 0.044141 0.000000
0.234854 0.046890 0.000000
0.185954 0.069246 0.000000
0.186431 0.091980 0.000000
0.160688 0.066561 0.000000
0.220047 0.109127 0.000000
0.111688 0.081918 0.000000
0.141430 0.080037 0.000000
0.126638 0.096699 0.000000
0.145349 0.104968 0.000000
0.042723 0.107417 0.000000
0.116020 0.128346 0.000000
0.079422 0.108059 0.000000
0.086154 0.133395 0.000000
0.064864 0.123937 0.000000
0.075570 0.157386 0.000000
0.055693 0.178290 0.000000
0.074453 0.191617 0.000000
0.075000 -0.075000 0.000000
0.075000 -0.050000 0.000000
0.075000 -0.025000 0.000000
0.075000 0.000000 0.000000
0.187967 0.019682 0.000000
0.206045 0.063766 0.000000
0.232310 0.024045 0.000000
0.184589 0.040175 0.000000
0.259471 0.044275 0.000000
0.342367 0.039146 0.000000
0.331664 0.079565 0.000000
0.218957 0.080947 0.000000
0.272671 0.066768 0.000000
0.239569 0.130952 0.000000
0.238084 0.086515 0.000000
0.175631 0.107373 0.000000
0.155527 0.123224 0.000000
0.135043 0.139617 0.000000
0.100952 0.145143 0.000000
0.096154 0.177614 0.000000
0.118871 0.177346 0.000000
0.137455 0.188159 0.000000
0.158923 0.161603 0.000000
0.088066 0.194557 0.000000
0.100000 -0.075000 0.000000
0.100000 -0.050000 0.000000
0.100000 -0.025000 0.000000
0.100000 0.000000 0.000000
0.286554 0.032364 0.000000
0.266691 0.022805 0.000000
0.320128 0.041311 0.000000
0.389978 0.065945 0.000000
0.214457 0.033982 0.000000
0.382879 0.025096 0.000000
0.376941 0.048088 0.000000
0.354300 0.059709 0.000000
0.312560 0.062487 0.000000
0.337572 0.107837 0.000000
0.248828 0.069145 0.000000
0.292159 0.066654 0.000000
0.274748 0.099600 0.000000
0.259283 0.108887 0.000000
0.201922 0.118123 0.000000
0.133099 0.160606 0.000000
0.232592 0.148905 0.000000
0.192999 0.133652 0.000000
0.189774 0.177524 0.000000
0.170087 0.145723 0.000000
0.125000 -0.075000 0.000000
0.125000 -0.050000 0.000000
0.125000 -0.025000 0.000000
0.125000 0.000000 0.000000
0.457230 0.021818 0.000000
0.351732 0.021690 0.000000
0.573917 0.026042 0.000000
0.543865 0.021849 0.000000
0.551621 0.044879 0.000000
0.310060 0.021032 0.000000
0.414288 0.022318 0.000000
0.436672 0.037283 0.000000
0.419895 0.063934 0.000000
0.358017 0.081979 0.000000
0.411598 0.085316 0.000000
0.387585 0.089750 0.000000
0.310321 0.087993 0.000000
0.255470 0.165459 0.000000
0.239347 0.176418 0.000000
0.258986 0.130803 0.000000
0.336050 0.156572 0.000000
0.228006 0.170876 0.000000
0.284867 0.158493 0.000000
0.192940 0.159792 0.000000
0.150000 -0.075000 0.000000
0.150000 -0.050000 0.000000
0.150000 -0.025000 0.000000
0.150000 0.000000 0.000000
0.672544 0.032073 0.000000
0.600140 0.027279 0.000000
0.649900 0.053911 0.000000
0.594667 0.061413 0.000000
0.655289 0.024900 0.000000
0.683327 0.055435 0.000000
0.519113 0.042127 0.000000
0.620070 0.045527 0.000000
0.507253 0.024167 0.000000
0.529185 0.059709 0.000000
0.484426 0.025981 0.000000
0.401876 0.039755 0.000000
0.462705 0.044483 0.000000
0.462222 0.070056 0.000000
0.395718 0.118480 0.000000
0.321887 0.117648 0.000000
0.294729 0.107906 0.000000
0.319885 0.143455 0.000000
0.303504 0.149554 0.000000
0.293507 0.130650 0.000000
0.175000 -0.075000 0.000000
0.175000 -0.050000 0.000000
0.175000 -0.025000 0.000000
0.175000 0.000000 0.000000
0.853458 0.055282 0.000000
0.740385 0.022762 0.000000
0.827102 0.026936 0.000000
0.859172 0.022592 0.000000
0.807995 0.023440 0.000000
0.694384 0.023811 0.000000
0.779929 0.023956 0.000000
0.761205 0.038197 0.000000
0.675490 0.071003 0.000000
0.720367 0.026559 0.000000
0.574924 0.044799 0.000000
0.608468 0.076960 0.000000
0.492854 0.052376 0.000000
0.506959 0.109638 0.000000
0.441247 0.060688 0.000000
0.497516 0.070403 0.000000
0.436531 0.094818 0.000000
0.412590 0.133396 0.000000
0.371159 0.122390 0.000000
0.368143 0.099301 0.000000
0.200000 -0.075000 0.000000
0.200000 -0.050000 0.000000
0.200000 -0.025000 0.000000
0.200000 0.000000 0.000000
0.982458 0.180035 0.000000
0.925116 0.023529 0.000000
0.967023 0.113742 0.000000
0.893778 0.023201 0.000000
0.971635 0.022354 0.000000
0.947439 0.031062 0.000000
0.909382 0.040357 0.000000
0.873446 0.038861 0.000000
0.800357 0.059116 0.000000
0.795187 0.076001 0.000000
0.751781 0.068007 0.000000
0.623427 0.022169 0.000000
0.714139 0.073160 0.000000
0.635144 0.059518 0.000000
0.521847 0.095488 0.000000
0.574816 0.107940 0.000000
0.576332 0.088314 0.000000
0.480136 0.084965 0.000000
0.485266 0.100545 0.000000
0.431219 0.129361 0.000000
0.225000 -0.075000 0.000000
0.225000 -0.050000 0.000000
0.225000 -0.025000 0.000000
0.225000 0.000000 0.000000
1.004758 0.054927 0.000000
0.985932 0.296683 0.000000
0.996242 0.023556 0.000000
0.955089 0.136732 0.000000
0.984263 0.046769 0.000000
0.975016 0.151584 0.000000
0.980953 0.097555 0.000000
0.951859 0.052185 0.000000
0.932191 0.057048 0.000000
0.967138 0.076381 0.000000
0.893493 0.059264 0.000000
0.886316 0.076192 0.000000
0.874198 0.081634 0.000000
0.815509 0.065754 0.000000
0.739217 0.075418 0.000000
0.697234 0.079960 0.000000
0.676076 0.093492 0.000000
0.595899 0.088631 0.000000
0.536631 0.098137 0.000000
0.432334 0.107294 0.000000
0.250000 -0.075000 0.000000
0.250000 -0.050000 0.000000
0.250000 -0.025000 0.000000
0.250000 0.000000 0.000000
1.006080 0.346354 0.000000
0.976362 0.255901 0.000000
1.004250 0.133495 0.000000
1.000031 0.105340 0.000000
0.978531 0.320382 0.000000
0.990964 0.154249 0.000000
0.961090 0.258957 0.000000
1.003534 0.224854 0.000000
0.956150 0.161933 0.000000
0.986630 0.068909 0.000000
0.950994 0.106570 0.000000
0.931093 0.138116 0.000000
0.937302 0.085701 0.000000
0.916744 0.104743 0.000000
0.922173 0.078029 0.000000
0.841428 0.045368 0.000000
0.777528 0.044939 0.000000
0.724588 0.057399 0.000000
0.631071 0.094941 0.000000
0.556108 0.076639 0.000000
0.275000 -0.075000 0.000000
0.275000 -0.050000 0.000000
0.275000 -0.025000 0.000000
0.275000 0.000000 0.000000
0.300000 -0.075000 0.000000
0.300000 -0.050000 0.000000
0.300000 -0.025000 0.000000
0.300000 0.000000 0.000000
0.325000 -0.075000 0.000000
0.325000 -0.050000 0.000000
0.325000 -0.025000 0.000000
0.325000 0.000000 0.000000
0.350000 -0.075000 0.000000
0.350000 -0.050000 0.000000
0.350000 -0.025000 0.000000
0.350000 0.000000 0.000000
0.375000 -0.075000 0.000000
0.375000 -0.050000 0.000000
0.375000 -0.025000 0.000000
0.375000 0.000000 0.000000
0.400000 -0.075000 0.000000
0.400000 -0.050000 0.000000
0.400000 -0.025000 0.000000
0.400000 0.000000 0.000000
0.425000 -0.075000 0.000000
0.425000 -0.050000 0.000000
0.425000 -0.025000 0.000000
0.425000 0.000000 0.000000
0.450000 -0.075000 0.000000
0.450000 -0.050000 0.000000
0.450000 -0.025000 0.000000
0.450000 0.000000 0.000000
0.475000 -0.075000 0.000000
0.475000 -0.050000 0.000000
0.475000 -0.025000 0.000000
0.475000 0.000000 0.000000
0.500000 -0.075000 0.000000
0.500000 -0.050000 0.000000
0.500000 -0.025000 0.000000
0.500000 0.000000 0.000000
0.525000 -0.075000 0.000000
0.525000 -0.050000 0.000000
0.525000 -0.025000 0.000000
0.525000 0.000000 0.000000
0.550000 -0.075000 0.000000
0.550000 -0.050000 0.000000
0.550000 -0.025000 0.000000
0.550000 0.000000 0.000000
0.575000 -0.075000 0.000000
0.575000 -0.050000 0.000000
0.575000 -0.025000 0.000000
0.575000 0.000000 0.000000
0.600000 -0.075000 0.000000
0.600000 -0.050000 0.000000
0.600000 -0.025000 0.000000
0.600000 0.000000 0.000000
0.625000 -0.075000 0.000000
0.625000 -0.050000 0.000000
0.625000 -0.025000 0.000000
0.625000 0.000000 0.000000
0.650000 -0.075000 0.000000
0.650000 -0.050000 0.000000
0.650000 -0.025000 0.000000
0.650000 0.000000 0.000000
0.675000 -0.075000 0.000000
0.675000 -0.050000 0.000000
0.675000 -0.025000 0.000000
0.675000 0.000000 0.000000
0.700000 -0.075000 0.000000
0.700000 -0.050000 0.000000
0.700000 -0.025000 0.000000
0.700000 0.000000 0.000000
0.725000 -0.075000 0.000000
0.725000 -0.050000 0.000000
0.725000 -0.025000 0.000000
0.725000 0.000000 0.000000
0.750000 -0.075000 0.000000
0.750000 -0.050000 0.000000
0.750000 -0.025000 0.000000
0.750000 0.000000 0.000000
0.775000 -0.075000 0.000000
0.775000 -0.050000 0.000000
0.775000 -0.025000 0.000000
0.775000 0.000000 0.000000
0.800000 -0.075000 0.000000
0.800000 -0.050000 0.000000
0.800000 -0.025000 0.000000
0.800000 0.000000 0.000000
0.825000 -0.075000 0.000000
0.825000 -0.050000 0.000000
0.825000 -0.025000 0.000000
0.825000 0.000000 0.000000
0.850000 -0.075000 0.000000
0.850000 -0.050000 0.000000
0.850000 -0.025000 0.000000
0.850000 0.000000 0.000000
0.875000 -0.075000 0.000000
0.875000 -0.050000 0.000000
0.875000 -0.025000 0.000000
0.875000 0.000000 0.000000
0.900000 -0.075000 0.000000
0.900000 -0.050000 0.000000
0.900000 -0.025000 0.000000
0.900000 0.000000 0.000000
0.925000 -0.075000 0.000000
0.925000 -0.050000 0.000000
0.925000 -0.025000 0.000000
0.925000 0.000000 0.000000
0.950000 -0.075000 0.000000
0.950000 -0.050000 0.000000
0.950000 -0.025000 0.000000
0.950000 0.000000 0.000000
0.975000 -0.075000 0.000000
0.975000 -0.050000 0.000000
0.975000 -0.025000 0.000000
0.975000 0.000000 0.000000
1.000000 -0.075000 0.000000
1.000000 -0.050000 0.000000
1.000000 -0.025000 0.000000
1.000000 0.000000 0.000000
1.025000 -0.075000 0.000000
1.025000 -0.050000 0.000000
1.025000 -0.025000 0.000000
1.025000 0.000000 0.000000
1.025000 0.025000 0.000000
1.025000 0.050000 0.000000
1.025000 0.075000 0.000000
1.025000 0.100000 0.000000
1.025000 0.125000 0.000000
1.025000 0.150000 0.000000
1.025000 0.175000 0.000000
1.025000 0.200000 0.000000
1.025000 0.225000 0.000000
1.025000 0.250000 0.000000
1.025000 0.275000 0.000000
1.025000 0.300000 0.000000
1.025000 0.325000 0.000000
1.025000 0.350000 0.000000
1.025000 0.375000 0.000000
1.025000 0.400000 0.000000
1.025000 0.425000 0.000000
1.025000 0.450000 0.000000
1.025000 0.475000 0.000000
1.025000 0.500000 0.000000
1.025000 0.525000 0.000000
1.025000 0.550000 0.000000
1.025000 0.575000 0.000000
1.025000 0.600000 0.000000
1.050000 -0.075000 0.000000
1.050000 -0.050000 0.000000
1.050000 -0.025000 0.000000
1.050000 0.000000 0.000000
1.050000 0.025000 0.000000
1.050000 0.050000 0.000000
1.050000 0.075000 0.000000
1.050000 0.100000 0.000000
1.050000 0.125000 0.000000
1.050000 0.150000 0.000000
1.050000 0.175000 0.000000
1.050000 0.200000 0.000000
1.050000 0.225000 0.000000
1.050000 0.250000 0.000000
1.050000 0.275000 0.000000
1.050000 0.300000 0.000000
1.050000 0.325000 0.000000
1.050000 0.350000 0.000000
1.050000 0.375000 0.000000
1.050000 0.400000 0.000000
1.050000 0.425000 0.000000
1.050000 0.450000 0.000000
1.050000 0.475000 0.000000
1.050000 0.500000 0.000000
1.050000 0.525000 0.000000
1.050000 0.550000 0.000000
1.050000 0.575000 0.000000
1.050000 0.600000 0.000000
1.075000 -0.075000 0.000000
1.075000 -0.050000 0.000000
1.075000 -0.025000 0.000000
1.075000 0.000000 0.000000
1.075000 0.025000 0.000000
1.075000 0.050000 0.000000
1.075000 0.075000 0.000000
1.075000 0.100000 0.000000
1.075000 0.125000 0.000000
1.075000 0.150000 0.000000
1.075000 0.175000 0.000000
1.075000 0.200000 0.000000
1.075000 0.225000 0.000000
1.075000 0.250000 0.000000
1.075000 0.275000 0.000000
1.075000 0.300000 0.000000
1.075000 0.325000 0.000000
1.075000 0.350000 0.000000
1.075000 0.375000 0.000000
1.075000 0.400000 0.000000
1.075000 0.425000 0.000000
1.075000 0.450000 0.000000
1.075000 0.475000 0.000000
1.075000 0.500000 0.000000
1.075000 0.525000 0.000000
1.075000 0.550000 0.000000
1.075000 0.575000 0.000000
1.075000 0.600000 0.000000
1.100000 -0.075000 0.000000
1.100000 -0.050000 0.000000
1.100000 -0.025000 0.000000
1.100000 0.000000 0.000000
1.100000 0.025000 0.000000
1.100000 0.050000 0.000000
1.100000 0.075000 0.000000
1.100000 0.100000 0.000000
1.100000 0.125000 0.000000
1.100000 0.150000 0.000000
1.100000 0.175000 0.000000
1.100000 0.200000 0.000000
1.100000 0.225000 0.000000
1.100000 0.250000 0.000000
1.100000 0.275000 0.000000
1.100000 0.300000 0.000000
1.100000 0.325000 0.000000
1.100000 0.350000 0.000000
1.100000 0.375000 0.000000
1.100000 0.400000 0.000000
1.100000 0.425000 0.000000
1.100000 0.450000 0.000000
1.100000 0.475000 0.000000
1.100000 0.500000 0.000000
1.100000 0.525000 0.000000
1.100000 0.550000 0.000000
1.100000 0.575000 0.000000
1.100000 0.600000 0.000000
</DataArray>
</Points>
<PointData>
<DataArray NumberOfComponents='1' type='Int32' Name='ParticleType' format='ascii'>
3
3
3
3
3
3
3
3
3
3
3
3
3
3
3
3
3
3
3
3
3
3
3
3
3
3
2
2
3
3
3
3
3
3
3
3
3
3
3
3
3
3
3
3
3
3
3
3
3
3
3
3
3
3
2
2
3
3
2
2
2
2
2
2
2
2
2
2
2
2
2
2
2
2
2
2
2
2
2
2
2
2
2
2
3
3
2
2
2
2
2
2
2
2
2
2
2
2
2
2
2
2
2
2
2
2
2
2
2
2
2
2
3
3
2
2
0
0
0
0
0
0
0
0
0
0
0
0
0
0
0
0
0
0
0
0
3
3
2
2
0
0
0
0
0
0
0
0
0
0
0
0
0
0
0
0
0
0
0
0
3
3
2
2
0
0
0
0
0
0
0
0
0
0
0
0
0
0
0
0
0
0
0
0
3
3
2
2
0
0
0
0
0
0
0
0
0
0
0
0
0
0
0
0
0
0
0
0
3
3
2
2
0
0
0
0
0
0
0
0
0
0
0
0
0
0
0
0
0
0
0
0
3
3
2
2
0
0
0
0
0
0
0
0
0
0
0
0
0
0
0
0
0
0
0
0
3
3
2
2
0
0
0
0
0
0
0
0
0
0
0
0
0
0
0
0
0
0
0
0
3
3
2
2
0
0
0
0
0
0
0
0
0
0
0
0
0
0
0
0
0
0
0
0
3
3
2
2
0
0
0
0
0
0
0
0
0
0
0
0
0
0
0
0
0
0
0
0
3
3
2
2
0
0
0
0
0
0
0
0
0
0
0
0
0
0
0
0
0
0
0
0
3
3
2
2
3
3
2
2
3
3
2
2
3
3
2
2
3
3
2
2
3
3
2
2
3
3
2
2
3
3
2
2
3
3
2
2
3
3
2
2
3
3
2
2
3
3
2
2
3
3
2
2
3
3
2
2
3
3
2
2
3
3
2
2
3
3
2
2
3
3
2
2
3
3
2
2
3
3
2
2
3
3
2
2
3
3
2
2
3
3
2
2
3
3
2
2
3
3
2
2
3
3
2
2
3
3
2
2
3
3
2
2
3
3
2
2
3
3
2
2
3
3
2
2
2
2
2
2
2
2
2
2
2
2
2
2
2
2
2
2
2
2
2
2
2
2
2
2
3
3
2
2
2
2
2
2
2
2
2
2
2
2
2
2
2
2
2
2
2
2
2
2
2
2
2
2
3
3
3
3
3
3
3
3
3
3
3
3
3
3
3
3
3
3
3
3
3
3
3
3
3
3
2
2
3
3
3
3
3
3
3
3
3
3
3
3
3
3
3
3
3
3
3
3
3
3
3
3
3
3
2
2
</DataArray>
<DataArray NumberOfComponents='1' type='Float32' Name='Velocity' format='ascii'>
0.000000
0.000000
0.000000
0.000000
0.000000
0.000000
0.000000
0.000000
0.000000
0.000000
0.000000
0.000000
0.000000
0.000000
0.000000
0.000000
0.000000
0.000000
0.000000
0.000000
0.000000
0.000000
0.000000
0.000000
0.000000
0.000000
0.000000
0.000000
0.000000
0.000000
0.000000
0.000000
0.000000
0.000000
0.000000
0.000000
0.000000
0.000000
0.000000
0.000000
0.000000
0.000000
0.000000
0.000000
0.000000
0.000000
0.000000
0.000000
0.000000
0.000000
0.000000
0.000000
0.000000
0.000000
0.000000
0.000000
0.000000
0.000000
0.000000
0.000000
0.000000
0.000000
0.000000
0.000000
0.000000
0.000000
0.000000
0.000000
0.000000
0.000000
0.000000
0.000000
0.000000
0.000000
0.000000
0.000000
0.000000
0.000000
0.000000
0.000000
0.000000
0.000000
0.000000
0.000000
0.000000
0.000000
0.000000
0.000000
0.000000
0.000000
0.000000
0.000000
0.000000
0.000000
0.000000
0.000000
0.000000
0.000000
0.000000
0.000000
0.000000
0.000000
0.000000
0.000000
0.000000
0.000000
0.000000
0.000000
0.000000
0.000000
0.000000
0.000000
0.000000
0.000000
0.000000
0.000000
0.375947
0.381094
0.373970
0.233758
0.478186
0.389462
0.529981
0.464017
0.230603
0.183976
0.600739
0.416380
0.478596
0.586921
0.835602
0.684982
0.672885
0.707158
0.547808
0.760682
0.000000
0.000000
0.000000
0.000000
0.306295
0.577205
0.454191
0.739496
0.720044
0.715893
0.753161
1.077852
0.245340
0.781386
0.492467
0.751580
0.498806
0.714213
0.181428
0.642262
0.655802
0.291211
0.698001
0.732792
0.000000
0.000000
0.000000
0.000000
0.215067
0.768380
0.787943
0.639604
0.597342
1.314064
1.411756
0.740333
1.002295
1.197625
0.783334
0.408157
0.540902
0.384148
0.521342
0.538834
0.293093
0.967491
1.118909
0.516434
0.000000
0.000000
0.000000
0.000000
0.819092
0.719384
1.145231
1.215854
0.310256
1.205703
1.453337
1.004434
1.093165
0.861533
0.784931
1.085070
0.802237
0.781307
0.720977
0.384470
0.906320
1.001164
0.987907
0.815639
0.000000
0.000000
0.000000
0.000000
1.478353
0.897627
1.851193
1.960969
1.554226
0.536880
1.402891
1.034609
1.522535
1.198818
1.794216
1.379988
1.145766
0.704690
0.744101
1.340303
1.427384
0.603773
1.416959
0.955611
0.000000
0.000000
0.000000
0.000000
2.122315
1.843408
1.944750
2.068239
2.362638
2.051243
2.150227
1.961504
1.822034
1.697871
1.878657
0.984696
1.864499
1.987087
1.546350
1.245540
1.151359
1.188240
1.035202
1.021695
0.000000
0.000000
0.000000
0.000000
2.422520
2.335381
2.817612
2.531230
2.487586
2.332986
2.312503
2.139457
2.150655
1.973064
1.969263
1.714786
1.777344
1.642640
1.370913
2.049537
1.496301
1.563350
1.210005
1.458697
0.000000
0.000000
0.000000
0.000000
3.395482
1.663025
1.560740
2.558167
1.149745
1.922095
1.822027
2.243945
2.510455
2.386711
2.475470
1.939304
2.494532
2.095877
1.552655
1.570689
2.307802
1.777612
1.448703
1.346242
0.000000
0.000000
0.000000
0.000000
1.230714
4.445914
1.221212
2.204987
0.943907
1.845787
1.660671
1.365442
1.751434
1.794575
2.090918
2.492867
2.189802
2.516283
2.294674
2.550662
2.266512
1.452293
1.852024
1.282627
0.000000
0.000000
0.000000
0.000000
3.712531
3.763945
2.122277
1.997520
3.932885
2.279226
3.677150
3.383152
2.358888
2.265007
1.522359
1.913286
2.222734
1.696603
2.167707
2.421037
2.537379
2.313903
2.095369
1.533256
0.000000
0.000000
0.000000
0.000000
0.000000
0.000000
0.000000
0.000000
0.000000
0.000000
0.000000
0.000000
0.000000
0.000000
0.000000
0.000000
0.000000
0.000000
0.000000
0.000000
0.000000
0.000000
0.000000
0.000000
0.000000
0.000000
0.000000
0.000000
0.000000
0.000000
0.000000
0.000000
0.000000
0.000000
0.000000
0.000000
0.000000
0.000000
0.000000
0.000000
0.000000
0.000000
0.000000
0.000000
0.000000
0.000000
0.000000
0.000000
0.000000
0.000000
0.000000
0.000000
0.000000
0.000000
0.000000
0.000000
0.000000
0.000000
0.000000
0.000000
0.000000
0.000000
0.000000
0.000000
0.000000
0.000000
0.000000
0.000000
0.000000
0.000000
0.000000
0.000000
0.000000
0.000000
0.000000
0.000000
0.000000
0.000000
0.000000
0.000000
0.000000
0.000000
0.000000
0.000000
0.000000
0.000000
0.000000
0.000000
0.000000
0.000000
0.000000
0.000000
0.000000
0.000000
0.000000
0.000000
0.000000
0.000000
0.000000
0.000000
0.000000
0.000000
0.000000
0.000000
0.000000
0.000000
0.000000
0.000000
0.000000
0.000000
0.000000
0.000000
0.000000
0.000000
0.000000
0.000000
0.000000
0.000000
0.000000
0.000000
0.000000
0.000000
0.000000
0.000000
0.000000
0.000000
0.000000
0.000000
0.000000
0.000000
0.000000
0.000000
0.000000
0.000000
0.000000
0.000000
0.000000
0.000000
0.000000
0.000000
0.000000
0.000000
0.000000
0.000000
0.000000
0.000000
0.000000
0.000000
0.000000
0.000000
0.000000
0.000000
0.000000
0.000000
0.000000
0.000000
0.000000
0.000000
0.000000
0.000000
0.000000
0.000000
0.000000
0.000000
0.000000
0.000000
0.000000
0.000000
0.000000
0.000000
0.000000
0.000000
0.000000
0.000000
0.000000
0.000000
0.000000
0.000000
0.000000
0.000000
0.000000
0.000000
0.000000
0.000000
0.000000
0.000000
0.000000
0.000000
0.000000
0.000000
0.000000
0.000000
0.000000
0.000000
0.000000
0.000000
0.000000
0.000000
0.000000
0.000000
0.000000
0.000000
0.000000
0.000000
0.000000
0.000000
0.000000
0.000000
0.000000
0.000000
0.000000
0.000000
0.000000
0.000000
0.000000
0.000000
0.000000
0.000000
0.000000
0.000000
0.000000
0.000000
0.000000
0.000000
0.000000
0.000000
0.000000
0.000000
0.000000
0.000000
0.000000
0.000000
</DataArray>
<DataArray NumberOfComponents='1' type='Float32' Name='pressure' format='ascii'>
0.000000
0.000000
0.000000
0.000000
0.000000
0.000000
0.000000
0.000000
0.000000
0.000000
0.000000
0.000000
0.000000
0.000000
0.000000
0.000000
0.000000
0.000000
0.000000
0.000000
0.000000
0.000000
0.000000
0.000000
0.000000
0.000000
0.000000
0.000000
0.000000
0.000000
0.000000
0.000000
0.000000
0.000000
0.000000
0.000000
0.000000
0.000000
0.000000
0.000000
0.000000
0.000000
0.000000
0.000000
0.000000
0.000000
0.000000
0.000000
0.000000
0.000000
0.000000
0.000000
0.000000
0.000000
0.000000
0.000000
0.000000
0.000000
803.747131
967.996094
1446.723999
1829.818726
644.294067
188.055557
0.000000
0.000000
0.000000
0.000000
0.000000
0.000000
0.000000
0.000000
0.000000
0.000000
0.000000
0.000000
0.000000
0.000000
0.000000
0.000000
0.000000
0.000000
0.000000
0.000000
0.000000
0.000000
815.347107
225.725967
1358.162720
2306.447754
41.608517
0.000000
0.000000
0.000000
0.000000
0.000000
0.000000
0.000000
0.000000
0.000000
0.000000
0.000000
0.000000
0.000000
0.000000
0.000000
0.000000
0.000000
0.000000
0.000000
0.000000
0.000000
0.000000
0.000000
838.741455
0.000000
2705.816650
1143.486084
1676.683960
2915.920410
191.285461
1165.729980
2070.157959
1396.783691
1147.946655
1701.893677
1410.334351
896.858582
1717.935303
303.777832
995.074829
0.000000
119.234993
221.205750
0.000000
0.000000
0.000000
0.000000
2015.718994
1677.530518
392.939453
1011.154907
1439.275635
2335.145996
548.344971
321.419189
0.000000
0.000000
386.341766
405.307495
574.806519
1367.213867
386.808105
0.000000
696.740723
951.280396
369.090515
0.000000
0.000000
0.000000
0.000000
0.000000
978.377197
1144.946045
1481.309448
1407.789185
2679.674561
1855.234375
1853.158691
3171.960938
0.000000
318.004120
321.975830
0.000000
424.899628
0.000000
730.732971
545.931946
0.000000
0.000000
0.000000
0.000000
0.000000
0.000000
0.000000
0.000000
2510.760254
1880.935059
0.000000
2064.241943
1375.337646
775.985779
105.455864
861.036682
1444.960571
0.000000
2062.330078
0.000000
2150.389648
1280.916870
43.312775
0.000000
1037.126343
0.000000
0.000000
0.000000
0.000000
76.562126
0.000000
0.000000
3713.598877
810.664978
3237.814941
1892.449707
359.404297
0.000000
0.000000
1391.410645
998.525757
0.000000
901.010742
1760.279541
0.000000
832.048645
0.000000
0.000000
0.000000
0.000000
0.000000
0.000000
0.000000
0.000000
0.000000
0.000000
4617.929688
1693.294067
0.000000
0.000000
0.000000
0.000000
0.000000
244.629807
0.000000
0.000000
1734.698975
0.000000
1338.897705
1699.417236
1762.928345
0.000000
0.000000
0.000000
1140.240356
0.000000
0.000000
181.421265
0.000000
0.000000
4016.076416
760.549316
0.000000
0.000000
1399.986938
3643.456055
1125.693115
0.000000
2384.933838
811.187439
0.000000
0.000000
0.000000
0.000000
653.415955
0.000000
1233.514648
1457.612915
514.453918
0.000000
0.000000
1000.026672
0.000000
0.000000
3934.556152
3200.150879
0.000000
5898.083984
4738.935547
2741.420898
5077.970703
5205.550781
3611.425293
4035.329346
694.836914
0.000000
0.000000
0.000000
0.000000
0.000000
0.000000
0.000000
0.000000
0.000000
0.000000
0.000000
0.000000
0.000000
2335.291016
755.653931
8393.189453
0.000000
4874.607910
0.000000
8516.220703
2964.167969
1419.134766
5386.529297
4299.971191
3817.877930
876.248474
703.238525
0.000000
0.000000
0.000000
0.000000
0.000000
0.000000
0.000000
532.232544
0.000000
0.000000
2022.894409
385.074371
0.000000
0.000000
0.000000
0.000000
0.000000
0.000000
0.000000
0.000000
0.000000
5866.244629
342.750854
0.000000
1716.768311
0.000000
1676.895264
421.114380
897.845947
0.000000
0.000000
0.000000
0.000000
0.000000
2998.710449
2655.406982
0.000000
0.000000
3892.619385
3274.961914
0.000000
0.000000
3477.190674
2254.406982
0.000000
0.000000
3617.635742
2947.300781
0.000000
0.000000
1693.417236
451.118042
0.000000
0.000000
1724.834839
274.793488
0.000000
0.000000
2350.796875
518.749878
0.000000
0.000000
3221.319580
3162.729248
0.000000
0.000000
2376.389160
3018.741699
0.000000
0.000000
1409.507324
1175.269043
0.000000
0.000000
186.875259
0.000000
0.000000
0.000000
289.359467
0.000000
0.000000
0.000000
0.000000
0.000000
0.000000
0.000000
0.000000
0.000000
0.000000
0.000000
0.000000
565.405579
0.000000
0.000000
0.000000
0.000000
0.000000
0.000000
0.000000
0.000000
0.000000
0.000000
13.097639
0.000000
0.000000
0.000000
946.461731
1567.051392
0.000000
0.000000
2053.626953
1459.598267
0.000000
0.000000
2598.135498
2676.533203
0.000000
0.000000
3065.225342
3562.985352
0.000000
0.000000
2710.265137
2993.536621
0.000000
0.000000
3702.391113
2509.963135
0.000000
0.000000
4004.430908
2345.071533
0.000000
0.000000
5003.045410
5419.719727
0.000000
0.000000
5501.068359
5595.625977
0.000000
0.000000
4720.718262
3157.430420
0.000000
0.000000
6479.650879
8021.328613
0.000000
0.000000
5642.748535
6061.070312
0.000000
0.000000
4412.807617
3295.205322
0.000000
7077.295410
0.000000
0.000000
1479.564819
0.000000
0.000000
0.000000
0.000000
0.000000
0.000000
0.000000
0.000000
0.000000
0.000000
0.000000
0.000000
0.000000
0.000000
0.000000
0.000000
0.000000
0.000000
0.000000
0.000000
0.000000
3870.007812
3652.994141
2929.156006
5338.234375
2981.808594
1698.330200
2320.605469
1046.041260
0.000000
0.000000
1083.995728
0.000000
0.000000
0.000000
655.877869
2585.096680
0.000000
0.000000
0.000000
0.000000
0.000000
0.000000
0.000000
0.000000
0.000000
0.000000
0.000000
0.000000
0.000000
0.000000
0.000000
0.000000
0.000000
0.000000
0.000000
0.000000
0.000000
0.000000
0.000000
0.000000
0.000000
0.000000
0.000000
0.000000
0.000000
0.000000
0.000000
0.000000
0.000000
0.000000
0.000000
0.000000
0.000000
0.000000
0.000000
0.000000
0.000000
0.000000
0.000000
0.000000
0.000000
0.000000
0.000000
0.000000
0.000000
0.000000
0.000000
0.000000
0.000000
0.000000
0.000000
0.000000
0.000000
0.000000
0.000000
0.000000
0.000000
0.000000
0.000000
0.000000
0.000000
0.000000
</DataArray>
</PointData>
<Cells>
<DataArray type='Int32' Name='connectivity' format='ascii'>
0
1
2
3
4
5
6
7
8
9
10
11
12
13
14
15
16
17
18
19
20
21
22
23
24
25
26
27
28
29
30
31
32
33
34
35
36
37
38
39
40
41
42
43
44
45
46
47
48
49
50
51
52
53
54
55
56
57
58
59
60
61
62
63
64
65
66
67
68
69
70
71
72
73
74
75
76
77
78
79
80
81
82
83
84
85
86
87
88
89
90
91
92
93
94
95
96
97
98
99
100
101
102
103
104
105
106
107
108
109
110
111
112
113
114
115
116
117
118
119
120
121
122
123
124
125
126
127
128
129
130
131
132
133
134
135
136
137
138
139
140
141
142
143
144
145
146
147
148
149
150
151
152
153
154
155
156
157
158
159
160
161
162
163
164
165
166
167
168
169
170
171
172
173
174
175
176
177
178
179
180
181
182
183
184
185
186
187
188
189
190
191
192
193
194
195
196
197
198
199
200
201
202
203
204
205
206
207
208
209
210
211
212
213
214
215
216
217
218
219
220
221
222
223
224
225
226
227
228
229
230
231
232
233
234
235
236
237
238
239
240
241
242
243
244
245
246
247
248
249
250
251
252
253
254
255
256
257
258
259
260
261
262
263
264
265
266
267
268
269
270
271
272
273
274
275
276
277
278
279
280
281
282
283
284
285
286
287
288
289
290
291
292
293
294
295
296
297
298
299
300
301
302
303
304
305
306