<?xml version='1.0' encoding='UTF-8'?>
<VTKFile xmlns='VTK' byte_order='LittleEndian' version='0.1' type='UnstructuredGrid'>
<UnstructuredGrid>
<Piece NumberOfCells='584' NumberOfPoints='584'>
<Points>
<DataArray NumberOfComponents='3' type='Float32' Name='Position' format='ascii'>
-0.075000 -0.075000 0.000000
-0.075000 -0.050000 0.000000
-0.075000 -0.025000 0.000000
-0.075000 0.000000 0.000000
-0.075000 0.025000 0.000000
-0.075000 0.050000 0.000000
-0.075000 0.075000 0.000000
-0.075000 0.100000 0.000000
-0.075000 0.125000 0.000000
-0.075000 0.150000 0.000000
-0.075000 0.175000 0.000000
-0.075000 0.200000 0.000000
-0.075000 0.225000 0.000000
-0.075000 0.250000 0.000000
-0.075000 0.275000 0.000000
-0.075000 0.300000 0.000000
-0.075000 0.325000 0.000000
-0.075000 0.350000 0.000000
-0.075000 0.375000 0.000000
-0.075000 0.400000 0.000000
-0.075000 0.425000 0.000000
-0.075000 0.450000 0.000000
-0.075000 0.475000 0.000000
-0.075000 0.500000 0.000000
-0.075000 0.525000 0.000000
-0.075000 0.550000 0.000000
-0.075000 0.575000 0.000000
-0.075000 0.600000 0.000000
-0.050000 -0.075000 0.000000
-0.050000 -0.050000 0.000000
-0.050000 -0.025000 0.000000
-0.050000 0.000000 0.000000
-0.050000 0.025000 0.000000
-0.050000 0.050000 0.000000
-0.050000 0.075000 0.000000
-0.050000 0.100000 0.000000
-0.050000 0.125000 0.000000
-0.050000 0.150000 0.000000
-0.050000 0.175000 0.000000
-0.050000 0.200000 0.000000
-0.050000 0.225000 0.000000
-0.050000 0.250000 0.000000
-0.050000 0.275000 0.000000
-0.050000 0.300000 0.000000
-0.050000 0.325000 0.000000
-0.050000 0.350000 0.000000
-0.050000 0.375000 0.000000
-0.050000 0.400000 0.000000
-0.050000 0.425000 0.000000
-0.050000 0.450000 0.000000
-0.050000 0.475000 0.000000
-0.050000 0.500000 0.000000
-0.050000 0.525000 0.000000
-0.050000 0.550000 0.000000
-0.050000 0.575000 0.000000
-0.050000 0.600000 0.000000
-0.025000 -0.075000 0.000000
-0.025000 -0.050000 0.000000
-0.025000 -0.025000 0.000000
-0.025000 0.000000 0.000000
-0.025000 0.025000 0.000000
-0.025000 0.050000 0.000000
-0.025000 0.075000 0.000000
-0.025000 0.100000 0.000000
-0.025000 0.125000 0.000000
-0.025000 0.150000 0.000000
-0.025000 0.175000 0.000000
-0.025000 0.200000 0.000000
-0.025000 0.225000 0.000000
-0.025000 0.250000 0.000000
-0.025000 0.275000 0.000000
-0.025000 0.300000 0.000000
-0.025000 0.325000 0.000000
-0.025000 0.350000 0.000000
-0.025000 0.375000 0.000000
-0.025000 0.400000 0.000000
-0.025000 0.425000 0.000000
-0.025000 0.450000 0.000000
-0.025000 0.475000 0.000000
-0.025000 0.500000 0.000000
-0.025000 0.525000 0.000000
-0.025000 0.550000 0.000000
-0.025000 0.575000 0.000000
-0.025000 0.600000 0.000000
0.000000 -0.075000 0.000000
0.000000 -0.050000 0.000000
0.000000 -0.025000 0.000000
0.000000 0.000000 0.000000
0.000000 0.025000 0.000000
0.000000 0.050000 0.000000
0.000000 0.075000 0.000000
0.000000 0.100000 0.000000
0.000000 0.125000 0.000000
0.000000 0.150000 0.000000
0.000000 0.175000 0.000000
0.000000 0.200000 0.000000
0.000000 0.225000 0.000000
0.000000 0.250000 0.000000
0.000000 0.275000 0.000000
0.000000 0.300000 0.000000
0.000000 0.325000 0.000000
0.000000 0.350000 0.000000
0.000000 0.375000 0.000000
0.000000 0.400000 0.000000
0.000000 0.425000 0.000000
0.000000 0.450000 0.000000
0.000000 0.475000 0.000000
0.000000 0.500000 0.000000
0.000000 0.525000 0.000000
0.000000 0.550000 0.000000
0.000000 0.575000 0.000000
0.000000 0.600000 0.000000
0.025000 -0.075000 0.000000
0.025000 -0.050000 0.000000
0.025000 -0.025000 0.000000
0.025000 0.000000 0.000000
0.173834 0.023961 0.000000
0.151826 0.028172 0.000000
0.126550 0.023360 0.000000
0.086462 0.020402 0.000000
0.193159 0.043453 0.000000
0.041147 0.020206 0.000000
0.245233 0.060024 0.000000
0.169343 0.048594 0.000000
0.112588 0.037129 0.000000
0.082731 0.040527 0.000000
0.143714 0.061483 0.000000
0.124523 0.056934 0.000000
0.059810 0.039650 0.000000
0.022223 0.034810 0.000000
0.030442 0.056510 0.000000
0.030269 0.079451 0.000000
0.065365 0.079401 0.000000
0.024586 0.099998 0.000000
0.025682 0.120738 0.000000
0.050473 0.105052 0.000000
0.050000 -0.075000 0.000000
0.050000 -0.050000 0.000000
0.050000 -0.025000 0.000000
0.050000 0.000000 0.000000
0.206751 0.022959 0.000000
0.232368 0.050587 0.000000
0.327407 0.071226 0.000000
0.348184 0.041428 0.000000
0.308203 0.085603 0.000000
0.316266 0.104124 0.000000
0.291380 0.061899 0.000000
0.418438 0.063870 0.000000
0.206341 0.063424 0.000000
0.254165 0.022305 0.000000
0.278940 0.075101 0.000000
0.271510 0.044516 0.000000
0.053665 0.059059 0.000000
0.253830 0.083364 0.000000
0.105913 0.080085 0.000000
0.168484 0.071396 0.000000
0.094609 0.063901 0.000000
0.145550 0.086922 0.000000
0.074026 0.105292 0.000000
0.086039 0.089753 0.000000
0.075000 -0.075000 0.000000
0.075000 -0.050000 0.000000
0.075000 -0.025000 0.000000
0.075000 0.000000 0.000000
0.227994 0.028780 0.000000
0.323539 0.041514 0.000000
0.322072 0.021175 0.000000
0.299780 0.040096 0.000000
0.426778 0.041828 0.000000
0.524324 0.024296 0.000000
0.549783 0.022786 0.000000
0.348347 0.067348 0.000000
0.439958 0.087240 0.000000
0.475879 0.085359 0.000000
0.375004 0.058326 0.000000
0.262575 0.096327 0.000000
0.230493 0.103425 0.000000
0.215163 0.100661 0.000000
0.200226 0.078643 0.000000
0.157955 0.096428 0.000000
0.175139 0.101111 0.000000
0.278632 0.113913 0.000000
0.242991 0.134560 0.000000
0.117224 0.100240 0.000000
0.100000 -0.075000 0.000000
0.100000 -0.050000 0.000000
0.100000 -0.025000 0.000000
0.100000 0.000000 0.000000
0.390901 0.030549 0.000000
0.356026 0.023596 0.000000
0.496405 0.023052 0.000000
0.691780 0.038553 0.000000
0.280303 0.024784 0.000000
0.598606 0.022027 0.000000
0.603028 0.044776 0.000000
0.577995 0.058775 0.000000
0.526384 0.051975 0.000000
0.552506 0.043035 0.000000
0.391295 0.052284 0.000000
0.407701 0.021492 0.000000
0.442099 0.058628 0.000000
0.460081 0.103670 0.000000
0.369692 0.083919 0.000000
0.198265 0.109218 0.000000
0.406461 0.088204 0.000000
0.386062 0.096012 0.000000
0.312568 0.126427 0.000000
0.293619 0.116257 0.000000
0.125000 -0.075000 0.000000
0.125000 -0.050000 0.000000
0.125000 -0.025000 0.000000
0.125000 0.000000 0.000000
0.728527 0.018953 0.000000
0.580762 0.032950 0.000000
0.904062 0.049918 0.000000
0.883736 0.023844 0.000000
0.884633 0.055491 0.000000
0.445165 0.020705 0.000000
0.666160 0.043950 0.000000
0.723909 0.044220 0.000000
0.680479 0.021956 0.000000
0.584377 0.075586 0.000000
0.709894 0.077587 0.000000
0.641522 0.038117 0.000000
0.529558 0.077796 0.000000
0.423066 0.090878 0.000000
0.365782 0.107474 0.000000
0.469092 0.051962 0.000000
0.612808 0.069409 0.000000
0.340636 0.092873 0.000000
0.490726 0.072525 0.000000
0.321570 0.138790 0.000000
0.150000 -0.075000 0.000000
0.150000 -0.050000 0.000000
0.150000 -0.025000 0.000000
0.150000 0.000000 0.000000
0.960796 0.071003 0.000000
0.910298 0.026347 0.000000
0.964771 0.118171 0.000000
0.934578 0.159745 0.000000
0.950913 0.030031 0.000000
0.947797 0.212134 0.000000
0.865004 0.036059 0.000000
0.922955 0.062673 0.000000
0.848947 0.025211 0.000000
0.815773 0.071649 0.000000
0.825461 0.025584 0.000000
0.636773 0.020028 0.000000
0.755321 0.033642 0.000000
0.782421 0.020458 0.000000
0.627872 0.057416 0.000000
0.543444 0.090190 0.000000
0.497236 0.039802 0.000000
0.552962 0.066879 0.000000
0.506502 0.068069 0.000000
0.458862 0.037843 0.000000
0.175000 -0.075000 0.000000
0.175000 -0.050000 0.000000
0.175000 -0.025000 0.000000
0.175000 0.000000 0.000000
0.868655 0.306676 0.000000
0.976082 0.059369 0.000000
1.003456 0.117681 0.000000
0.999300 0.068493 0.000000
1.004650 0.042427 0.000000
0.980495 0.166481 0.000000
0.990471 0.020616 0.000000
0.983993 0.081809 0.000000
0.958537 0.156907 0.000000
0.969252 0.029306 0.000000
0.908771 0.085810 0.000000
0.953732 0.108072 0.000000
0.851871 0.070026 0.000000
0.787502 0.057167 0.000000
0.721371 0.065751 0.000000
0.875474 0.075931 0.000000
0.802861 0.037588 0.000000
0.664737 0.060050 0.000000
0.613661 0.105132 0.000000
0.628597 0.081651 0.000000
0.200000 -0.075000 0.000000
0.200000 -0.050000 0.000000
0.200000 -0.025000 0.000000
0.200000 0.000000 0.000000
0.920629 0.634226 0.000000
0.995674 0.160644 0.000000
0.949101 0.437713 0.000000
0.995420 0.185890 0.000000
0.953565 0.282064 0.000000
0.954589 0.308388 0.000000
0.962009 0.323805 0.000000
1.000541 0.240414 0.000000
0.987647 0.135561 0.000000
0.928865 0.292708 0.000000
0.994907 0.217634 0.000000
0.930859 0.027015 0.000000
0.957073 0.245710 0.000000
0.940457 0.069073 0.000000
0.799207 0.083951 0.000000
0.872661 0.096658 0.000000
0.919214 0.114590 0.000000
0.824815 0.045459 0.000000
0.774315 0.045090 0.000000
0.700419 0.066321 0.000000
0.225000 -0.075000 0.000000
0.225000 -0.050000 0.000000
0.225000 -0.025000 0.000000
0.225000 0.000000 0.000000
0.983745 0.281563 0.000000
0.973808 0.937192 0.000000
0.979801 0.256783 0.000000
0.903200 0.395976 0.000000
0.892402 0.258083 0.000000
0.913326 0.432803 0.000000
0.963677 0.436293 0.000000
0.992460 0.341765 0.000000
0.998740 0.280908 0.000000
0.965480 0.359020 0.000000
0.988135 0.327345 0.000000
0.942255 0.367115 0.000000
0.854335 0.293169 0.000000
0.904624 0.294106 0.000000
0.969946 0.199229 0.000000
0.979561 0.230659 0.000000
0.953546 0.199981 0.000000
0.932841 0.096905 0.000000
0.853866 0.085722 0.000000
0.746539 0.052186 0.000000
0.250000 -0.075000 0.000000
0.250000 -0.050000 0.000000
0.250000 -0.025000 0.000000
0.250000 0.000000 0.000000
0.988447 0.854950 0.000000
0.907008 0.770206 0.000000
0.923652 0.472168 0.000000
0.951932 0.477280 0.000000
0.855479 0.857881 0.000000
0.985132 0.539856 0.000000
0.853323 0.752370 0.000000
0.911747 0.667244 0.000000
0.826764 0.455765 0.000000
0.973210 0.418143 0.000000
0.898748 0.306679 0.000000
0.926111 0.338105 0.000000
0.950428 0.389170 0.000000
0.789836 0.253338 0.000000
0.926180 0.317519 0.000000
0.900364 0.171710 0.000000
0.944141 0.258974 0.000000
0.987052 0.107738 0.000000
0.939900 0.147168 0.000000
0.908537 0.105877 0.000000
0.275000 -0.075000 0.000000
0.275000 -0.050000 0.000000
0.275000 -0.025000 0.000000
0.275000 0.000000 0.000000
0.300000 -0.075000 0.000000
0.300000 -0.050000 0.000000
0.300000 -0.025000 0.000000
0.300000 0.000000 0.000000
0.325000 -0.075000 0.000000
0.325000 -0.050000 0.000000
0.325000 -0.025000 0.000000
0.325000 0.000000 0.000000
0.350000 -0.075000 0.000000
0.350000 -0.050000 0.000000
0.350000 -0.025000 0.000000
0.350000 0.000000 0.000000
0.375000 -0.075000 0.000000
0.375000 -0.050000 0.000000
0.375000 -0.025000 0.000000
0.375000 0.000000 0.000000
0.400000 -0.075000 0.000000
0.400000 -0.050000 0.000000
0.400000 -0.025000 0.000000
0.400000 0.000000 0.000000
0.425000 -0.075000 0.000000
0.425000 -0.050000 0.000000
0.425000 -0.025000 0.000000
0.425000 0.000000 0.000000
0.450000 -0.075000 0.000000
0.450000 -0.050000 0.000000
0.450000 -0.025000 0.000000
0.450000 0.000000 0.000000
0.475000 -0.075000 0.000000
0.475000 -0.050000 0.000000
0.475000 -0.025000 0.000000
0.475000 0.000000 0.000000
0.500000 -0.075000 0.000000
0.500000 -0.050000 0.000000
0.500000 -0.025000 0.000000
0.500000 0.000000 0.000000
0.525000 -0.075000 0.000000
0.525000 -0.050000 0.000000
0.525000 -0.025000 0.000000
0.525000 0.000000 0.000000
0.550000 -0.075000 0.000000
0.550000 -0.050000 0.000000
0.550000 -0.025000 0.000000
0.550000 0.000000 0.000000
0.575000 -0.075000 0.000000
0.575000 -0.050000 0.000000
0.575000 -0.025000 0.000000
0.575000 0.000000 0.000000
0.600000 -0.075000 0.000000
0.600000 -0.050000 0.000000
0.600000 -0.025000 0.000000
0.600000 0.000000 0.000000
0.625000 -0.075000 0.000000
0.625000 -0.050000 0.000000
0.625000 -0.025000 0.000000
0.625000 0.000000 0.000000
0.650000 -0.075000 0.000000
0.650000 -0.050000 0.000000
0.650000 -0.025000 0.000000
0.650000 0.000000 0.000000
0.675000 -0.075000 0.000000
0.675000 -0.050000 0.000000
0.675000 -0.025000 0.000000
0.675000 0.000000 0.000000
0.700000 -0.075000 0.000000
0.700000 -0.050000 0.000000
0.700000 -0.025000 0.000000
0.700000 0.000000 0.000000
0.725000 -0.075000 0.000000
0.725000 -0.050000 0.000000
0.725000 -0.025000 0.000000
0.725000 0.000000 0.000000
0.750000 -0.075000 0.000000
0.750000 -0.050000 0.000000
0.750000 -0.025000 0.000000
0.750000 0.000000 0.000000
0.775000 -0.075000 0.000000
0.775000 -0.050000 0.000000
0.775000 -0.025000 0.000000
0.775000 0.000000 0.000000
0.800000 -0.075000 0.000000
0.800000 -0.050000 0.000000
0.800000 -0.025000 0.000000
0.800000 0.000000 0.000000
0.825000 -0.075000 0.000000
0.825000 -0.050000 0.000000
0.825000 -0.025000 0.000000
0.825000 0.000000 0.000000
0.850000 -0.075000 0.000000
0.850000 -0.050000 0.000000
0.850000 -0.025000 0.000000
0.850000 0.000000 0.000000
0.875000 -0.075000 0.000000
0.875000 -0.050000 0.000000
0.875000 -0.025000 0.000000
0.875000 0.000000 0.000000
0.900000 -0.075000 0.000000
0.900000 -0.050000 0.000000
0.900000 -0.025000 0.000000
0.900000 0.000000 0.000000
0.925000 -0.075000 0.000000
0.925000 -0.050000 0.000000
0.925000 -0.025000 0.000000
0.925000 0.000000 0.000000
0.950000 -0.075000 0.000000
0.950000 -0.050000 0.000000
0.950000 -0.025000 0.000000
0.950000 0.000000 0.000000
0.975000 -0.075000 0.000000
0.975000 -0.050000 0.000000
0.975000 -0.025000 0.000000
0.975000 0.000000 0.000000
1.000000 -0.075000 0.000000
1.000000 -0.050000 0.000000
1.000000 -0.025000 0.000000
1.000000 0.000000 0.000000
1.025000 -0.075000 0.000000
1.025000 -0.050000 0.000000
1.025000 -0.025000 0.000000
1.025000 0.000000 0.000000
1.025000 0.025000 0.000000
1.025000 0.050000 0.000000
1.025000 0.075000 0.000000
1.025000 0.100000 0.000000
1.025000 0.125000 0.000000
1.025000 0.150000 0.000000
1.025000 0.175000 0.000000
1.025000 0.200000 0.000000
1.025000 0.225000 0.000000
1.025000 0.250000 0.000000
1.025000 0.275000 0.000000
1.025000 0.300000 0.000000
1.025000 0.325000 0.000000
1.025000 0.350000 0.000000
1.025000 0.375000 0.000000
1.025000 0.400000 0.000000
1.025000 0.425000 0.000000
1.025000 0.450000 0.000000
1.025000 0.475000 0.000000
1.025000 0.500000 0.000000
1.025000 0.525000 0.000000
1.025000 0.550000 0.000000
1.025000 0.575000 0.000000
1.025000 0.600000 0.000000
1.050000 -0.075000 0.000000
1.050000 -0.050000 0.000000
1.050000 -0.025000 0.000000
1.050000 0.000000 0.000000
1.050000 0.025000 0.000000
1.050000 0.050000 0.000000
1.050000 0.075000 0.000000
1.050000 0.100000 0.000000
1.050000 0.125000 0.000000
1.050000 0.150000 0.000000
1.050000 0.175000 0.000000
1.050000 0.200000 0.000000
1.050000 0.225000 0.000000
1.050000 0.250000 0.000000
1.050000 0.275000 0.000000
1.050000 0.300000 0.000000
1.050000 0.325000 0.000000
1.050000 0.350000 0.000000
1.050000 0.375000 0.000000
1.050000 0.400000 0.000000
1.050000 0.425000 0.000000
1.050000 0.450000 0.000000
1.050000 0.475000 0.000000
1.050000 0.500000 0.000000
1.050000 0.525000 0.000000
1.050000 0.550000 0.000000
1.050000 0.575000 0.000000
1.050000 0.600000 0.000000
1.075000 -0.075000 0.000000
1.075000 -0.050000 0.000000
1.075000 -0.025000 0.000000
1.075000 0.000000 0.000000
1.075000 0.025000 0.000000
1.075000 0.050000 0.000000
1.075000 0.075000 0.000000
1.075000 0.100000 0.000000
1.075000 0.125000 0.000000
1.075000 0.150000 0.000000
1.075000 0.175000 0.000000
1.075000 0.200000 0.000000
1.075000 0.225000 0.000000
1.075000 0.250000 0.000000
1.075000 0.275000 0.000000
1.075000 0.300000 0.000000
1.075000 0.325000 0.000000
1.075000 0.350000 0.000000
1.075000 0.375000 0.000000
1.075000 0.400000 0.000000
1.075000 0.425000 0.000000
1.075000 0.450000 0.000000
1.075000 0.475000 0.000000
1.075000 0.500000 0.000000
1.075000 0.525000 0.000000
1.075000 0.550000 0.000000
1.075000 0.575000 0.000000
1.075000 0.600000 0.000000
1.100000 -0.075000 0.000000
1.100000 -0.050000 0.000000
1.100000 -0.025000 0.000000
1.100000 0.000000 0.000000
1.100000 0.025000 0.000000
1.100000 0.050000 0.000000
1.100000 0.075000 0.000000
1.100000 0.100000 0.000000
1.100000 0.125000 0.000000
1.100000 0.150000 0.000000
1.100000 0.175000 0.000000
1.100000 0.200000 0.000000
1.100000 0.225000 0.000000
1.100000 0.250000 0.000000
1.100000 0.275000 0.000000
1.100000 0.300000 0.000000
1.100000 0.325000 0.000000
1.100000 0.350000 0.000000
1.100000 0.375000 0.000000
1.100000 0.400000 0.000000
1.100000 0.425000 0.000000
1.100000 0.450000 0.000000
1.100000 0.475000 0.000000
1.100000 0.500000 0.000000
1.100000 0.525000 0.000000
1.100000 0.550000 0.000000
1.100000 0.575000 0.000000
1.100000 0.600000 0.000000
</DataArray>
</Points>
<PointData>
<DataArray NumberOfComponents='1' type='Int32' Name='ParticleType' format='ascii'>
3
3
3
3
3
3
3
3
3
3
3
3
3
3
3
3
3
3
3
3
3
3
3
3
3
3
2
2
3
3
3
3
3
3
3
3
3
3
3
3
3
3
3
3
3
3
3
3
3
3
3
3
3
3
2
2
3
3
2
2
2
2
2
2
2
2
2
2
2
2
2
2
2
2
2
2
2
2
2
2
2
2
2
2
3
3
2
2
2
2
2
2
2
2
2
2
2
2
2
2
2
2
2
2
2
2
2
2
2
2
2
2
3
3
2
2
0
0
0
0
0
0
0
0
0
0
0
0
0
0
0
0
0
0
0
0
3
3
2
2
0
0
0
0
0
0
0
0
0
0
0
0
0
0
0
0
0
0
0
0
3
3
2
2
0
0
0
0
0
0
0
0
0
0
0
0
0
0
0
0
0
0
0
0
3
3
2
2
0
0
0
0
0
0
0
0
0
0
0
0
0
0
0
0
0
0
0
0
3
3
2
2
0
0
0
0
0
0
0
0
0
0
0
0
0
0
0
0
0
0
0
0
3
3
2
2
0
0
0
0
0
0
0
0
0
0
0
0
0
0
0
0
0
0
0
0
3
3
2
2
0
0
0
0
0
0
0
0
0
0
0
0
0
0
0
0
0
0
0
0
3
3
2
2
0
0
0
0
0
0
0
0
0
0
0
0
0
0
0
0
0
0
0
0
3
3
2
2
0
0
0
0
0
0
0
0
0
0
0
0
0
0
0
0
0
0
0
0
3
3
2
2
0
0
0
0
0
0
0
0
0
0
0
0
0
0
0
0
0
0
0
0
3
3
2
2
3
3
2
2
3
3
2
2
3
3
2
2
3
3
2
2
3
3
2
2
3
3
2
2
3
3
2
2
3
3
2
2
3
3
2
2
3
3
2
2
3
3
2
2
3
3
2
2
3
3
2
2
3
3
2
2
3
3
2
2
3
3
2
2
3
3
2
2
3
3
2
2
3
3
2
2
3
3
2
2
3
3
2
2
3
3
2
2
3
3
2
2
3
3
2
2
3
3
2
2
3
3
2
2
3
3
2
2
3
3
2
2
3
3
2
2
3
3
2
2
2
2
2
2
2
2
2
2
2
2
2
2
2
2
2
2
2
2
2
2
2
2
2
2
3
3
2
2
2
2
2
2
2
2
2
2
2
2
2
2
2
2
2
2
2
2
2
2
2
2
2
2
3
3
3
3
3
3
3
3
3
3
3
3
3
3
3
3
3
3
3
3
3
3
3
3
3
3
2
2
3
3
3
3
3
3
3
3
3
3
3
3
3
3
3
3
3
3
3
3
3
3
3
3
3
3
2
2
</DataArray>
<DataArray NumberOfComponents='1' type='Float32' Name='Velocity' format='ascii'>
0.000000
0.000000
0.000000
0.000000
0.000000
0.000000
0.000000
0.000000
0.000000
0.000000
0.000000
0.000000
0.000000
0.000000
0.000000
0.000000
0.000000
0.000000
0.000000
0.000000
0.000000
0.000000
0.000000
0.000000
0.000000
0.000000
0.000000
0.000000
0.000000
0.000000
0.000000
0.000000
0.000000
0.000000
0.000000
0.000000
0.000000
0.000000
0.000000
0.000000
0.000000
0.000000
0.000000
0.000000
0.000000
0.000000
0.000000
0.000000
0.000000
0.000000
0.000000
0.000000
0.000000
0.000000
0.000000
0.000000
0.000000
0.000000
0.000000
0.000000
0.000000
0.000000
0.000000
0.000000
0.000000
0.000000
0.000000
0.000000
0.000000
0.000000
0.000000
0.000000
0.000000
0.000000
0.000000
0.000000
0.000000
0.000000
0.000000
0.000000
0.000000
0.000000
0.000000
0.000000
0.000000
0.000000
0.000000
0.000000
0.000000
0.000000
0.000000
0.000000
0.000000
0.000000
0.000000
0.000000
0.000000
0.000000
0.000000
0.000000
0.000000
0.000000
0.000000
0.000000
0.000000
0.000000
0.000000
0.000000
0.000000
0.000000
0.000000
0.000000
0.000000
0.000000
0.000000
0.000000
0.086216
0.120986
0.681691
0.234151
0.426277
0.126978
0.803613
0.632415
0.268407
0.216287
0.263611
0.270456
0.117554
0.076435
0.103751
0.236913
0.447995
0.083171
0.358919
0.251659
0.000000
0.000000
0.000000
0.000000
0.418862
0.502875
0.780996
0.747945
0.482644
0.767062
0.879380
1.052619
0.953916
0.299420
1.241462
0.406519
0.296959
1.139770
0.393193
0.506812
0.268325
0.716025
0.515177
0.534667
0.000000
0.000000
0.000000
0.000000
0.344910
0.327375
0.693493
0.625463
1.336293
0.841731
0.936483
0.829496
1.337789
1.370432
0.636997
0.700988
0.537382
0.728504
0.705038
0.756330
0.573860
0.855019
0.646896
0.301325
0.000000
0.000000
0.000000
0.000000
0.468289
0.603330
1.318410
1.862850
0.410404
1.309543
1.381850
1.274899
1.287010
1.382635
0.685421
0.555081
1.125428
1.329373
1.100287
0.816681
1.138413
1.333745
0.650412
0.920193
0.000000
0.000000
0.000000
0.000000
1.495815
1.479429
1.266400
1.321924
1.184970
0.405293
1.563801
1.841366
1.589244
1.284171
1.609052
1.532634
1.353966
1.082106
0.852764
1.062925
1.739051
1.091429
1.401425
0.779743
0.000000
0.000000
0.000000
0.000000
0.903439
0.819563
1.423362
2.110932
0.553713
1.654653
1.569110
1.176706
1.512622
1.381505
1.654881
1.627290
1.680593
1.286677
1.469983
1.386512
1.117036
1.402964
1.315376
0.807758
0.000000
0.000000
0.000000
0.000000
1.393128
0.695618
1.389561
0.641257
0.760253
1.683303
0.421229
0.737464
0.972666
0.492244
1.211218
1.238728
1.769704
1.739021
1.541152
1.619749
2.001211
1.726242
1.551776
1.664102
0.000000
0.000000
0.000000
0.000000
1.682237
1.614599
1.076320
2.268070
1.184712
1.363299
1.397857
1.849853
1.391557
1.135520
1.264214
0.785444
1.591708
0.942250
1.643623
1.865603
1.533222
1.882079
1.756602
1.634968
0.000000
0.000000
0.000000
0.000000
1.274790
2.682093
1.236294
0.683836
1.614383
0.864249
1.159016
1.237707
0.832265
1.174211
1.184572
0.958196
1.160589
0.684829
2.039147
1.787741
1.708477
1.161183
1.711918
1.527004
0.000000
0.000000
0.000000
0.000000
1.951177
2.017282
1.196312
1.280728
2.217033
1.373848
1.957870
1.660826
1.057850
1.131306
0.826662
0.790413
1.169792
1.033607
0.637631
0.547956
1.786892
0.515212
1.351413
1.453844
0.000000
0.000000
0.000000
0.000000
0.000000
0.000000
0.000000
0.000000
0.000000
0.000000
0.000000
0.000000
0.000000
0.000000
0.000000
0.000000
0.000000
0.000000
0.000000
0.000000
0.000000
0.000000
0.000000
0.000000
0.000000
0.000000
0.000000
0.000000
0.000000
0.000000
0.000000
0.000000
0.000000
0.000000
0.000000
0.000000
0.000000
0.000000
0.000000
0.000000
0.000000
0.000000
0.000000
0.000000
0.000000
0.000000
0.000000
0.000000
0.000000
0.000000
0.000000
0.000000
0.000000
0.000000
0.000000
0.000000
0.000000
0.000000
0.000000
0.000000
0.000000
0.000000
0.000000
0.000000
0.000000
0.000000
0.000000
0.000000
0.000000
0.000000
0.000000
0.000000
0.000000
0.000000
0.000000
0.000000
0.000000
0.000000
0.000000
0.000000
0.000000
0.000000
0.000000
0.000000
0.000000
0.000000
0.000000
0.000000
0.000000
0.000000
0.000000
0.000000
0.000000
0.000000
0.000000
0.000000
0.000000
0.000000
0.000000
0.000000
0.000000
0.000000
0.000000
0.000000
0.000000
0.000000
0.000000
0.000000
0.000000
0.000000
0.000000
0.000000
0.000000
0.000000
0.000000
0.000000
0.000000
0.000000
0.000000
0.000000
0.000000
0.000000
0.000000
0.000000
0.000000
0.000000
0.000000
0.000000
0.000000
0.000000
0.000000
0.000000
0.000000
0.000000
0.000000
0.000000
0.000000
0.000000
0.000000
0.000000
0.000000
0.000000
0.000000
0.000000
0.000000
0.000000
0.000000
0.000000
0.000000
0.000000
0.000000
0.000000
0.000000
0.000000
0.000000
0.000000
0.000000
0.000000
0.000000
0.000000
0.000000
0.000000
0.000000
0.000000
0.000000
0.000000
0.000000
0.000000
0.000000
0.000000
0.000000
0.000000
0.000000
0.000000
0.000000
0.000000
0.000000
0.000000
0.000000
0.000000
0.000000
0.000000
0.000000
0.000000
0.000000
0.000000
0.000000
0.000000
0.000000
0.000000
0.000000
0.000000
0.000000
0.000000
0.000000
0.000000
0.000000
0.000000
0.000000
0.000000
0.000000
0.000000
0.000000
0.000000
0.000000
0.000000
0.000000
0.000000
0.000000
0.000000
0.000000
0.000000
0.000000
0.000000
0.000000
0.000000
0.000000
0.000000
0.000000
0.000000
0.000000
0.000000
0.000000
0.000000
0.000000
0.000000
0.000000
0.000000
0.000000
0.000000
0.000000
0.000000
</DataArray>
<DataArray NumberOfComponents='1' type='Float32' Name='pressure' format='ascii'>
0.000000
0.000000
0.000000
0.000000
0.000000
0.000000
0.000000
0.000000
0.000000
0.000000
0.000000
0.000000
0.000000
0.000000
0.000000
0.000000
0.000000
0.000000
0.000000
0.000000
0.000000
0.000000
0.000000
0.000000
0.000000
0.000000
0.000000
0.000000
0.000000
0.000000
0.000000
0.000000
0.000000
0.000000
0.000000
0.000000
0.000000
0.000000
0.000000
0.000000
0.000000
0.000000
0.000000
0.000000
0.000000
0.000000
0.000000
0.000000
0.000000
0.000000
0.000000
0.000000
0.000000
0.000000
0.000000
0.000000
0.000000
0.000000
1002.762024
922.692017
1381.686279
633.622253
0.000000
206.489029
0.000000
0.000000
0.000000
0.000000
0.000000
0.000000
0.000000
0.000000
0.000000
0.000000
0.000000
0.000000
0.000000
0.000000
0.000000
0.000000
0.000000
0.000000
0.000000
0.000000
0.000000
0.000000
1214.776001
196.283981
810.862061
0.000000
0.000000
1172.013428
0.000000
0.000000
0.000000
0.000000
0.000000
0.000000
0.000000
0.000000
0.000000
0.000000
0.000000
0.000000
0.000000
0.000000
0.000000
0.000000
0.000000
0.000000
0.000000
0.000000
0.000000
0.000000
2361.395996
238.785477
1224.009033
0.000000
1044.255371
2406.158203
98.164673
1274.260620
583.494385
615.939148
912.115540
276.302917
753.938171
0.000000
405.400909
2472.448242
881.671448
0.000000
310.603729
1213.563721
0.000000
0.000000
0.000000
0.000000
3662.010742
1666.972168
1709.761108
1340.910645
1548.024292
1989.295654
2317.466797
2357.584961
4763.619629
1036.591431
572.215088
563.174316
4358.102051
1161.479004
1346.167725
1504.496216
796.794006
1501.216919
1983.510864
0.000000
0.000000
0.000000
0.000000
0.000000
3714.450684
1759.448120
1419.676392
3633.764160
4093.630859
3161.302734
1006.192383
0.000000
1464.696655
2798.462891
0.000000
0.000000
1100.765015
461.609222
0.000000
0.000000
114.256401
0.000000
0.000000
0.000000
0.000000
0.000000
0.000000
0.000000
3349.364258
2499.757568
100.827873
0.000000
819.665894
0.000000
2082.278320
686.319092
256.969391
510.299927
0.000000
1811.575073
1847.983643
2668.453369
0.000000
0.000000
840.928772
0.000000
0.000000
0.000000
0.000000
2244.998047
0.000000
0.000000
2373.758545
1700.327515
0.000000
1413.497070
1642.889648
969.539124
1530.776001
0.000000
609.914368
0.000000
0.000000
0.000000
0.000000
702.597717
0.000000
0.000000
0.000000
0.000000
0.000000
0.000000
0.000000
0.000000
0.000000
0.000000
640.354492
0.000000
2146.955566
3406.990967
189.121277
0.000000
3126.615234
0.000000
49.070984
547.993286
1607.182373
0.000000
2101.334717
1853.888672
400.741241
1148.263062
0.000000
0.000000
308.092407
0.000000
0.000000
598.839355
0.000000
0.000000
1838.586548
1717.221436
0.000000
1598.946167
2246.644775
1230.900757
1911.264404
435.906769
4335.755371
1057.724609
0.000000
1954.508057
0.000000
948.390686
0.000000
0.000000
0.000000
1462.186646
1946.227783
0.000000
0.000000
0.000000
0.000000
0.000000
2342.953613
2260.069824
0.000000
196.659378
0.000000
0.000000
0.000000
0.000000
0.000000
0.000000
0.000000
0.000000
0.000000
2134.931641
0.000000
1051.697510
0.000000
0.000000
0.000000
0.000000
0.000000
0.000000
0.000000
0.000000
1656.735107
1199.755371
0.000000
0.000000
0.000000
0.000000
0.000000
0.000000
0.000000
0.000000
0.000000
0.000000
0.000000
0.000000
0.000000
0.000000
0.000000
1415.870361
0.000000
1978.820068
0.000000
0.000000
0.000000
0.000000
3003.760986
3196.216553
0.000000
0.000000
0.000000
0.000000
0.000000
0.000000
0.000000
0.000000
0.000000
0.000000
0.000000
0.000000
0.000000
0.000000
0.000000
0.000000
0.000000
499.310913
0.000000
0.000000
0.000000
0.000000
2381.631592
1750.927002
0.000000
0.000000
1896.540405
0.000000
0.000000
0.000000
3613.458496
4434.385254
0.000000
0.000000
2157.414307
513.368652
0.000000
0.000000
798.286865
0.000000
0.000000
0.000000
2545.813477
1290.276978
0.000000
0.000000
2586.937988
1679.522583
0.000000
0.000000
2709.156006
0.000000
0.000000
0.000000
383.496857
0.000000
0.000000
0.000000
1988.163696
841.012695
0.000000
0.000000
2074.723389
3174.033203
0.000000
0.000000
2548.169922
2168.323730
0.000000
0.000000
977.088379
0.000000
0.000000
0.000000
2894.218994
2132.756348
0.000000
0.000000
3146.588623
1307.186157
0.000000
0.000000
2675.982666
363.369202
0.000000
0.000000
2122.982178
0.000000
0.000000
0.000000
1023.224731
0.000000
0.000000
0.000000
3599.650635
1307.864258
0.000000
0.000000
1908.570923
0.000000
0.000000
0.000000
2709.364258
630.616577
0.000000
0.000000
1559.327393
0.000000
0.000000
0.000000
827.193298
46.504429
0.000000
0.000000
962.612671
1841.010376
0.000000
0.000000
1101.611450
979.282593
0.000000
0.000000
591.564392
452.594849
0.000000
0.000000
716.494507
1066.314453
0.000000
0.000000
1680.064575
2175.221680
0.000000
0.000000
4209.516113
4270.507812
0.000000
0.000000
5352.947754
5536.799316
0.000000
0.000000
4033.202393
2988.473389
1825.902222
4434.739746
0.000000
0.000000
0.000000
0.000000
0.000000
0.000000
0.000000
0.000000
0.000000
0.000000
0.000000
0.000000
0.000000
0.000000
0.000000
0.000000
0.000000
0.000000
0.000000
0.000000
0.000000
0.000000
0.000000
0.000000
3780.779053
3590.531738
3768.700439
4132.791992
1369.084595
986.323364
1304.630371
0.000000
0.000000
0.000000
0.000000
0.000000
0.000000
0.000000
0.000000
0.000000
0.000000
0.000000
0.000000
0.000000
0.000000
0.000000
0.000000
0.000000
0.000000
0.000000
0.000000
0.000000
0.000000
0.000000
0.000000
0.000000
0.000000
0.000000
0.000000
0.000000
0.000000
0.000000
0.000000
0.000000
0.000000
0.000000
0.000000
0.000000
0.000000
0.000000
0.000000
0.000000
0.000000
0.000000
0.000000
0.000000
0.000000
0.000000
0.000000
0.000000
0.000000
0.000000
0.000000
0.000000
0.000000
0.000000
0.000000
0.000000
0.000000
0.000000
0.000000
0.000000
0.000000
0.000000
0.000000
0.000000
0.000000
0.000000
0.000000
0.000000
0.000000
0.000000
0.000000
0.000000
0.000000
0.000000
</DataArray>
</PointData>
<Cells>
<DataArray type='Int32' Name='connectivity' format='ascii'>
0
1
2
3
4
5
6
7
8
9
10
11
12
13
14
15
16
17
18
19
20
21
22
23
24
25
26
27
28
29
30
31
32
33
34
35
36
37
38
39
40
41
42
43
44
45
46
47
48
49
50
51
52
53
54
55
56
57
58
59
60
61
62
63
64
65
66
67
68
69
70
71
72
73
74
75
76
77
78
79
80
81
82
83
84
85
86
87
88
89
90
91
92
93
94
95
96
97
98
99
100
101
102
103
104
105
106
107
108
109
110
111
112
113
114
115
116
117
118
119
120
121
122
123
124
125
126
127
128
129
130
131
132
133
134
135
136
137
138
139
140
141
142
143
144
145
146
147
148
149
150
151
152
153
154
155
156
157
158
159
160
161
162
163
164
165
166
167
168
169
170
171
172
173
174
175
176
177
178
179
180
181
182
183
184
185
186
187
188
189
190
191
192
193
194
195
196
197
198
199
200
201
202
203
204
205
206
207
208
209
210
211
212
213
214
215
216
217
218
219
220
221
222
223
224
225
226
227
228
229
230
231
232
233
234
235
236
237
238
239
240
241
242
243
244
245
246
247
248
249
250
251
252
253
254
255
256
257
258
259
260
261
262
263
264
265
266
267
268
269
270
271
272
273
274
275
276
277
278
279
280
281
282
283
284
285
286
287
288
289
290
291
292
293
294
295
296
297
298
299
300
301
302
303
304
305
306
307
308
309
310
311
312
313
314
315
316
317