<?xml version='1.0' encoding='UTF-8'?>
<VTKFile xmlns='VTK' byte_order='LittleEndian' version='0.1' type='UnstructuredGrid'>
<UnstructuredGrid>
<Piece NumberOfCells='584' NumberOfPoints='584'>
<Points>
<DataArray NumberOfComponents='3' type='Float32' Name='Position' format='ascii'>
-0.075000 -0.075000 0.000000
-0.075000 -0.050000 0.000000
-0.075000 -0.025000 0.000000
-0.075000 0.000000 0.000000
-0.075000 0.025000 0.000000
-0.075000 0.050000 0.000000
-0.075000 0.075000 0.000000
-0.075000 0.100000 0.000000
-0.075000 0.125000 0.000000
-0.075000 0.150000 0.000000
-0.075000 0.175000 0.000000
-0.075000 0.200000 0.000000
-0.075000 0.225000 0.000000
-0.075000 0.250000 0.000000
-0.075000 0.275000 0.000000
-0.075000 0.300000 0.000000
-0.075000 0.325000 0.000000
-0.075000 0.350000 0.000000
-0.075000 0.375000 0.000000
-0.075000 0.400000 0.000000
-0.075000 0.425000 0.000000
-0.075000 0.450000 0.000000
-0.075000 0.475000 0.000000
-0.075000 0.500000 0.000000
-0.075000 0.525000 0.000000
-0.075000 0.550000 0.000000
-0.075000 0.575000 0.000000
-0.075000 0.600000 0.000000
-0.050000 -0.075000 0.000000
-0.050000 -0.050000 0.000000
-0.050000 -0.025000 0.000000
-0.050000 0.000000 0.000000
-0.050000 0.025000 0.000000
-0.050000 0.050000 0.000000
-0.050000 0.075000 0.000000
-0.050000 0.100000 0.000000
-0.050000 0.125000 0.000000
-0.050000 0.150000 0.000000
-0.050000 0.175000 0.000000
-0.050000 0.200000 0.000000
-0.050000 0.225000 0.000000
-0.050000 0.250000 0.000000
-0.050000 0.275000 0.000000
-0.050000 0.300000 0.000000
-0.050000 0.325000 0.000000
-0.050000 0.350000 0.000000
-0.050000 0.375000 0.000000
-0.050000 0.400000 0.000000
-0.050000 0.425000 0.000000
-0.050000 0.450000 0.000000
-0.050000 0.475000 0.000000
-0.050000 0.500000 0.000000
-0.050000 0.525000 0.000000
-0.050000 0.550000 0.000000
-0.050000 0.575000 0.000000
-0.050000 0.600000 0.000000
-0.025000 -0.075000 0.000000
-0.025000 -0.050000 0.000000
-0.025000 -0.025000 0.000000
-0.025000 0.000000 0.000000
-0.025000 0.025000 0.000000
-0.025000 0.050000 0.000000
-0.025000 0.075000 0.000000
-0.025000 0.100000 0.000000
-0.025000 0.125000 0.000000
-0.025000 0.150000 0.000000
-0.025000 0.175000 0.000000
-0.025000 0.200000 0.000000
-0.025000 0.225000 0.000000
-0.025000 0.250000 0.000000
-0.025000 0.275000 0.000000
-0.025000 0.300000 0.000000
-0.025000 0.325000 0.000000
-0.025000 0.350000 0.000000
-0.025000 0.375000 0.000000
-0.025000 0.400000 0.000000
-0.025000 0.425000 0.000000
-0.025000 0.450000 0.000000
-0.025000 0.475000 0.000000
-0.025000 0.500000 0.000000
-0.025000 0.525000 0.000000
-0.025000 0.550000 0.000000
-0.025000 0.575000 0.000000
-0.025000 0.600000 0.000000
0.000000 -0.075000 0.000000
0.000000 -0.050000 0.000000
0.000000 -0.025000 0.000000
0.000000 0.000000 0.000000
0.000000 0.025000 0.000000
0.000000 0.050000 0.000000
0.000000 0.075000 0.000000
0.000000 0.100000 0.000000
0.000000 0.125000 0.000000
0.000000 0.150000 0.000000
0.000000 0.175000 0.000000
0.000000 0.200000 0.000000
0.000000 0.225000 0.000000
0.000000 0.250000 0.000000
0.000000 0.275000 0.000000
0.000000 0.300000 0.000000
0.000000 0.325000 0.000000
0.000000 0.350000 0.000000
0.000000 0.375000 0.000000
0.000000 0.400000 0.000000
0.000000 0.425000 0.000000
0.000000 0.450000 0.000000
0.000000 0.475000 0.000000
0.000000 0.500000 0.000000
0.000000 0.525000 0.000000
0.000000 0.550000 0.000000
0.000000 0.575000 0.000000
0.000000 0.600000 0.000000
0.025000 -0.075000 0.000000
0.025000 -0.050000 0.000000
0.025000 -0.025000 0.000000
0.025000 0.000000 0.000000
0.270981 0.053931 0.000000
0.258016 0.028336 0.000000
0.234237 0.060615 0.000000
0.193954 0.023290 0.000000
0.356988 0.023186 0.000000
0.076092 0.034019 0.000000
0.438024 0.021530 0.000000
0.282142 0.021417 0.000000
0.223896 0.021235 0.000000
0.161323 0.056072 0.000000
0.300039 0.031474 0.000000
0.197826 0.064343 0.000000
0.172661 0.029674 0.000000
0.037364 0.022997 0.000000
0.054410 0.063255 0.000000
0.028501 0.037751 0.000000
0.117643 0.028916 0.000000
0.100596 0.021641 0.000000
0.127039 0.053980 0.000000
0.149468 0.021152 0.000000
0.050000 -0.075000 0.000000
0.050000 -0.050000 0.000000
0.050000 -0.025000 0.000000
0.050000 0.000000 0.000000
0.347854 0.061806 0.000000
0.419557 0.202354 0.000000
0.424096 0.172556 0.000000
0.138520 0.159257 0.000000
0.231340 0.128623 0.000000
0.614480 0.060351 0.000000
0.363038 0.111706 0.000000
0.723801 0.042595 0.000000
0.369010 0.040074 0.000000
0.392258 0.085551 0.000000
0.240413 0.108332 0.000000
0.418954 0.054402 0.000000
0.069389 0.078994 0.000000
0.409148 0.093907 0.000000
0.249125 0.078053 0.000000
0.219250 0.104561 0.000000
0.211357 0.051121 0.000000
0.331060 0.022235 0.000000
0.139020 0.048000 0.000000
0.185035 0.053230 0.000000
0.075000 -0.075000 0.000000
0.075000 -0.050000 0.000000
0.075000 -0.025000 0.000000
0.075000 0.000000 0.000000
0.374492 0.086720 0.000000
0.344374 0.151031 0.000000
0.534309 0.029742 0.000000
0.473932 0.022409 0.000000
0.748685 0.088688 0.000000
0.798919 0.023909 0.000000
0.804074 0.050420 0.000000
0.035342 0.123259 0.000000
0.723161 0.083207 0.000000
0.781686 0.051869 0.000000
0.591597 0.025364 0.000000
0.405277 0.151192 0.000000
0.283939 0.062418 0.000000
0.366151 0.066529 0.000000
0.389414 0.025887 0.000000
0.309984 0.095510 0.000000
0.328365 0.052232 0.000000
0.207705 0.126994 0.000000
0.263879 0.084140 0.000000
0.239323 0.042398 0.000000
0.100000 -0.075000 0.000000
0.100000 -0.050000 0.000000
0.100000 -0.025000 0.000000
0.100000 0.000000 0.000000
0.632107 0.027911 0.000000
0.568523 0.022396 0.000000
0.658743 0.068370 0.000000
0.895533 0.028505 0.000000
0.394167 0.051989 0.000000
0.869436 0.021706 0.000000
0.828448 0.092893 0.000000
0.494962 0.078425 0.000000
0.825756 0.022635 0.000000
0.827284 0.049243 0.000000
0.610751 0.032222 0.000000
0.609409 0.080548 0.000000
0.766775 0.076272 0.000000
0.751295 0.049287 0.000000
0.450154 0.081132 0.000000
0.410212 0.027792 0.000000
0.675897 0.020971 0.000000
0.639627 0.112872 0.000000
0.536782 0.065378 0.000000
0.441026 0.057814 0.000000
0.125000 -0.075000 0.000000
0.125000 -0.050000 0.000000
0.125000 -0.025000 0.000000
0.125000 0.000000 0.000000
0.849437 0.069517 0.000000
0.911123 0.100470 0.000000
1.002474 0.104993 0.000000
0.916006 0.026697 0.000000
0.866402 0.154674 0.000000
0.753560 0.025999 0.000000
0.572183 0.094805 0.000000
0.781828 0.136465 0.000000
0.926653 0.083395 0.000000
0.869960 0.091371 0.000000
0.947655 0.066293 0.000000
0.743421 0.165170 0.000000
0.654535 0.032532 0.000000
0.698426 0.055202 0.000000
0.510568 0.020930 0.000000
0.736475 0.064159 0.000000
0.680840 0.093319 0.000000
0.324404 0.123895 0.000000
0.670826 0.051564 0.000000
0.273216 0.109801 0.000000
0.150000 -0.075000 0.000000
0.150000 -0.050000 0.000000
0.150000 -0.025000 0.000000
0.150000 0.000000 0.000000
0.534691 0.118690 0.000000
0.996587 0.022902 0.000000
0.908010 0.150772 0.000000
0.513795 0.074995 0.000000
0.959992 0.042730 0.000000
0.285232 0.116074 0.000000
0.988436 0.087453 0.000000
0.649653 0.089951 0.000000
0.998839 0.066974 0.000000
0.928632 0.126206 0.000000
0.929820 0.049158 0.000000
0.847234 0.033058 0.000000
0.892429 0.055918 0.000000
0.911258 0.065322 0.000000
0.874608 0.071470 0.000000
0.778208 0.096531 0.000000
0.774595 0.028201 0.000000
0.795800 0.102799 0.000000
0.795985 0.075251 0.000000
0.581269 0.078626 0.000000
0.175000 -0.075000 0.000000
0.175000 -0.050000 0.000000
0.175000 -0.025000 0.000000
0.175000 0.000000 0.000000
0.197583 0.090730 0.000000
0.875279 0.136105 0.000000
0.966755 0.141426 0.000000
0.985763 0.118926 0.000000
0.961007 0.117865 0.000000
0.375917 0.133943 0.000000
0.939905 0.023308 0.000000
0.498329 0.123636 0.000000
0.515534 0.044492 0.000000
0.970500 0.024708 0.000000
0.806161 0.148577 0.000000
0.904464 0.127614 0.000000
0.718522 0.151111 0.000000
0.963023 0.089203 0.000000
0.972817 0.062531 0.000000
0.584357 0.053390 0.000000
1.000431 0.045241 0.000000
0.705225 0.101519 0.000000
0.545139 0.135010 0.000000
0.738777 0.126666 0.000000
0.200000 -0.075000 0.000000
0.200000 -0.050000 0.000000
0.200000 -0.025000 0.000000
0.200000 0.000000 0.000000
0.626989 0.087466 0.000000
0.305026 0.127937 0.000000
0.526058 0.101354 0.000000
0.925636 0.153443 0.000000
0.492448 0.057276 0.000000
0.654396 0.116108 0.000000
0.761005 0.122043 0.000000
0.946343 0.140910 0.000000
0.706129 0.126001 0.000000
0.352325 0.118683 0.000000
0.996558 0.160880 0.000000
0.866810 0.047106 0.000000
0.069207 0.051339 0.000000
0.636311 0.053552 0.000000
0.841996 0.108586 0.000000
0.404032 0.133013 0.000000
0.869954 0.117410 0.000000
0.607135 0.123356 0.000000
0.943375 0.099081 0.000000
0.825401 0.074528 0.000000
0.225000 -0.075000 0.000000
0.225000 -0.050000 0.000000
0.225000 -0.025000 0.000000
0.225000 0.000000 0.000000
0.549761 0.158531 0.000000
0.932046 0.712967 0.000000
0.829413 0.123185 0.000000
0.303732 0.078868 0.000000
0.325664 0.067413 0.000000
0.014684 0.090407 0.000000
0.731874 0.110886 0.000000
0.996114 0.141524 0.000000
0.832681 0.146765 0.000000
0.450872 0.102258 0.000000
0.891227 0.169697 0.000000
0.294677 0.147895 0.000000
0.481130 0.041423 0.000000
0.694664 0.078254 0.000000
0.331481 0.150274 0.000000
0.547541 0.084793 0.000000
0.696333 0.034693 0.000000
0.103505 0.108853 0.000000
0.471790 0.186446 0.000000
0.495859 0.108702 0.000000
0.250000 -0.075000 0.000000
0.250000 -0.050000 0.000000
0.250000 -0.025000 0.000000
0.250000 0.000000 0.000000
0.923804 0.176514 0.000000
0.672178 0.133898 0.000000
0.595602 0.117717 0.000000
0.568690 0.132260 0.000000
0.431634 0.278865 0.000000
0.680553 0.122138 0.000000
0.528996 0.141204 0.000000
0.468309 0.080653 0.000000
0.451629 0.039231 0.000000
0.797547 0.125636 0.000000
0.422082 0.076691 0.000000
0.080661 0.160049 0.000000
0.418639 0.141943 0.000000
0.720222 0.021305 0.000000
0.563795 0.064725 0.000000
0.460702 0.119922 0.000000
0.552785 0.038801 0.000000
0.892010 0.099112 0.000000
0.113024 0.146708 0.000000
0.848432 0.148952 0.000000
0.275000 -0.075000 0.000000
0.275000 -0.050000 0.000000
0.275000 -0.025000 0.000000
0.275000 0.000000 0.000000
0.300000 -0.075000 0.000000
0.300000 -0.050000 0.000000
0.300000 -0.025000 0.000000
0.300000 0.000000 0.000000
0.325000 -0.075000 0.000000
0.325000 -0.050000 0.000000
0.325000 -0.025000 0.000000
0.325000 0.000000 0.000000
0.350000 -0.075000 0.000000
0.350000 -0.050000 0.000000
0.350000 -0.025000 0.000000
0.350000 0.000000 0.000000
0.375000 -0.075000 0.000000
0.375000 -0.050000 0.000000
0.375000 -0.025000 0.000000
0.375000 0.000000 0.000000
0.400000 -0.075000 0.000000
0.400000 -0.050000 0.000000
0.400000 -0.025000 0.000000
0.400000 0.000000 0.000000
0.425000 -0.075000 0.000000
0.425000 -0.050000 0.000000
0.425000 -0.025000 0.000000
0.425000 0.000000 0.000000
0.450000 -0.075000 0.000000
0.450000 -0.050000 0.000000
0.450000 -0.025000 0.000000
0.450000 0.000000 0.000000
0.475000 -0.075000 0.000000
0.475000 -0.050000 0.000000
0.475000 -0.025000 0.000000
0.475000 0.000000 0.000000
0.500000 -0.075000 0.000000
0.500000 -0.050000 0.000000
0.500000 -0.025000 0.000000
0.500000 0.000000 0.000000
0.525000 -0.075000 0.000000
0.525000 -0.050000 0.000000
0.525000 -0.025000 0.000000
0.525000 0.000000 0.000000
0.550000 -0.075000 0.000000
0.550000 -0.050000 0.000000
0.550000 -0.025000 0.000000
0.550000 0.000000 0.000000
0.575000 -0.075000 0.000000
0.575000 -0.050000 0.000000
0.575000 -0.025000 0.000000
0.575000 0.000000 0.000000
0.600000 -0.075000 0.000000
0.600000 -0.050000 0.000000
0.600000 -0.025000 0.000000
0.600000 0.000000 0.000000
0.625000 -0.075000 0.000000
0.625000 -0.050000 0.000000
0.625000 -0.025000 0.000000
0.625000 0.000000 0.000000
0.650000 -0.075000 0.000000
0.650000 -0.050000 0.000000
0.650000 -0.025000 0.000000
0.650000 0.000000 0.000000
0.675000 -0.075000 0.000000
0.675000 -0.050000 0.000000
0.675000 -0.025000 0.000000
0.675000 0.000000 0.000000
0.700000 -0.075000 0.000000
0.700000 -0.050000 0.000000
0.700000 -0.025000 0.000000
0.700000 0.000000 0.000000
0.725000 -0.075000 0.000000
0.725000 -0.050000 0.000000
0.725000 -0.025000 0.000000
0.725000 0.000000 0.000000
0.750000 -0.075000 0.000000
0.750000 -0.050000 0.000000
0.750000 -0.025000 0.000000
0.750000 0.000000 0.000000
0.775000 -0.075000 0.000000
0.775000 -0.050000 0.000000
0.775000 -0.025000 0.000000
0.775000 0.000000 0.000000
0.800000 -0.075000 0.000000
0.800000 -0.050000 0.000000
0.800000 -0.025000 0.000000
0.800000 0.000000 0.000000
0.825000 -0.075000 0.000000
0.825000 -0.050000 0.000000
0.825000 -0.025000 0.000000
0.825000 0.000000 0.000000
0.850000 -0.075000 0.000000
0.850000 -0.050000 0.000000
0.850000 -0.025000 0.000000
0.850000 0.000000 0.000000
0.875000 -0.075000 0.000000
0.875000 -0.050000 0.000000
0.875000 -0.025000 0.000000
0.875000 0.000000 0.000000
0.900000 -0.075000 0.000000
0.900000 -0.050000 0.000000
0.900000 -0.025000 0.000000
0.900000 0.000000 0.000000
0.925000 -0.075000 0.000000
0.925000 -0.050000 0.000000
0.925000 -0.025000 0.000000
0.925000 0.000000 0.000000
0.950000 -0.075000 0.000000
0.950000 -0.050000 0.000000
0.950000 -0.025000 0.000000
0.950000 0.000000 0.000000
0.975000 -0.075000 0.000000
0.975000 -0.050000 0.000000
0.975000 -0.025000 0.000000
0.975000 0.000000 0.000000
1.000000 -0.075000 0.000000
1.000000 -0.050000 0.000000
1.000000 -0.025000 0.000000
1.000000 0.000000 0.000000
1.025000 -0.075000 0.000000
1.025000 -0.050000 0.000000
1.025000 -0.025000 0.000000
1.025000 0.000000 0.000000
1.025000 0.025000 0.000000
1.025000 0.050000 0.000000
1.025000 0.075000 0.000000
1.025000 0.100000 0.000000
1.025000 0.125000 0.000000
1.025000 0.150000 0.000000
1.025000 0.175000 0.000000
1.025000 0.200000 0.000000
1.025000 0.225000 0.000000
1.025000 0.250000 0.000000
1.025000 0.275000 0.000000
1.025000 0.300000 0.000000
1.025000 0.325000 0.000000
1.025000 0.350000 0.000000
1.025000 0.375000 0.000000
1.025000 0.400000 0.000000
1.025000 0.425000 0.000000
1.025000 0.450000 0.000000
1.025000 0.475000 0.000000
1.025000 0.500000 0.000000
1.025000 0.525000 0.000000
1.025000 0.550000 0.000000
1.025000 0.575000 0.000000
1.025000 0.600000 0.000000
1.050000 -0.075000 0.000000
1.050000 -0.050000 0.000000
1.050000 -0.025000 0.000000
1.050000 0.000000 0.000000
1.050000 0.025000 0.000000
1.050000 0.050000 0.000000
1.050000 0.075000 0.000000
1.050000 0.100000 0.000000
1.050000 0.125000 0.000000
1.050000 0.150000 0.000000
1.050000 0.175000 0.000000
1.050000 0.200000 0.000000
1.050000 0.225000 0.000000
1.050000 0.250000 0.000000
1.050000 0.275000 0.000000
1.050000 0.300000 0.000000
1.050000 0.325000 0.000000
1.050000 0.350000 0.000000
1.050000 0.375000 0.000000
1.050000 0.400000 0.000000
1.050000 0.425000 0.000000
1.050000 0.450000 0.000000
1.050000 0.475000 0.000000
1.050000 0.500000 0.000000
1.050000 0.525000 0.000000
1.050000 0.550000 0.000000
1.050000 0.575000 0.000000
1.050000 0.600000 0.000000
1.075000 -0.075000 0.000000
1.075000 -0.050000 0.000000
1.075000 -0.025000 0.000000
1.075000 0.000000 0.000000
1.075000 0.025000 0.000000
1.075000 0.050000 0.000000
1.075000 0.075000 0.000000
1.075000 0.100000 0.000000
1.075000 0.125000 0.000000
1.075000 0.150000 0.000000
1.075000 0.175000 0.000000
1.075000 0.200000 0.000000
1.075000 0.225000 0.000000
1.075000 0.250000 0.000000
1.075000 0.275000 0.000000
1.075000 0.300000 0.000000
1.075000 0.325000 0.000000
1.075000 0.350000 0.000000
1.075000 0.375000 0.000000
1.075000 0.400000 0.000000
1.075000 0.425000 0.000000
1.075000 0.450000 0.000000
1.075000 0.475000 0.000000
1.075000 0.500000 0.000000
1.075000 0.525000 0.000000
1.075000 0.550000 0.000000
1.075000 0.575000 0.000000
1.075000 0.600000 0.000000
1.100000 -0.075000 0.000000
1.100000 -0.050000 0.000000
1.100000 -0.025000 0.000000
1.100000 0.000000 0.000000
1.100000 0.025000 0.000000
1.100000 0.050000 0.000000
1.100000 0.075000 0.000000
1.100000 0.100000 0.000000
1.100000 0.125000 0.000000
1.100000 0.150000 0.000000
1.100000 0.175000 0.000000
1.100000 0.200000 0.000000
1.100000 0.225000 0.000000
1.100000 0.250000 0.000000
1.100000 0.275000 0.000000
1.100000 0.300000 0.000000
1.100000 0.325000 0.000000
1.100000 0.350000 0.000000
1.100000 0.375000 0.000000
1.100000 0.400000 0.000000
1.100000 0.425000 0.000000
1.100000 0.450000 0.000000
1.100000 0.475000 0.000000
1.100000 0.500000 0.000000
1.100000 0.525000 0.000000
1.100000 0.550000 0.000000
1.100000 0.575000 0.000000
1.100000 0.600000 0.000000
</DataArray>
</Points>
<PointData>
<DataArray NumberOfComponents='1' type='Int32' Name='ParticleType' format='ascii'>
3
3
3
3
3
3
3
3
3
3
3
3
3
3
3
3
3
3
3
3
3
3
3
3
3
3
2
2
3
3
3
3
3
3
3
3
3
3
3
3
3
3
3
3
3
3
3
3
3
3
3
3
3
3
2
2
3
3
2
2
2
2
2
2
2
2
2
2
2
2
2
2
2
2
2
2
2
2
2
2
2
2
2
2
3
3
2
2
2
2
2
2
2
2
2
2
2
2
2
2
2
2
2
2
2
2
2
2
2
2
2
2
3
3
2
2
0
0
0
0
0
0
0
0
0
0
0
0
0
0
0
0
0
0
0
0
3
3
2
2
0
0
0
0
0
0
0
0
0
0
0
0
0
0
0
0
0
0
0
0
3
3
2
2
0
0
0
0
0
0
0
0
0
0
0
0
0
0
0
0
0
0
0
0
3
3
2
2
0
0
0
0
0
0
0
0
0
0
0
0
0
0
0
0
0
0
0
0
3
3
2
2
0
0
0
0
0
0
0
0
0
0
0
0
0
0
0
0
0
0
0
0
3
3
2
2
0
0
0
0
0
0
0
0
0
0
0
0
0
0
0
0
0
0
0
0
3
3
2
2
0
0
0
0
0
0
0
0
0
0
0
0
0
0
0
0
0
0
0
0
3
3
2
2
0
0
0
0
0
0
0
0
0
0
0
0
0
0
0
0
0
0
0
0
3
3
2
2
0
0
0
0
0
0
0
0
0
0
0
0
0
0
0
0
0
0
0
0
3
3
2
2
0
0
0
0
0
0
0
0
0
0
0
0
0
0
0
0
0
0
0
0
3
3
2
2
3
3
2
2
3
3
2
2
3
3
2
2
3
3
2
2
3
3
2
2
3
3
2
2
3
3
2
2
3
3
2
2
3
3
2
2
3
3
2
2
3
3
2
2
3
3
2
2
3
3
2
2
3
3
2
2
3
3
2
2
3
3
2
2
3
3
2
2
3
3
2
2
3
3
2
2
3
3
2
2
3
3
2
2
3
3
2
2
3
3
2
2
3
3
2
2
3
3
2
2
3
3
2
2
3
3
2
2
3
3
2
2
3
3
2
2
3
3
2
2
2
2
2
2
2
2
2
2
2
2
2
2
2
2
2
2
2
2
2
2
2
2
2
2
3
3
2
2
2
2
2
2
2
2
2
2
2
2
2
2
2
2
2
2
2
2
2
2
2
2
2
2
3
3
3
3
3
3
3
3
3
3
3
3
3
3
3
3
3
3
3
3
3
3
3
3
3
3
2
2
3
3
3
3
3
3
3
3
3
3
3
3
3
3
3
3
3
3
3
3
3
3
3
3
3
3
2
2
</DataArray>
<DataArray NumberOfComponents='1' type='Float32' Name='Velocity' format='ascii'>
0.000000
0.000000
0.000000
0.000000
0.000000
0.000000
0.000000
0.000000
0.000000
0.000000
0.000000
0.000000
0.000000
0.000000
0.000000
0.000000
0.000000
0.000000
0.000000
0.000000
0.000000
0.000000
0.000000
0.000000
0.000000
0.000000
0.000000
0.000000
0.000000
0.000000
0.000000
0.000000
0.000000
0.000000
0.000000
0.000000
0.000000
0.000000
0.000000
0.000000
0.000000
0.000000
0.000000
0.000000
0.000000
0.000000
0.000000
0.000000
0.000000
0.000000
0.000000
0.000000
0.000000
0.000000
0.000000
0.000000
0.000000
0.000000
0.000000
0.000000
0.000000
0.000000
0.000000
0.000000
0.000000
0.000000
0.000000
0.000000
0.000000
0.000000
0.000000
0.000000
0.000000
0.000000
0.000000
0.000000
0.000000
0.000000
0.000000
0.000000
0.000000
0.000000
0.000000
0.000000
0.000000
0.000000
0.000000
0.000000
0.000000
0.000000
0.000000
0.000000
0.000000
0.000000
0.000000
0.000000
0.000000
0.000000
0.000000
0.000000
0.000000
0.000000
0.000000
0.000000
0.000000
0.000000
0.000000
0.000000
0.000000
0.000000
0.000000
0.000000
0.000000
0.000000
0.000000
0.000000
0.592369
0.260955
0.801837
0.098102
0.449502
0.552692
0.396027
0.252125
0.116527
0.398296
0.310472
0.465630
0.078559
0.521967
1.170464
0.670861
0.246802
0.368746
0.419450
0.238264
0.000000
0.000000
0.000000
0.000000
0.714225
1.571388
1.116916
2.405257
2.051273
0.497440
1.276906
0.307854
0.651155
0.744421
1.636170
0.604533
0.518485
1.153788
1.432654
1.559021
0.086871
0.408459
0.188631
0.280298
0.000000
0.000000
0.000000
0.000000
0.709278
1.589820
0.066041
0.933685
0.648737
0.361487
0.547027
2.291433
0.855762
0.387666
0.517010
1.249585
0.300109
0.444417
0.867776
1.569979
0.568832
2.037717
1.435632
0.354978
0.000000
0.000000
0.000000
0.000000
0.563277
0.750983
0.982694
0.251726
0.524436
0.303683
0.307370
1.624768
0.554489
0.325891
0.581374
1.172900
0.718446
0.376631
0.793012
0.675307
0.463107
2.057834
0.390386
0.984315
0.000000
0.000000
0.000000
0.000000
0.657287
0.262507
0.011089
0.248955
0.620520
0.473321
1.438729
0.889114
0.150575
0.499044
0.238177
0.753222
0.212637
0.487817
0.171954
0.577629
1.159133
1.399922
0.159201
1.972689
0.000000
0.000000
0.000000
0.000000
1.233008
0.226044
1.019330
0.986534
0.292723
1.788428
0.279329
0.655045
0.167312
0.268201
0.538021
0.415689
0.572115
0.115065
0.446355
0.514754
0.372762
0.536706
0.396690
0.903218
0.000000
0.000000
0.000000
0.000000
1.883477
0.954447
0.459347
0.319560
0.320818
1.250259
0.155446
1.536562
0.921351
0.266932
0.548800
0.872655
0.847011
0.380380
0.071784
0.111420
0.337514
0.621094
1.524188
0.486373
0.000000
0.000000
0.000000
0.000000
1.365037
1.824433
1.140645
0.192130
0.341345
2.162503
0.671314
1.139907
0.963082
1.146253
0.429390
0.660595
0.402347
0.949414
0.037679
1.563175
0.824435
1.198400
0.260478
0.498381
0.000000
0.000000
0.000000
0.000000
1.317994
3.395421
0.985091
0.341038
0.691310
1.036229
1.073278
0.500439
0.825884
1.625933
0.785577
1.478363
0.759207
0.614958
1.492215
0.239930
0.137441
2.930137
0.729862
0.992669
0.000000
0.000000
0.000000
0.000000
4.017611
0.844821
1.276827
1.277234
4.025468
0.717276
0.189329
1.881305
0.755784
1.134901
0.977946
2.730895
1.890455
0.295329
0.433840
1.351032
0.720564
0.406108
2.473405
1.059972
0.000000
0.000000
0.000000
0.000000
0.000000
0.000000
0.000000
0.000000
0.000000
0.000000
0.000000
0.000000
0.000000
0.000000
0.000000
0.000000
0.000000
0.000000
0.000000
0.000000
0.000000
0.000000
0.000000
0.000000
0.000000
0.000000
0.000000
0.000000
0.000000
0.000000
0.000000
0.000000
0.000000
0.000000
0.000000
0.000000
0.000000
0.000000
0.000000
0.000000
0.000000
0.000000
0.000000
0.000000
0.000000
0.000000
0.000000
0.000000
0.000000
0.000000
0.000000
0.000000
0.000000
0.000000
0.000000
0.000000
0.000000
0.000000
0.000000
0.000000
0.000000
0.000000
0.000000
0.000000
0.000000
0.000000
0.000000
0.000000
0.000000
0.000000
0.000000
0.000000
0.000000
0.000000
0.000000
0.000000
0.000000
0.000000
0.000000
0.000000
0.000000
0.000000
0.000000
0.000000
0.000000
0.000000
0.000000
0.000000
0.000000
0.000000
0.000000
0.000000
0.000000
0.000000
0.000000
0.000000
0.000000
0.000000
0.000000
0.000000
0.000000
0.000000
0.000000
0.000000
0.000000
0.000000
0.000000
0.000000
0.000000
0.000000
0.000000
0.000000
0.000000
0.000000
0.000000
0.000000
0.000000
0.000000
0.000000
0.000000
0.000000
0.000000
0.000000
0.000000
0.000000
0.000000
0.000000
0.000000
0.000000
0.000000
0.000000
0.000000
0.000000
0.000000
0.000000
0.000000
0.000000
0.000000
0.000000
0.000000
0.000000
0.000000
0.000000
0.000000
0.000000
0.000000
0.000000
0.000000
0.000000
0.000000
0.000000
0.000000
0.000000
0.000000
0.000000
0.000000
0.000000
0.000000
0.000000
0.000000
0.000000
0.000000
0.000000
0.000000
0.000000
0.000000
0.000000
0.000000
0.000000
0.000000
0.000000
0.000000
0.000000
0.000000
0.000000
0.000000
0.000000
0.000000
0.000000
0.000000
0.000000
0.000000
0.000000
0.000000
0.000000
0.000000
0.000000
0.000000
0.000000
0.000000
0.000000
0.000000
0.000000
0.000000
0.000000
0.000000
0.000000
0.000000
0.000000
0.000000
0.000000
0.000000
0.000000
0.000000
0.000000
0.000000
0.000000
0.000000
0.000000
0.000000
0.000000
0.000000
0.000000
0.000000
0.000000
0.000000
0.000000
0.000000
0.000000
0.000000
0.000000
0.000000
0.000000
0.000000
0.000000
0.000000
0.000000
0.000000
0.000000
0.000000
0.000000
0.000000
</DataArray>
<DataArray NumberOfComponents='1' type='Float32' Name='pressure' format='ascii'>
0.000000
0.000000
0.000000
0.000000
0.000000
0.000000
0.000000
0.000000
0.000000
0.000000
0.000000
0.000000
0.000000
0.000000
0.000000
0.000000
0.000000
0.000000
0.000000
0.000000
0.000000
0.000000
0.000000
0.000000
0.000000
0.000000
0.000000
0.000000
0.000000
0.000000
0.000000
0.000000
0.000000
0.000000
0.000000
0.000000
0.000000
0.000000
0.000000
0.000000
0.000000
0.000000
0.000000
0.000000
0.000000
0.000000
0.000000
0.000000
0.000000
0.000000
0.000000
0.000000
0.000000
0.000000
0.000000
0.000000
0.000000
0.000000
0.000000
0.000000
0.000000
0.000000
4887.778320
6013.128906
446.557068
0.000000
0.000000
0.000000
0.000000
0.000000
0.000000
0.000000
0.000000
0.000000
0.000000
0.000000
0.000000
0.000000
0.000000
0.000000
0.000000
0.000000
0.000000
0.000000
0.000000
0.000000
0.000000
0.000000
0.000000
0.000000
0.000000
3202.322510
0.000000
0.000000
0.000000
0.000000
0.000000
0.000000
0.000000
0.000000
0.000000
0.000000
0.000000
0.000000
0.000000
0.000000
0.000000
0.000000
0.000000
0.000000
0.000000
0.000000
0.000000
0.000000
0.000000
0.000000
2315.313477
0.000000
0.000000
0.000000
703.372375
0.000000
787.388550
0.000000
0.000000
0.000000
0.000000
0.000000
812.857849
0.000000
0.000000
0.000000
0.000000
0.000000
0.000000
0.000000
0.000000
0.000000
0.000000
0.000000
0.000000
0.000000
0.000000
0.000000
0.000000
2408.679199
0.000000
233.366455
1626.829346
0.000000
0.000000
1927.810547
0.000000
0.000000
0.000000
0.000000
0.000000
0.000000
88.254074
923.982178
0.000000
0.000000
0.000000
0.000000
0.000000
0.000000
2182.047119
1769.057129
0.000000
1521.706543
1352.555908
0.000000
677.213013
342.880066
3606.273438
0.000000
0.000000
0.000000
1847.317017
0.000000
399.027283
0.000000
100.941788
1051.898560
0.000000
0.000000
1918.858887
1971.843506
1769.860840
4050.345459
0.000000
2256.736572
0.000000
2908.345459
965.368774
1293.316772
1442.332886
1678.965576
3129.368896
828.397461
738.221130
1145.111328
2589.485596
0.000000
2536.618896
0.000000
1025.171753
2871.944092
0.000000
0.000000
367.147064
0.000000
0.000000
1395.467407
2190.731445
3093.659424
0.000000
1317.572021
0.000000
0.000000
3522.483154
1180.923828
3088.666748
0.000000
2880.395264
1813.746460
3305.643311
2671.077881
1556.831787
0.000000
1214.542236
0.000000
0.000000
0.000000
2484.591064
1991.278198
5706.076172
3739.940430
5153.441406
2383.127930
3474.747070
0.000000
2745.835938
2102.835205
3260.090820
3865.327881
1302.430420
3074.215820
2462.427246
2214.763428
2660.959717
443.082336
1524.468506
360.582031
0.000000
2716.245117
0.000000
0.000000
712.213379
701.097046
0.000000
1772.961182
0.000000
1506.405518
1074.545288
0.000000
2979.150635
0.000000
2037.019897
2625.471191
0.000000
1153.254639
0.000000
1969.752563
1191.630493
0.000000
3764.228271
1266.249756
5430.466797
0.000000
0.000000
0.000000
1918.593018
1081.697754
1106.488037
0.000000
0.000000
2495.711182
4430.296387
879.453430
0.000000
0.000000
0.000000
0.000000
0.000000
1872.921265
0.000000
1384.864136
0.000000
0.000000
0.000000
0.000000
2826.142090
1786.331543
0.000000
0.000000
2580.160400
1850.079834
0.000000
0.000000
0.000000
0.000000
0.000000
0.000000
1399.459473
0.000000
0.000000
0.000000
0.000000
0.000000
2483.248535
777.500061
0.000000
0.000000
3299.976318
0.000000
0.000000
0.000000
0.000000
0.000000
248.366837
0.000000
0.000000
0.000000
0.000000
0.000000
0.000000
4378.703613
0.000000
0.000000
588.686157
0.000000
0.000000
0.000000
0.000000
2719.514893
4036.535156
0.000000
2953.565186
1949.567749
0.000000
0.000000
0.000000
0.000000
1689.288330
1494.271606
0.000000
0.000000
579.292480
0.000000
0.000000
0.000000
1449.172607
0.000000
0.000000
0.000000
1776.299194
2259.623047
0.000000
0.000000
229.440277
372.100739
0.000000
0.000000
48.566818
0.000000
0.000000
0.000000
1995.215454
430.188202
0.000000
0.000000
3392.042236
2779.981445
0.000000
0.000000
4645.637695
4647.715820
0.000000
0.000000
5003.118164
4405.854004
0.000000
0.000000
4286.771484
2863.661621
0.000000
0.000000
3051.861572
1515.857544
0.000000
0.000000
3759.218018
4998.804688
0.000000
0.000000
1913.847290
2275.607422
0.000000
0.000000
702.240234
0.000000
0.000000
0.000000
726.848999
0.000000
0.000000
0.000000
3430.863037
3457.954834
0.000000
0.000000
2143.214600
888.052673
0.000000
0.000000
2763.132812
2034.270752
0.000000
0.000000
536.009705
0.000000
0.000000
0.000000
143.846970
0.000000
0.000000
0.000000
2005.993408
1871.039673
0.000000
0.000000
3267.156982
3674.331787
0.000000
0.000000
2651.749023
1568.099976
0.000000
0.000000
3888.157227
3948.587891
0.000000
0.000000
2064.330322
1904.508911
0.000000
0.000000
2831.784668
2920.834717
0.000000
0.000000
3696.795166
3421.219971
0.000000
0.000000
4026.795654
4412.901855
0.000000
0.000000
4744.522461
5571.764648
0.000000
0.000000
3704.094727
3083.340332
1946.974854
2361.597412
907.325195
1277.373535
0.000000
0.000000
0.000000
0.000000
0.000000
0.000000
0.000000
0.000000
0.000000
0.000000
0.000000
0.000000
0.000000
0.000000
0.000000
0.000000
0.000000
0.000000
0.000000
0.000000
0.000000
0.000000
3315.717529
2941.713623
1703.907593
2043.456787
1000.833435
1703.895996
0.000000
0.000000
0.000000
0.000000
0.000000
0.000000
0.000000
0.000000
0.000000
0.000000
0.000000
0.000000
0.000000
0.000000
0.000000
0.000000
0.000000
0.000000
0.000000
0.000000
0.000000
0.000000
0.000000
0.000000
0.000000
0.000000
0.000000
0.000000
0.000000
0.000000
0.000000
0.000000
0.000000
0.000000
0.000000
0.000000
0.000000
0.000000
0.000000
0.000000
0.000000
0.000000
0.000000
0.000000
0.000000
0.000000
0.000000
0.000000
0.000000
0.000000
0.000000
0.000000
0.000000
0.000000
0.000000
0.000000
0.000000
0.000000
0.000000
0.000000
0.000000
0.000000
0.000000
0.000000
0.000000
0.000000
0.000000
0.000000
0.000000
0.000000
0.000000
0.000000
0.000000
0.000000
0.000000
0.000000
</DataArray>
</PointData>
<Cells>
<DataArray type='Int32' Name='connectivity' format='ascii'>
0
1
2
3
4
5
6
7
8
9
10
11
12
13
14
15
16
17
18
19
20
21
22
23
24
25
26
27
28
29
30
31
32
33
34
35
36
37
38
39
40
41
42
43
44
45
46
47
48
49
50
51
52
53
54
55
56
57
58
59
60
61
62
63
64
65
66
67
68
69
70
71
72
73
74
75
76
77
78
79
80
81
82
83
84
85
86
87
88
89
90
91
92
93
94
95
96
97
98
99
100
101
102
103
104
105
106
107
108
109
110
111
112
113
114
115
116
117
118
119
120
121
122
123
124
125
126
127
128
129
130
131
132
133
134
135
136
137
138
139
140
141
142
143
144
145
146
147
148
149
150
151
152
153
154
155
156
157
158
159
160
161
162
163
164
165
166
167
168
169
170
171
172
173
174
175
176
177
178
179
180
181
182
183
184
185
186
187
188
189
190
191
192
193
194
195
196
197
198
199
200
201
202
203
204
205
206
207
208
209
210
211
212
213
214
215
216
217
218
219
220
221
222
223
224
225
226
227
228
229
230
231
232
233
234
235
236
237
238
239
240
241
242
243
244
245
246
247
248
249
250
251
252
253
254
255
256
257
258
259
260
261
262
263
264
265
266
267
268
269
270
271
272
273
274
275
276
277
278
279
280
281
282
283
284
285
286
287
288
289
290
291
292
293
294
295
296
297
298
299
300
301
302
303
304
305
306
307
308
309
310
311