<?xml version='1.0' encoding='UTF-8'?>
<VTKFile xmlns='VTK' byte_order='LittleEndian' version='0.1' type='UnstructuredGrid'>
<UnstructuredGrid>
<Piece NumberOfCells='584' NumberOfPoints='584'>
<Points>
<DataArray NumberOfComponents='3' type='Float32' Name='Position' format='ascii'>
-0.075000 -0.075000 0.000000
-0.075000 -0.050000 0.000000
-0.075000 -0.025000 0.000000
-0.075000 0.000000 0.000000
-0.075000 0.025000 0.000000
-0.075000 0.050000 0.000000
-0.075000 0.075000 0.000000
-0.075000 0.100000 0.000000
-0.075000 0.125000 0.000000
-0.075000 0.150000 0.000000
-0.075000 0.175000 0.000000
-0.075000 0.200000 0.000000
-0.075000 0.225000 0.000000
-0.075000 0.250000 0.000000
-0.075000 0.275000 0.000000
-0.075000 0.300000 0.000000
-0.075000 0.325000 0.000000
-0.075000 0.350000 0.000000
-0.075000 0.375000 0.000000
-0.075000 0.400000 0.000000
-0.075000 0.425000 0.000000
-0.075000 0.450000 0.000000
-0.075000 0.475000 0.000000
-0.075000 0.500000 0.000000
-0.075000 0.525000 0.000000
-0.075000 0.550000 0.000000
-0.075000 0.575000 0.000000
-0.075000 0.600000 0.000000
-0.050000 -0.075000 0.000000
-0.050000 -0.050000 0.000000
-0.050000 -0.025000 0.000000
-0.050000 0.000000 0.000000
-0.050000 0.025000 0.000000
-0.050000 0.050000 0.000000
-0.050000 0.075000 0.000000
-0.050000 0.100000 0.000000
-0.050000 0.125000 0.000000
-0.050000 0.150000 0.000000
-0.050000 0.175000 0.000000
-0.050000 0.200000 0.000000
-0.050000 0.225000 0.000000
-0.050000 0.250000 0.000000
-0.050000 0.275000 0.000000
-0.050000 0.300000 0.000000
-0.050000 0.325000 0.000000
-0.050000 0.350000 0.000000
-0.050000 0.375000 0.000000
-0.050000 0.400000 0.000000
-0.050000 0.425000 0.000000
-0.050000 0.450000 0.000000
-0.050000 0.475000 0.000000
-0.050000 0.500000 0.000000
-0.050000 0.525000 0.000000
-0.050000 0.550000 0.000000
-0.050000 0.575000 0.000000
-0.050000 0.600000 0.000000
-0.025000 -0.075000 0.000000
-0.025000 -0.050000 0.000000
-0.025000 -0.025000 0.000000
-0.025000 0.000000 0.000000
-0.025000 0.025000 0.000000
-0.025000 0.050000 0.000000
-0.025000 0.075000 0.000000
-0.025000 0.100000 0.000000
-0.025000 0.125000 0.000000
-0.025000 0.150000 0.000000
-0.025000 0.175000 0.000000
-0.025000 0.200000 0.000000
-0.025000 0.225000 0.000000
-0.025000 0.250000 0.000000
-0.025000 0.275000 0.000000
-0.025000 0.300000 0.000000
-0.025000 0.325000 0.000000
-0.025000 0.350000 0.000000
-0.025000 0.375000 0.000000
-0.025000 0.400000 0.000000
-0.025000 0.425000 0.000000
-0.025000 0.450000 0.000000
-0.025000 0.475000 0.000000
-0.025000 0.500000 0.000000
-0.025000 0.525000 0.000000
-0.025000 0.550000 0.000000
-0.025000 0.575000 0.000000
-0.025000 0.600000 0.000000
0.000000 -0.075000 0.000000
0.000000 -0.050000 0.000000
0.000000 -0.025000 0.000000
0.000000 0.000000 0.000000
0.000000 0.025000 0.000000
0.000000 0.050000 0.000000
0.000000 0.075000 0.000000
0.000000 0.100000 0.000000
0.000000 0.125000 0.000000
0.000000 0.150000 0.000000
0.000000 0.175000 0.000000
0.000000 0.200000 0.000000
0.000000 0.225000 0.000000
0.000000 0.250000 0.000000
0.000000 0.275000 0.000000
0.000000 0.300000 0.000000
0.000000 0.325000 0.000000
0.000000 0.350000 0.000000
0.000000 0.375000 0.000000
0.000000 0.400000 0.000000
0.000000 0.425000 0.000000
0.000000 0.450000 0.000000
0.000000 0.475000 0.000000
0.000000 0.500000 0.000000
0.000000 0.525000 0.000000
0.000000 0.550000 0.000000
0.000000 0.575000 0.000000
0.000000 0.600000 0.000000
0.025000 -0.075000 0.000000
0.025000 -0.050000 0.000000
0.025000 -0.025000 0.000000
0.025000 0.000000 0.000000
0.176902 0.076815 0.000000
0.232748 0.040378 0.000000
0.161628 0.044112 0.000000
0.186423 0.022911 0.000000
0.296696 0.027582 0.000000
0.083298 0.067338 0.000000
0.373649 0.023288 0.000000
0.248327 0.025240 0.000000
0.215853 0.023582 0.000000
0.083530 0.141357 0.000000
0.271347 0.023551 0.000000
0.105784 0.138993 0.000000
0.155598 0.022364 0.000000
0.044400 0.048450 0.000000
0.107802 0.071857 0.000000
0.045773 0.030533 0.000000
0.124325 0.096903 0.000000
0.102540 0.034585 0.000000
0.088808 0.109998 0.000000
0.127760 0.021121 0.000000
0.050000 -0.075000 0.000000
0.050000 -0.050000 0.000000
0.050000 -0.025000 0.000000
0.050000 0.000000 0.000000
0.294739 0.104578 0.000000
0.267764 0.243080 0.000000
0.314412 0.178435 0.000000
0.023256 0.049397 0.000000
0.019193 0.131438 0.000000
0.535790 0.045981 0.000000
0.248116 0.094711 0.000000
0.677244 0.049116 0.000000
0.299803 0.079839 0.000000
0.322726 0.120581 0.000000
0.068107 0.108991 0.000000
0.332625 0.045353 0.000000
0.099736 0.088549 0.000000
0.273677 0.122963 0.000000
0.135287 0.061473 0.000000
0.041950 0.083925 0.000000
0.204162 0.045611 0.000000
0.282473 0.054723 0.000000
0.129559 0.119045 0.000000
0.124856 0.046774 0.000000
0.075000 -0.075000 0.000000
0.075000 -0.050000 0.000000
0.075000 -0.025000 0.000000
0.075000 0.000000 0.000000
0.260137 0.109902 0.000000
0.188104 0.112737 0.000000
0.481238 0.046320 0.000000
0.399142 0.030972 0.000000
0.667787 0.100597 0.000000
0.737105 0.026561 0.000000
0.752937 0.042840 0.000000
0.059695 0.135718 0.000000
0.606523 0.087212 0.000000
0.726561 0.060600 0.000000
0.517289 0.023477 0.000000
0.266870 0.147061 0.000000
0.264564 0.052859 0.000000
0.321894 0.097617 0.000000
0.319145 0.025268 0.000000
0.141283 0.105715 0.000000
0.271807 0.086922 0.000000
0.025152 0.075312 0.000000
0.226938 0.072355 0.000000
0.213626 0.065360 0.000000
0.100000 -0.075000 0.000000
0.100000 -0.050000 0.000000
0.100000 -0.025000 0.000000
0.100000 0.000000 0.000000
0.578489 0.031463 0.000000
0.498817 0.072746 0.000000
0.599138 0.044298 0.000000
0.860058 0.021337 0.000000
0.304064 0.055523 0.000000
0.825888 0.023990 0.000000
0.766918 0.097752 0.000000
0.372118 0.041549 0.000000
0.767240 0.022239 0.000000
0.792375 0.049877 0.000000
0.556669 0.020446 0.000000
0.500951 0.100826 0.000000
0.684483 0.067138 0.000000
0.703291 0.045535 0.000000
0.337649 0.146045 0.000000
0.342208 0.024719 0.000000
0.629697 0.027950 0.000000
0.405900 0.116160 0.000000
0.464124 0.079970 0.000000
0.323722 0.078041 0.000000
0.125000 -0.075000 0.000000
0.125000 -0.050000 0.000000
0.125000 -0.025000 0.000000
0.125000 0.000000 0.000000
0.794017 0.093117 0.000000
0.863729 0.088932 0.000000
1.001805 0.105045 0.000000
0.895684 0.026163 0.000000
0.767686 0.153306 0.000000
0.685608 0.025087 0.000000
0.399322 0.156561 0.000000
0.686730 0.163944 0.000000
0.897827 0.068468 0.000000
0.805202 0.069107 0.000000
0.939761 0.079308 0.000000
0.685104 0.109778 0.000000
0.609115 0.022892 0.000000
0.630257 0.063687 0.000000
0.493294 0.025159 0.000000
0.651424 0.070729 0.000000
0.548040 0.103288 0.000000
0.178313 0.090267 0.000000
0.607673 0.061580 0.000000
0.098176 0.162127 0.000000
0.150000 -0.075000 0.000000
0.150000 -0.050000 0.000000
0.150000 -0.025000 0.000000
0.150000 0.000000 0.000000
0.375746 0.073513 0.000000
0.972466 0.026415 0.000000
0.810868 0.109357 0.000000
0.447906 0.065081 0.000000
0.929367 0.059832 0.000000
0.179836 0.049691 0.000000
0.983753 0.079490 0.000000
0.571175 0.062679 0.000000
1.005801 0.064261 0.000000
0.902507 0.095686 0.000000
0.910001 0.050435 0.000000
0.790396 0.027329 0.000000
0.877156 0.037099 0.000000
0.872537 0.072795 0.000000
0.841184 0.039977 0.000000
0.711217 0.071792 0.000000
0.715759 0.024043 0.000000
0.751394 0.091418 0.000000
0.749776 0.067316 0.000000
0.467353 0.114079 0.000000
0.175000 -0.075000 0.000000
0.175000 -0.050000 0.000000
0.175000 -0.025000 0.000000
0.175000 0.000000 0.000000
0.038507 0.107340 0.000000
0.783164 0.140065 0.000000
0.972796 0.138694 0.000000
0.968319 0.123113 0.000000
0.966218 0.059998 0.000000
0.175692 0.134046 0.000000
0.918825 0.024929 0.000000
0.411546 0.043595 0.000000
0.464480 0.022777 0.000000
0.943900 0.022831 0.000000
0.719441 0.130941 0.000000
0.822963 0.099781 0.000000
0.652397 0.101988 0.000000
0.953840 0.044265 0.000000
0.989134 0.043802 0.000000
0.515530 0.046174 0.000000
0.999383 0.024345 0.000000
0.598351 0.115384 0.000000
0.385164 0.156627 0.000000
0.631543 0.147458 0.000000
0.200000 -0.075000 0.000000
0.200000 -0.050000 0.000000
0.200000 -0.025000 0.000000
0.200000 0.000000 0.000000
0.535377 0.084260 0.000000
0.147840 0.078198 0.000000
0.429433 0.086694 0.000000
0.916123 0.087844 0.000000
0.462695 0.048030 0.000000
0.519755 0.128738 0.000000
0.698226 0.089547 0.000000
0.974074 0.094854 0.000000
0.576049 0.145119 0.000000
0.177796 0.186649 0.000000
0.933028 0.133019 0.000000
0.812686 0.041945 0.000000
0.066820 0.020338 0.000000
0.557570 0.045864 0.000000
0.781784 0.112209 0.000000
0.203820 0.133610 0.000000
0.832405 0.069719 0.000000
0.542731 0.147888 0.000000
0.951358 0.094769 0.000000
0.768979 0.063091 0.000000
0.225000 -0.075000 0.000000
0.225000 -0.050000 0.000000
0.225000 -0.025000 0.000000
0.225000 0.000000 0.000000
0.430220 0.159622 0.000000
0.923964 0.234449 0.000000
0.707400 0.113463 0.000000
0.247318 0.072520 0.000000
0.218105 0.118324 0.000000
0.048812 0.175041 0.000000
0.639041 0.087286 0.000000
0.997482 0.122724 0.000000
0.739242 0.129445 0.000000
0.291282 0.136262 0.000000
0.801260 0.137965 0.000000
0.125459 0.147669 0.000000
0.433496 0.020905 0.000000
0.563992 0.083248 0.000000
0.165985 0.123290 0.000000
0.453645 0.111195 0.000000
0.646796 0.041137 0.000000
0.086373 0.037146 0.000000
0.400501 0.171452 0.000000
0.427032 0.042070 0.000000
0.250000 -0.075000 0.000000
0.250000 -0.050000 0.000000
0.250000 -0.025000 0.000000
0.250000 0.000000 0.000000
0.839908 0.087843 0.000000
0.563742 0.104035 0.000000
0.478311 0.175839 0.000000
0.479631 0.140659 0.000000
0.391455 0.099202 0.000000
0.596256 0.098095 0.000000
0.358357 0.148645 0.000000
0.358319 0.078924 0.000000
0.352105 0.061462 0.000000
0.692176 0.151774 0.000000
0.347060 0.106459 0.000000
0.064728 0.172102 0.000000
0.227720 0.137521 0.000000
0.661526 0.023015 0.000000
0.521741 0.072766 0.000000
0.430410 0.099600 0.000000
0.484476 0.086334 0.000000
0.860116 0.055672 0.000000
0.058526 0.070825 0.000000
0.729200 0.111590 0.000000
0.275000 -0.075000 0.000000
0.275000 -0.050000 0.000000
0.275000 -0.025000 0.000000
0.275000 0.000000 0.000000
0.300000 -0.075000 0.000000
0.300000 -0.050000 0.000000
0.300000 -0.025000 0.000000
0.300000 0.000000 0.000000
0.325000 -0.075000 0.000000
0.325000 -0.050000 0.000000
0.325000 -0.025000 0.000000
0.325000 0.000000 0.000000
0.350000 -0.075000 0.000000
0.350000 -0.050000 0.000000
0.350000 -0.025000 0.000000
0.350000 0.000000 0.000000
0.375000 -0.075000 0.000000
0.375000 -0.050000 0.000000
0.375000 -0.025000 0.000000
0.375000 0.000000 0.000000
0.400000 -0.075000 0.000000
0.400000 -0.050000 0.000000
0.400000 -0.025000 0.000000
0.400000 0.000000 0.000000
0.425000 -0.075000 0.000000
0.425000 -0.050000 0.000000
0.425000 -0.025000 0.000000
0.425000 0.000000 0.000000
0.450000 -0.075000 0.000000
0.450000 -0.050000 0.000000
0.450000 -0.025000 0.000000
0.450000 0.000000 0.000000
0.475000 -0.075000 0.000000
0.475000 -0.050000 0.000000
0.475000 -0.025000 0.000000
0.475000 0.000000 0.000000
0.500000 -0.075000 0.000000
0.500000 -0.050000 0.000000
0.500000 -0.025000 0.000000
0.500000 0.000000 0.000000
0.525000 -0.075000 0.000000
0.525000 -0.050000 0.000000
0.525000 -0.025000 0.000000
0.525000 0.000000 0.000000
0.550000 -0.075000 0.000000
0.550000 -0.050000 0.000000
0.550000 -0.025000 0.000000
0.550000 0.000000 0.000000
0.575000 -0.075000 0.000000
0.575000 -0.050000 0.000000
0.575000 -0.025000 0.000000
0.575000 0.000000 0.000000
0.600000 -0.075000 0.000000
0.600000 -0.050000 0.000000
0.600000 -0.025000 0.000000
0.600000 0.000000 0.000000
0.625000 -0.075000 0.000000
0.625000 -0.050000 0.000000
0.625000 -0.025000 0.000000
0.625000 0.000000 0.000000
0.650000 -0.075000 0.000000
0.650000 -0.050000 0.000000
0.650000 -0.025000 0.000000
0.650000 0.000000 0.000000
0.675000 -0.075000 0.000000
0.675000 -0.050000 0.000000
0.675000 -0.025000 0.000000
0.675000 0.000000 0.000000
0.700000 -0.075000 0.000000
0.700000 -0.050000 0.000000
0.700000 -0.025000 0.000000
0.700000 0.000000 0.000000
0.725000 -0.075000 0.000000
0.725000 -0.050000 0.000000
0.725000 -0.025000 0.000000
0.725000 0.000000 0.000000
0.750000 -0.075000 0.000000
0.750000 -0.050000 0.000000
0.750000 -0.025000 0.000000
0.750000 0.000000 0.000000
0.775000 -0.075000 0.000000
0.775000 -0.050000 0.000000
0.775000 -0.025000 0.000000
0.775000 0.000000 0.000000
0.800000 -0.075000 0.000000
0.800000 -0.050000 0.000000
0.800000 -0.025000 0.000000
0.800000 0.000000 0.000000
0.825000 -0.075000 0.000000
0.825000 -0.050000 0.000000
0.825000 -0.025000 0.000000
0.825000 0.000000 0.000000
0.850000 -0.075000 0.000000
0.850000 -0.050000 0.000000
0.850000 -0.025000 0.000000
0.850000 0.000000 0.000000
0.875000 -0.075000 0.000000
0.875000 -0.050000 0.000000
0.875000 -0.025000 0.000000
0.875000 0.000000 0.000000
0.900000 -0.075000 0.000000
0.900000 -0.050000 0.000000
0.900000 -0.025000 0.000000
0.900000 0.000000 0.000000
0.925000 -0.075000 0.000000
0.925000 -0.050000 0.000000
0.925000 -0.025000 0.000000
0.925000 0.000000 0.000000
0.950000 -0.075000 0.000000
0.950000 -0.050000 0.000000
0.950000 -0.025000 0.000000
0.950000 0.000000 0.000000
0.975000 -0.075000 0.000000
0.975000 -0.050000 0.000000
0.975000 -0.025000 0.000000
0.975000 0.000000 0.000000
1.000000 -0.075000 0.000000
1.000000 -0.050000 0.000000
1.000000 -0.025000 0.000000
1.000000 0.000000 0.000000
1.025000 -0.075000 0.000000
1.025000 -0.050000 0.000000
1.025000 -0.025000 0.000000
1.025000 0.000000 0.000000
1.025000 0.025000 0.000000
1.025000 0.050000 0.000000
1.025000 0.075000 0.000000
1.025000 0.100000 0.000000
1.025000 0.125000 0.000000
1.025000 0.150000 0.000000
1.025000 0.175000 0.000000
1.025000 0.200000 0.000000
1.025000 0.225000 0.000000
1.025000 0.250000 0.000000
1.025000 0.275000 0.000000
1.025000 0.300000 0.000000
1.025000 0.325000 0.000000
1.025000 0.350000 0.000000
1.025000 0.375000 0.000000
1.025000 0.400000 0.000000
1.025000 0.425000 0.000000
1.025000 0.450000 0.000000
1.025000 0.475000 0.000000
1.025000 0.500000 0.000000
1.025000 0.525000 0.000000
1.025000 0.550000 0.000000
1.025000 0.575000 0.000000
1.025000 0.600000 0.000000
1.050000 -0.075000 0.000000
1.050000 -0.050000 0.000000
1.050000 -0.025000 0.000000
1.050000 0.000000 0.000000
1.050000 0.025000 0.000000
1.050000 0.050000 0.000000
1.050000 0.075000 0.000000
1.050000 0.100000 0.000000
1.050000 0.125000 0.000000
1.050000 0.150000 0.000000
1.050000 0.175000 0.000000
1.050000 0.200000 0.000000
1.050000 0.225000 0.000000
1.050000 0.250000 0.000000
1.050000 0.275000 0.000000
1.050000 0.300000 0.000000
1.050000 0.325000 0.000000
1.050000 0.350000 0.000000
1.050000 0.375000 0.000000
1.050000 0.400000 0.000000
1.050000 0.425000 0.000000
1.050000 0.450000 0.000000
1.050000 0.475000 0.000000
1.050000 0.500000 0.000000
1.050000 0.525000 0.000000
1.050000 0.550000 0.000000
1.050000 0.575000 0.000000
1.050000 0.600000 0.000000
1.075000 -0.075000 0.000000
1.075000 -0.050000 0.000000
1.075000 -0.025000 0.000000
1.075000 0.000000 0.000000
1.075000 0.025000 0.000000
1.075000 0.050000 0.000000
1.075000 0.075000 0.000000
1.075000 0.100000 0.000000
1.075000 0.125000 0.000000
1.075000 0.150000 0.000000
1.075000 0.175000 0.000000
1.075000 0.200000 0.000000
1.075000 0.225000 0.000000
1.075000 0.250000 0.000000
1.075000 0.275000 0.000000
1.075000 0.300000 0.000000
1.075000 0.325000 0.000000
1.075000 0.350000 0.000000
1.075000 0.375000 0.000000
1.075000 0.400000 0.000000
1.075000 0.425000 0.000000
1.075000 0.450000 0.000000
1.075000 0.475000 0.000000
1.075000 0.500000 0.000000
1.075000 0.525000 0.000000
1.075000 0.550000 0.000000
1.075000 0.575000 0.000000
1.075000 0.600000 0.000000
1.100000 -0.075000 0.000000
1.100000 -0.050000 0.000000
1.100000 -0.025000 0.000000
1.100000 0.000000 0.000000
1.100000 0.025000 0.000000
1.100000 0.050000 0.000000
1.100000 0.075000 0.000000
1.100000 0.100000 0.000000
1.100000 0.125000 0.000000
1.100000 0.150000 0.000000
1.100000 0.175000 0.000000
1.100000 0.200000 0.000000
1.100000 0.225000 0.000000
1.100000 0.250000 0.000000
1.100000 0.275000 0.000000
1.100000 0.300000 0.000000
1.100000 0.325000 0.000000
1.100000 0.350000 0.000000
1.100000 0.375000 0.000000
1.100000 0.400000 0.000000
1.100000 0.425000 0.000000
1.100000 0.450000 0.000000
1.100000 0.475000 0.000000
1.100000 0.500000 0.000000
1.100000 0.525000 0.000000
1.100000 0.550000 0.000000
1.100000 0.575000 0.000000
1.100000 0.600000 0.000000
</DataArray>
</Points>
<PointData>
<DataArray NumberOfComponents='1' type='Int32' Name='ParticleType' format='ascii'>
3
3
3
3
3
3
3
3
3
3
3
3
3
3
3
3
3
3
3
3
3
3
3
3
3
3
2
2
3
3
3
3
3
3
3
3
3
3
3
3
3
3
3
3
3
3
3
3
3
3
3
3
3
3
2
2
3
3
2
2
2
2
2
2
2
2
2
2
2
2
2
2
2
2
2
2
2
2
2
2
2
2
2
2
3
3
2
2
2
2
2
2
2
2
2
2
2
2
2
2
2
2
2
2
2
2
2
2
2
2
2
2
3
3
2
2
0
0
0
0
0
0
0
0
0
0
0
0
0
0
0
0
0
0
0
0
3
3
2
2
0
0
0
0
0
0
0
0
0
0
0
0
0
0
0
0
0
0
0
0
3
3
2
2
0
0
0
0
0
0
0
0
0
0
0
0
0
0
0
0
0
0
0
0
3
3
2
2
0
0
0
0
0
0
0
0
0
0
0
0
0
0
0
0
0
0
0
0
3
3
2
2
0
0
0
0
0
0
0
0
0
0
0
0
0
0
0
0
0
0
0
0
3
3
2
2
0
0
0
0
0
0
0
0
0
0
0
0
0
0
0
0
0
0
0
0
3
3
2
2
0
0
0
0
0
0
0
0
0
0
0
0
0
0
0
0
0
0
0
0
3
3
2
2
0
0
0
0
0
0
0
0
0
0
0
0
0
0
0
0
0
0
0
0
3
3
2
2
0
0
0
0
0
0
0
0
0
0
0
0
0
0
0
0
0
0
0
0
3
3
2
2
0
0
0
0
0
0
0
0
0
0
0
0
0
0
0
0
0
0
0
0
3
3
2
2
3
3
2
2
3
3
2
2
3
3
2
2
3
3
2
2
3
3
2
2
3
3
2
2
3
3
2
2
3
3
2
2
3
3
2
2
3
3
2
2
3
3
2
2
3
3
2
2
3
3
2
2
3
3
2
2
3
3
2
2
3
3
2
2
3
3
2
2
3
3
2
2
3
3
2
2
3
3
2
2
3
3
2
2
3
3
2
2
3
3
2
2
3
3
2
2
3
3
2
2
3
3
2
2
3
3
2
2
3
3
2
2
3
3
2
2
3
3
2
2
2
2
2
2
2
2
2
2
2
2
2
2
2
2
2
2
2
2
2
2
2
2
2
2
3
3
2
2
2
2
2
2
2
2
2
2
2
2
2
2
2
2
2
2
2
2
2
2
2
2
2
2
3
3
3
3
3
3
3
3
3
3
3
3
3
3
3
3
3
3
3
3
3
3
3
3
3
3
2
2
3
3
3
3
3
3
3
3
3
3
3
3
3
3
3
3
3
3
3
3
3
3
3
3
3
3
2
2
</DataArray>
<DataArray NumberOfComponents='1' type='Float32' Name='Velocity' format='ascii'>
0.000000
0.000000
0.000000
0.000000
0.000000
0.000000
0.000000
0.000000
0.000000
0.000000
0.000000
0.000000
0.000000
0.000000
0.000000
0.000000
0.000000
0.000000
0.000000
0.000000
0.000000
0.000000
0.000000
0.000000
0.000000
0.000000
0.000000
0.000000
0.000000
0.000000
0.000000
0.000000
0.000000
0.000000
0.000000
0.000000
0.000000
0.000000
0.000000
0.000000
0.000000
0.000000
0.000000
0.000000
0.000000
0.000000
0.000000
0.000000
0.000000
0.000000
0.000000
0.000000
0.000000
0.000000
0.000000
0.000000
0.000000
0.000000
0.000000
0.000000
0.000000
0.000000
0.000000
0.000000
0.000000
0.000000
0.000000
0.000000
0.000000
0.000000
0.000000
0.000000
0.000000
0.000000
0.000000
0.000000
0.000000
0.000000
0.000000
0.000000
0.000000
0.000000
0.000000
0.000000
0.000000
0.000000
0.000000
0.000000
0.000000
0.000000
0.000000
0.000000
0.000000
0.000000
0.000000
0.000000
0.000000
0.000000
0.000000
0.000000
0.000000
0.000000
0.000000
0.000000
0.000000
0.000000
0.000000
0.000000
0.000000
0.000000
0.000000
0.000000
0.000000
0.000000
0.000000
0.000000
1.277664
0.371593
0.452465
0.413924
0.275351
0.605687
0.554298
0.670344
0.432057
1.710396
0.226284
1.511772
0.421312
0.526522
0.737912
1.090821
1.477387
0.273741
0.563604
0.302822
0.000000
0.000000
0.000000
0.000000
0.430537
1.288201
1.058643
0.520224
0.726198
0.711121
0.777125
0.649999
0.540312
0.599312
1.062499
0.761134
0.622701
0.974852
0.555768
0.575614
0.241147
0.673400
1.423793
0.399207
0.000000
0.000000
0.000000
0.000000
1.169762
0.903837
0.641920
0.633395
0.741312
0.456166
0.486497
0.325085
0.940518
0.446360
0.440981
1.269345
0.340304
0.706752
0.572091
1.187636
0.692803
1.167376
0.583180
0.626404
0.000000
0.000000
0.000000
0.000000
0.759808
0.855329
0.790498
0.367658
0.484359
0.455131
0.482549
0.994685
0.415552
0.479022
0.347732
0.675542
0.707153
0.653999
1.021565
0.330656
0.549740
1.925774
0.489127
0.989242
0.000000
0.000000
0.000000
0.000000
0.278980
0.385908
0.352075
0.286968
1.038518
0.527907
1.340540
0.812716
0.514577
0.265764
0.190870
0.719737
0.374203
0.957129
0.204945
0.768021
0.699211
1.252890
0.660183
1.401421
0.000000
0.000000
0.000000
0.000000
1.312366
0.203832
0.363018
0.937796
0.540418
0.054726
0.234754
0.376771
0.329359
0.427577
0.256729
0.231666
0.198061
0.764918
0.332193
0.467804
0.501740
0.526411
0.180601
0.958392
0.000000
0.000000
0.000000
0.000000
0.800519
0.805366
0.456931
0.242133
0.398363
1.841386
0.363250
0.401410
0.130663
0.307752
0.888663
0.389025
0.698855
0.308028
0.204604
0.726238
0.180249
0.897756
1.738479
1.045486
0.000000
0.000000
0.000000
0.000000
0.617556
0.239094
0.653262
0.492421
0.220199
1.265074
0.633381
0.189163
1.155428
1.608197
0.932517
0.603376
1.050989
0.491302
0.937329
1.540557
0.527136
0.523178
0.101229
0.287029
0.000000
0.000000
0.000000
0.000000
1.080065
4.571249
0.914418
0.267955
0.895876
1.398561
0.790276
0.429761
0.851226
0.939303
0.804037
1.605545
0.444961
1.230677
0.737671
0.996512
0.625430
0.138885
0.746471
0.352977
0.000000
0.000000
0.000000
0.000000
0.459917
1.028325
0.974637
0.854450
0.536586
0.888231
1.565983
0.809305
0.850533
0.818174
0.494019
0.938926
1.678180
0.539392
0.601131
0.361716
0.633179
0.152079
0.207861
1.051882
0.000000
0.000000
0.000000
0.000000
0.000000
0.000000
0.000000
0.000000
0.000000
0.000000
0.000000
0.000000
0.000000
0.000000
0.000000
0.000000
0.000000
0.000000
0.000000
0.000000
0.000000
0.000000
0.000000
0.000000
0.000000
0.000000
0.000000
0.000000
0.000000
0.000000
0.000000
0.000000
0.000000
0.000000
0.000000
0.000000
0.000000
0.000000
0.000000
0.000000
0.000000
0.000000
0.000000
0.000000
0.000000
0.000000
0.000000
0.000000
0.000000
0.000000
0.000000
0.000000
0.000000
0.000000
0.000000
0.000000
0.000000
0.000000
0.000000
0.000000
0.000000
0.000000
0.000000
0.000000
0.000000
0.000000
0.000000
0.000000
0.000000
0.000000
0.000000
0.000000
0.000000
0.000000
0.000000
0.000000
0.000000
0.000000
0.000000
0.000000
0.000000
0.000000
0.000000
0.000000
0.000000
0.000000
0.000000
0.000000
0.000000
0.000000
0.000000
0.000000
0.000000
0.000000
0.000000
0.000000
0.000000
0.000000
0.000000
0.000000
0.000000
0.000000
0.000000
0.000000
0.000000
0.000000
0.000000
0.000000
0.000000
0.000000
0.000000
0.000000
0.000000
0.000000
0.000000
0.000000
0.000000
0.000000
0.000000
0.000000
0.000000
0.000000
0.000000
0.000000
0.000000
0.000000
0.000000
0.000000
0.000000
0.000000
0.000000
0.000000
0.000000
0.000000
0.000000
0.000000
0.000000
0.000000
0.000000
0.000000
0.000000
0.000000
0.000000
0.000000
0.000000
0.000000
0.000000
0.000000
0.000000
0.000000
0.000000
0.000000
0.000000
0.000000
0.000000
0.000000
0.000000
0.000000
0.000000
0.000000
0.000000
0.000000
0.000000
0.000000
0.000000
0.000000
0.000000
0.000000
0.000000
0.000000
0.000000
0.000000
0.000000
0.000000
0.000000
0.000000
0.000000
0.000000
0.000000
0.000000
0.000000
0.000000
0.000000
0.000000
0.000000
0.000000
0.000000
0.000000
0.000000
0.000000
0.000000
0.000000
0.000000
0.000000
0.000000
0.000000
0.000000
0.000000
0.000000
0.000000
0.000000
0.000000
0.000000
0.000000
0.000000
0.000000
0.000000
0.000000
0.000000
0.000000
0.000000
0.000000
0.000000
0.000000
0.000000
0.000000
0.000000
0.000000
0.000000
0.000000
0.000000
0.000000
0.000000
0.000000
0.000000
0.000000
0.000000
0.000000
0.000000
0.000000
0.000000
0.000000
</DataArray>
<DataArray NumberOfComponents='1' type='Float32' Name='pressure' format='ascii'>
0.000000
0.000000
0.000000
0.000000
0.000000
0.000000
0.000000
0.000000
0.000000
0.000000
0.000000
0.000000
0.000000
0.000000
0.000000
0.000000
0.000000
0.000000
0.000000
0.000000
0.000000
0.000000
0.000000
0.000000
0.000000
0.000000
0.000000
0.000000
0.000000
0.000000
0.000000
0.000000
0.000000
0.000000
0.000000
0.000000
0.000000
0.000000
0.000000
0.000000
0.000000
0.000000
0.000000
0.000000
0.000000
0.000000
0.000000
0.000000
0.000000
0.000000
0.000000
0.000000
0.000000
0.000000
0.000000
0.000000
0.000000
0.000000
0.000000
0.000000
0.000000
0.000000
0.000000
0.000000
2394.421875
1008.000671
0.000000
0.000000
0.000000
0.000000
0.000000
0.000000
0.000000
0.000000
0.000000
0.000000
0.000000
0.000000
0.000000
0.000000
0.000000
0.000000
0.000000
0.000000
0.000000
0.000000
0.000000
0.000000
0.000000
0.000000
0.000000
0.000000
0.000000
0.000000
0.000000
0.000000
0.000000
0.000000
0.000000
0.000000
0.000000
0.000000
0.000000
0.000000
0.000000
0.000000
0.000000
0.000000
0.000000
0.000000
0.000000
0.000000
0.000000
0.000000
0.000000
0.000000
549.365601
979.111084
1257.707886
757.268860
0.000000
0.000000
0.000000
271.403137
1763.804321
0.000000
285.826965
0.000000
1846.805176
1274.185913
1904.824829
0.000000
3643.723389
0.000000
0.000000
61.515850
0.000000
0.000000
1271.132812
0.000000
0.000000
0.000000
0.000000
0.000000
0.000000
56.979820
0.000000
0.000000
0.000000
0.000000
0.000000
0.000000
0.000000
0.000000
3371.173828
0.000000
1313.787720
2058.588379
0.000000
1859.914062
0.000000
0.000000
2708.985596
1540.530151
905.400696
0.000000
0.000000
0.000000
546.504761
242.752182
1024.854858
0.000000
0.000000
0.000000
0.000000
0.000000
934.044067
0.000000
1704.792603
3932.038818
0.000000
797.900146
568.637512
545.600769
0.000000
0.000000
1376.884888
0.000000
0.000000
0.000000
0.000000
2236.086914
0.000000
1266.684448
316.381989
0.000000
709.716370
273.105072
0.000000
0.000000
273.013550
1065.359375
0.000000
168.922668
1208.769043
0.000000
0.000000
0.000000
0.000000
0.000000
4516.878906
3964.390625
576.575562
0.000000
1887.813354
888.625732
0.000000
467.215637
0.000000
0.000000
399.130219
0.000000
692.020813
0.000000
1142.449097
883.070923
0.000000
0.000000
0.000000
0.000000
0.000000
0.000000
0.000000
0.000000
4965.926758
5799.555176
0.000000
120.834305
0.000000
0.000000
2411.410645
0.000000
367.440918
0.000000
0.000000
0.000000
1721.588623
0.000000
1037.444214
2.270237
0.000000
379.988708
0.000000
0.000000
733.868896
0.000000
0.000000
0.000000
3955.764893
3002.639404
0.000000
0.000000
0.000000
0.000000
653.093323
0.000000
557.886780
0.000000
0.000000
1222.458008
0.000000
0.000000
0.000000
1116.809692
1157.359497
0.000000
915.181396
0.000000
0.000000
0.000000
0.000000
0.000000
2929.797607
1030.192871
0.000000
0.000000
0.000000
0.000000
0.000000
0.000000
53.210590
258.899414
0.000000
0.000000
0.000000
1103.029663
0.000000
0.000000
0.000000
0.000000
668.350220
0.000000
0.000000
0.000000
0.000000
0.000000
1992.133545
1414.761353
0.000000
0.000000
805.868896
1333.184082
0.000000
0.000000
0.000000
0.000000
0.000000
0.000000
0.000000
0.000000
0.000000
0.000000
0.000000
0.000000
0.000000
0.000000
0.000000
0.000000
0.000000
0.000000
1301.431152
1948.641846
0.000000
0.000000
0.000000
0.000000
0.000000
0.000000
0.000000
0.000000
0.000000
0.000000
0.000000
0.000000
0.000000
585.608215
113.104935
0.000000
171.070435
771.443726
0.000000
0.000000
0.000000
0.000000
1326.658081
1257.122314
0.000000
0.000000
0.000000
0.000000
0.000000
0.000000
260.751587
1780.600464
0.000000
0.000000
219.489105
219.853439
0.000000
0.000000
699.980103
0.000000
0.000000
0.000000
0.000000
0.000000
0.000000
0.000000
1665.422241
611.195129
0.000000
0.000000
1971.363892
117.848427
0.000000
0.000000
1058.194214
807.386902
0.000000
0.000000
652.866089
866.019836
0.000000
0.000000
707.217224
0.000000
0.000000
0.000000
1696.975464
738.528625
0.000000
0.000000
396.353516
0.000000
0.000000
0.000000
532.512939
0.000000
0.000000
0.000000
306.490662
241.736130
0.000000
0.000000
922.954956
1084.203491
0.000000
0.000000
1179.835815
748.933533
0.000000
0.000000
378.558289
539.707214
0.000000
0.000000
815.920593
798.696289
0.000000
0.000000
844.404175
1676.901855
0.000000
0.000000
1543.069824
832.233459
0.000000
0.000000
97.157234
0.000000
0.000000
0.000000
1486.015015
541.096863
0.000000
0.000000
2439.839600
2217.419434
0.000000
0.000000
2000.141724
636.862732
0.000000
0.000000
1145.987305
1236.664307
0.000000
0.000000
1894.078613
1884.281616
0.000000
0.000000
2302.252441
2792.156738
0.000000
0.000000
1051.002075
828.426758
0.000000
0.000000
1553.224854
1875.087524
0.000000
0.000000
1268.361084
1191.750732
185.226730
1338.177368
1606.558594
1361.344360
0.000000
0.000000
0.000000
0.000000
0.000000
0.000000
0.000000
0.000000
0.000000
0.000000
0.000000
0.000000
0.000000
0.000000
0.000000
0.000000
0.000000
0.000000
0.000000
0.000000
0.000000
0.000000
1242.541626
1242.088501
1214.155640
2986.458496
3398.675049
1751.221924
0.000000
0.000000
0.000000
0.000000
0.000000
0.000000
0.000000
0.000000
0.000000
0.000000
0.000000
0.000000
0.000000
0.000000
0.000000
0.000000
0.000000
0.000000
0.000000
0.000000
0.000000
0.000000
0.000000
0.000000
0.000000
0.000000
0.000000
0.000000
0.000000
0.000000
0.000000
0.000000
0.000000
0.000000
0.000000
0.000000
0.000000
0.000000
0.000000
0.000000
0.000000
0.000000
0.000000
0.000000
0.000000
0.000000
0.000000
0.000000
0.000000
0.000000
0.000000
0.000000
0.000000
0.000000
0.000000
0.000000
0.000000
0.000000
0.000000
0.000000
0.000000
0.000000
0.000000
0.000000
0.000000
0.000000
0.000000
0.000000
0.000000
0.000000
0.000000
0.000000
0.000000
0.000000
0.000000
0.000000
</DataArray>
</PointData>
<Cells>
<DataArray type='Int32' Name='connectivity' format='ascii'>
0
1
2
3
4
5
6
7
8
9
10
11
12
13
14
15
16
17
18
19
20
21
22
23
24
25
26
27
28
29
30
31
32
33
34
35
36
37
38
39
40
41
42
43
44
45
46
47
48
49
50
51
52
53
54
55
56
57
58
59
60
61
62
63
64
65
66
67
68
69
70
71
72
73
74
75
76
77
78
79
80
81
82
83
84
85
86
87
88
89
90
91
92
93
94
95
96
97
98
99
100
101
102
103
104
105
106
107
108
109
110
111
112
113
114
115
116
117
118
119
120
121
122
123
124
125
126
127
128
129
130
131
132
133
134
135
136
137
138
139
140
141
142
143
144
145
146
147
148
149
150
151
152
153
154
155
156
157
158
159
160
161
162
163
164
165
166
167
168
169
170
171
172
173
174
175
176
177
178
179
180
181
182
183
184
185
186
187
188
189
190
191
192
193
194
195
196
197
198
199
200
201
202
203
204
205
206
207
208
209
210
211
212
213
214
215
216
217
218
219
220
221
222
223
224
225
226
227
228
229
230
231
232
233
234
235
236
237
238
239
240
241
242
243
244
245
246
247
248
249
250
251
252
253
254
255
256
257
258
259
260
261
262
263
264
265
266
267
268
269
270
271
272
273
274
275
276
277
278
279
280
281
282
283
284
285
286
287
288
289
290
291
292
293
294
295
296
297
298
299
300
301
302
303
304
305
306
307
308
309
310
311
312
313
314
315
316
317
318
319
320
321
322
323
324
325
326
327
328
329
330
331
332
333
334
335
336
337
338
339
340
341
342
343