<?xml version='1.0' encoding='UTF-8'?>
<VTKFile xmlns='VTK' byte_order='LittleEndian' version='0.1' type='UnstructuredGrid'>
<UnstructuredGrid>
<Piece NumberOfCells='584' NumberOfPoints='584'>
<Points>
<DataArray NumberOfComponents='3' type='Float32' Name='Position' format='ascii'>
-0.075000 -0.075000 0.000000
-0.075000 -0.050000 0.000000
-0.075000 -0.025000 0.000000
-0.075000 0.000000 0.000000
-0.075000 0.025000 0.000000
-0.075000 0.050000 0.000000
-0.075000 0.075000 0.000000
-0.075000 0.100000 0.000000
-0.075000 0.125000 0.000000
-0.075000 0.150000 0.000000
-0.075000 0.175000 0.000000
-0.075000 0.200000 0.000000
-0.075000 0.225000 0.000000
-0.075000 0.250000 0.000000
-0.075000 0.275000 0.000000
-0.075000 0.300000 0.000000
-0.075000 0.325000 0.000000
-0.075000 0.350000 0.000000
-0.075000 0.375000 0.000000
-0.075000 0.400000 0.000000
-0.075000 0.425000 0.000000
-0.075000 0.450000 0.000000
-0.075000 0.475000 0.000000
-0.075000 0.500000 0.000000
-0.075000 0.525000 0.000000
-0.075000 0.550000 0.000000
-0.075000 0.575000 0.000000
-0.075000 0.600000 0.000000
-0.050000 -0.075000 0.000000
-0.050000 -0.050000 0.000000
-0.050000 -0.025000 0.000000
-0.050000 0.000000 0.000000
-0.050000 0.025000 0.000000
-0.050000 0.050000 0.000000
-0.050000 0.075000 0.000000
-0.050000 0.100000 0.000000
-0.050000 0.125000 0.000000
-0.050000 0.150000 0.000000
-0.050000 0.175000 0.000000
-0.050000 0.200000 0.000000
-0.050000 0.225000 0.000000
-0.050000 0.250000 0.000000
-0.050000 0.275000 0.000000
-0.050000 0.300000 0.000000
-0.050000 0.325000 0.000000
-0.050000 0.350000 0.000000
-0.050000 0.375000 0.000000
-0.050000 0.400000 0.000000
-0.050000 0.425000 0.000000
-0.050000 0.450000 0.000000
-0.050000 0.475000 0.000000
-0.050000 0.500000 0.000000
-0.050000 0.525000 0.000000
-0.050000 0.550000 0.000000
-0.050000 0.575000 0.000000
-0.050000 0.600000 0.000000
-0.025000 -0.075000 0.000000
-0.025000 -0.050000 0.000000
-0.025000 -0.025000 0.000000
-0.025000 0.000000 0.000000
-0.025000 0.025000 0.000000
-0.025000 0.050000 0.000000
-0.025000 0.075000 0.000000
-0.025000 0.100000 0.000000
-0.025000 0.125000 0.000000
-0.025000 0.150000 0.000000
-0.025000 0.175000 0.000000
-0.025000 0.200000 0.000000
-0.025000 0.225000 0.000000
-0.025000 0.250000 0.000000
-0.025000 0.275000 0.000000
-0.025000 0.300000 0.000000
-0.025000 0.325000 0.000000
-0.025000 0.350000 0.000000
-0.025000 0.375000 0.000000
-0.025000 0.400000 0.000000
-0.025000 0.425000 0.000000
-0.025000 0.450000 0.000000
-0.025000 0.475000 0.000000
-0.025000 0.500000 0.000000
-0.025000 0.525000 0.000000
-0.025000 0.550000 0.000000
-0.025000 0.575000 0.000000
-0.025000 0.600000 0.000000
0.000000 -0.075000 0.000000
0.000000 -0.050000 0.000000
0.000000 -0.025000 0.000000
0.000000 0.000000 0.000000
0.000000 0.025000 0.000000
0.000000 0.050000 0.000000
0.000000 0.075000 0.000000
0.000000 0.100000 0.000000
0.000000 0.125000 0.000000
0.000000 0.150000 0.000000
0.000000 0.175000 0.000000
0.000000 0.200000 0.000000
0.000000 0.225000 0.000000
0.000000 0.250000 0.000000
0.000000 0.275000 0.000000
0.000000 0.300000 0.000000
0.000000 0.325000 0.000000
0.000000 0.350000 0.000000
0.000000 0.375000 0.000000
0.000000 0.400000 0.000000
0.000000 0.425000 0.000000
0.000000 0.450000 0.000000
0.000000 0.475000 0.000000
0.000000 0.500000 0.000000
0.000000 0.525000 0.000000
0.000000 0.550000 0.000000
0.000000 0.575000 0.000000
0.000000 0.600000 0.000000
0.025000 -0.075000 0.000000
0.025000 -0.050000 0.000000
0.025000 -0.025000 0.000000
0.025000 0.000000 0.000000
0.121310 0.051794 0.000000
0.192104 0.101430 0.000000
0.132164 0.019441 0.000000
0.173786 0.023086 0.000000
0.241987 0.034097 0.000000
0.095032 0.106373 0.000000
0.304920 0.026149 0.000000
0.199850 0.024340 0.000000
0.175946 0.043141 0.000000
0.022213 0.248275 0.000000
0.222248 0.031255 0.000000
0.054695 0.181629 0.000000
0.112070 0.034710 0.000000
0.062235 0.048183 0.000000
0.110504 0.117079 0.000000
0.045611 0.021723 0.000000
0.036805 0.201335 0.000000
0.091031 0.031597 0.000000
0.080103 0.175140 0.000000
0.084419 0.063367 0.000000
0.050000 -0.075000 0.000000
0.050000 -0.050000 0.000000
0.050000 -0.025000 0.000000
0.050000 0.000000 0.000000
0.144616 0.191664 0.000000
0.079775 0.145405 0.000000
0.093322 0.192084 0.000000
0.025112 0.029132 0.000000
0.025625 0.157619 0.000000
0.445826 0.058449 0.000000
0.172680 0.102146 0.000000
0.594699 0.060096 0.000000
0.147979 0.149604 0.000000
0.236791 0.174600 0.000000
0.067990 0.103874 0.000000
0.233008 0.079236 0.000000
0.041583 0.256049 0.000000
0.144297 0.176144 0.000000
0.072193 0.076531 0.000000
0.026557 0.070791 0.000000
0.179499 0.073379 0.000000
0.208118 0.082231 0.000000
0.061051 0.309286 0.000000
0.051009 0.069410 0.000000
0.075000 -0.075000 0.000000
0.075000 -0.050000 0.000000
0.075000 -0.025000 0.000000
0.075000 0.000000 0.000000
0.127063 0.151364 0.000000
0.152163 0.083838 0.000000
0.391448 0.045864 0.000000
0.326876 0.027367 0.000000
0.489574 0.116368 0.000000
0.679683 0.021372 0.000000
0.696595 0.044627 0.000000
0.031675 0.141055 0.000000
0.437225 0.112013 0.000000
0.660348 0.039702 0.000000
0.443621 0.022282 0.000000
0.096682 0.156115 0.000000
0.195668 0.057518 0.000000
0.217078 0.105076 0.000000
0.248857 0.061863 0.000000
0.049054 0.118197 0.000000
0.153075 0.113208 0.000000
0.026786 0.052599 0.000000
0.148708 0.062844 0.000000
0.125501 0.073098 0.000000
0.100000 -0.075000 0.000000
0.100000 -0.050000 0.000000
0.100000 -0.025000 0.000000
0.100000 0.000000 0.000000
0.492455 0.027693 0.000000
0.387602 0.134294 0.000000
0.497497 0.054862 0.000000
0.820360 0.025920 0.000000
0.218827 0.054814 0.000000
0.763051 0.021116 0.000000
0.671620 0.089660 0.000000
0.265814 0.053303 0.000000
0.708684 0.026081 0.000000
0.726485 0.045348 0.000000
0.470900 0.027154 0.000000
0.347478 0.120213 0.000000
0.562536 0.038997 0.000000
0.620037 0.027743 0.000000
0.132452 0.196039 0.000000
0.264433 0.021615 0.000000
0.536029 0.021301 0.000000
0.278158 0.073053 0.000000
0.368492 0.070422 0.000000
0.243496 0.106647 0.000000
0.125000 -0.075000 0.000000
0.125000 -0.050000 0.000000
0.125000 -0.025000 0.000000
0.125000 0.000000 0.000000
0.745976 0.084243 0.000000
0.737522 0.169565 0.000000
0.994968 0.073007 0.000000
0.841235 0.031208 0.000000
0.603304 0.077418 0.000000
0.598825 0.025412 0.000000
0.232874 0.119871 0.000000
0.532871 0.065521 0.000000
0.792964 0.088904 0.000000
0.766497 0.061484 0.000000
0.895004 0.049737 0.000000
0.563163 0.059825 0.000000
0.513162 0.027523 0.000000
0.514361 0.078043 0.000000
0.412723 0.025769 0.000000
0.506405 0.100822 0.000000
0.349515 0.143229 0.000000
0.124143 0.097764 0.000000
0.489681 0.072413 0.000000
0.020860 0.185512 0.000000
0.150000 -0.075000 0.000000
0.150000 -0.050000 0.000000
0.150000 -0.025000 0.000000
0.150000 0.000000 0.000000
0.260997 0.099893 0.000000
0.961436 0.026106 0.000000
0.781094 0.100825 0.000000
0.305231 0.053083 0.000000
0.886506 0.024222 0.000000
0.149259 0.039372 0.000000
0.923164 0.047124 0.000000
0.452488 0.076350 0.000000
0.961293 0.054308 0.000000
0.655831 0.136293 0.000000
0.877414 0.076401 0.000000
0.735261 0.024329 0.000000
0.848820 0.060935 0.000000
0.830541 0.095088 0.000000
0.797620 0.025985 0.000000
0.643714 0.058491 0.000000
0.641563 0.023874 0.000000
0.675823 0.052295 0.000000
0.697072 0.074002 0.000000
0.301801 0.113000 0.000000
0.175000 -0.075000 0.000000
0.175000 -0.050000 0.000000
0.175000 -0.025000 0.000000
0.175000 0.000000 0.000000
0.054935 0.157615 0.000000
0.669536 0.104469 0.000000
0.919914 0.082968 0.000000
0.863511 0.080348 0.000000
0.983100 0.032309 0.000000
0.120061 0.253045 0.000000
0.860468 0.023497 0.000000
0.344361 0.044474 0.000000
0.386445 0.022103 0.000000
0.914325 0.022407 0.000000
0.585188 0.097998 0.000000
0.767718 0.082535 0.000000
0.468398 0.111363 0.000000
0.939643 0.025373 0.000000
0.996805 0.059495 0.000000
0.428649 0.039002 0.000000
1.002064 0.025267 0.000000
0.504299 0.129684 0.000000
0.203211 0.140131 0.000000
0.452348 0.123887 0.000000
0.200000 -0.075000 0.000000
0.200000 -0.050000 0.000000
0.200000 -0.025000 0.000000
0.200000 0.000000 0.000000
0.393234 0.088456 0.000000
0.103187 0.085397 0.000000
0.322426 0.086685 0.000000
0.814319 0.059997 0.000000
0.367604 0.047518 0.000000
0.331913 0.128795 0.000000
0.615993 0.053711 0.000000
0.956852 0.069241 0.000000
0.437472 0.130522 0.000000
0.025308 0.224597 0.000000
0.831617 0.068870 0.000000
0.720700 0.075635 0.000000
0.072656 0.026026 0.000000
0.468117 0.050619 0.000000
0.640037 0.092865 0.000000
0.070228 0.226251 0.000000
0.743494 0.056246 0.000000
0.404401 0.143966 0.000000
0.910070 0.072353 0.000000
0.729467 0.101591 0.000000
0.225000 -0.075000 0.000000
0.225000 -0.050000 0.000000
0.225000 -0.025000 0.000000
0.225000 0.000000 0.000000
0.297815 0.086765 0.000000
0.873709 0.051224 0.000000
0.603304 0.101413 0.000000
0.189755 0.135204 0.000000
0.055200 0.210113 0.000000
0.080918 0.279578 0.000000
0.470355 0.088904 0.000000
0.936380 0.065861 0.000000
0.647404 0.075883 0.000000
0.107755 0.171913 0.000000
0.703149 0.090310 0.000000
0.050452 0.373392 0.000000
0.355102 0.023162 0.000000
0.423994 0.077170 0.000000
0.066388 0.130370 0.000000
0.281551 0.179446 0.000000
0.535544 0.047497 0.000000
0.037639 0.098838 0.000000
0.280552 0.097930 0.000000
0.322239 0.060603 0.000000
0.250000 -0.075000 0.000000
0.250000 -0.050000 0.000000
0.250000 -0.025000 0.000000
0.250000 0.000000 0.000000
0.776967 0.039080 0.000000
0.399868 0.127061 0.000000
0.311008 0.131225 0.000000
0.350221 0.100794 0.000000
0.284147 0.032709 0.000000
0.414024 0.092812 0.000000
0.160950 0.136788 0.000000
0.274219 0.145812 0.000000
0.296563 0.141074 0.000000
0.546851 0.088922 0.000000
0.268558 0.157665 0.000000
0.036210 0.296458 0.000000
0.135282 0.127570 0.000000
0.575965 0.026010 0.000000
0.404934 0.063587 0.000000
0.343310 0.080511 0.000000
0.374496 0.091398 0.000000
0.798182 0.052531 0.000000
0.019653 0.109841 0.000000
0.575924 0.085683 0.000000
0.275000 -0.075000 0.000000
0.275000 -0.050000 0.000000
0.275000 -0.025000 0.000000
0.275000 0.000000 0.000000
0.300000 -0.075000 0.000000
0.300000 -0.050000 0.000000
0.300000 -0.025000 0.000000
0.300000 0.000000 0.000000
0.325000 -0.075000 0.000000
0.325000 -0.050000 0.000000
0.325000 -0.025000 0.000000
0.325000 0.000000 0.000000
0.350000 -0.075000 0.000000
0.350000 -0.050000 0.000000
0.350000 -0.025000 0.000000
0.350000 0.000000 0.000000
0.375000 -0.075000 0.000000
0.375000 -0.050000 0.000000
0.375000 -0.025000 0.000000
0.375000 0.000000 0.000000
0.400000 -0.075000 0.000000
0.400000 -0.050000 0.000000
0.400000 -0.025000 0.000000
0.400000 0.000000 0.000000
0.425000 -0.075000 0.000000
0.425000 -0.050000 0.000000
0.425000 -0.025000 0.000000
0.425000 0.000000 0.000000
0.450000 -0.075000 0.000000
0.450000 -0.050000 0.000000
0.450000 -0.025000 0.000000
0.450000 0.000000 0.000000
0.475000 -0.075000 0.000000
0.475000 -0.050000 0.000000
0.475000 -0.025000 0.000000
0.475000 0.000000 0.000000
0.500000 -0.075000 0.000000
0.500000 -0.050000 0.000000
0.500000 -0.025000 0.000000
0.500000 0.000000 0.000000
0.525000 -0.075000 0.000000
0.525000 -0.050000 0.000000
0.525000 -0.025000 0.000000
0.525000 0.000000 0.000000
0.550000 -0.075000 0.000000
0.550000 -0.050000 0.000000
0.550000 -0.025000 0.000000
0.550000 0.000000 0.000000
0.575000 -0.075000 0.000000
0.575000 -0.050000 0.000000
0.575000 -0.025000 0.000000
0.575000 0.000000 0.000000
0.600000 -0.075000 0.000000
0.600000 -0.050000 0.000000
0.600000 -0.025000 0.000000
0.600000 0.000000 0.000000
0.625000 -0.075000 0.000000
0.625000 -0.050000 0.000000
0.625000 -0.025000 0.000000
0.625000 0.000000 0.000000
0.650000 -0.075000 0.000000
0.650000 -0.050000 0.000000
0.650000 -0.025000 0.000000
0.650000 0.000000 0.000000
0.675000 -0.075000 0.000000
0.675000 -0.050000 0.000000
0.675000 -0.025000 0.000000
0.675000 0.000000 0.000000
0.700000 -0.075000 0.000000
0.700000 -0.050000 0.000000
0.700000 -0.025000 0.000000
0.700000 0.000000 0.000000
0.725000 -0.075000 0.000000
0.725000 -0.050000 0.000000
0.725000 -0.025000 0.000000
0.725000 0.000000 0.000000
0.750000 -0.075000 0.000000
0.750000 -0.050000 0.000000
0.750000 -0.025000 0.000000
0.750000 0.000000 0.000000
0.775000 -0.075000 0.000000
0.775000 -0.050000 0.000000
0.775000 -0.025000 0.000000
0.775000 0.000000 0.000000
0.800000 -0.075000 0.000000
0.800000 -0.050000 0.000000
0.800000 -0.025000 0.000000
0.800000 0.000000 0.000000
0.825000 -0.075000 0.000000
0.825000 -0.050000 0.000000
0.825000 -0.025000 0.000000
0.825000 0.000000 0.000000
0.850000 -0.075000 0.000000
0.850000 -0.050000 0.000000
0.850000 -0.025000 0.000000
0.850000 0.000000 0.000000
0.875000 -0.075000 0.000000
0.875000 -0.050000 0.000000
0.875000 -0.025000 0.000000
0.875000 0.000000 0.000000
0.900000 -0.075000 0.000000
0.900000 -0.050000 0.000000
0.900000 -0.025000 0.000000
0.900000 0.000000 0.000000
0.925000 -0.075000 0.000000
0.925000 -0.050000 0.000000
0.925000 -0.025000 0.000000
0.925000 0.000000 0.000000
0.950000 -0.075000 0.000000
0.950000 -0.050000 0.000000
0.950000 -0.025000 0.000000
0.950000 0.000000 0.000000
0.975000 -0.075000 0.000000
0.975000 -0.050000 0.000000
0.975000 -0.025000 0.000000
0.975000 0.000000 0.000000
1.000000 -0.075000 0.000000
1.000000 -0.050000 0.000000
1.000000 -0.025000 0.000000
1.000000 0.000000 0.000000
1.025000 -0.075000 0.000000
1.025000 -0.050000 0.000000
1.025000 -0.025000 0.000000
1.025000 0.000000 0.000000
1.025000 0.025000 0.000000
1.025000 0.050000 0.000000
1.025000 0.075000 0.000000
1.025000 0.100000 0.000000
1.025000 0.125000 0.000000
1.025000 0.150000 0.000000
1.025000 0.175000 0.000000
1.025000 0.200000 0.000000
1.025000 0.225000 0.000000
1.025000 0.250000 0.000000
1.025000 0.275000 0.000000
1.025000 0.300000 0.000000
1.025000 0.325000 0.000000
1.025000 0.350000 0.000000
1.025000 0.375000 0.000000
1.025000 0.400000 0.000000
1.025000 0.425000 0.000000
1.025000 0.450000 0.000000
1.025000 0.475000 0.000000
1.025000 0.500000 0.000000
1.025000 0.525000 0.000000
1.025000 0.550000 0.000000
1.025000 0.575000 0.000000
1.025000 0.600000 0.000000
1.050000 -0.075000 0.000000
1.050000 -0.050000 0.000000
1.050000 -0.025000 0.000000
1.050000 0.000000 0.000000
1.050000 0.025000 0.000000
1.050000 0.050000 0.000000
1.050000 0.075000 0.000000
1.050000 0.100000 0.000000
1.050000 0.125000 0.000000
1.050000 0.150000 0.000000
1.050000 0.175000 0.000000
1.050000 0.200000 0.000000
1.050000 0.225000 0.000000
1.050000 0.250000 0.000000
1.050000 0.275000 0.000000
1.050000 0.300000 0.000000
1.050000 0.325000 0.000000
1.050000 0.350000 0.000000
1.050000 0.375000 0.000000
1.050000 0.400000 0.000000
1.050000 0.425000 0.000000
1.050000 0.450000 0.000000
1.050000 0.475000 0.000000
1.050000 0.500000 0.000000
1.050000 0.525000 0.000000
1.050000 0.550000 0.000000
1.050000 0.575000 0.000000
1.050000 0.600000 0.000000
1.075000 -0.075000 0.000000
1.075000 -0.050000 0.000000
1.075000 -0.025000 0.000000
1.075000 0.000000 0.000000
1.075000 0.025000 0.000000
1.075000 0.050000 0.000000
1.075000 0.075000 0.000000
1.075000 0.100000 0.000000
1.075000 0.125000 0.000000
1.075000 0.150000 0.000000
1.075000 0.175000 0.000000
1.075000 0.200000 0.000000
1.075000 0.225000 0.000000
1.075000 0.250000 0.000000
1.075000 0.275000 0.000000
1.075000 0.300000 0.000000
1.075000 0.325000 0.000000
1.075000 0.350000 0.000000
1.075000 0.375000 0.000000
1.075000 0.400000 0.000000
1.075000 0.425000 0.000000
1.075000 0.450000 0.000000
1.075000 0.475000 0.000000
1.075000 0.500000 0.000000
1.075000 0.525000 0.000000
1.075000 0.550000 0.000000
1.075000 0.575000 0.000000
1.075000 0.600000 0.000000
1.100000 -0.075000 0.000000
1.100000 -0.050000 0.000000
1.100000 -0.025000 0.000000
1.100000 0.000000 0.000000
1.100000 0.025000 0.000000
1.100000 0.050000 0.000000
1.100000 0.075000 0.000000
1.100000 0.100000 0.000000
1.100000 0.125000 0.000000
1.100000 0.150000 0.000000
1.100000 0.175000 0.000000
1.100000 0.200000 0.000000
1.100000 0.225000 0.000000
1.100000 0.250000 0.000000
1.100000 0.275000 0.000000
1.100000 0.300000 0.000000
1.100000 0.325000 0.000000
1.100000 0.350000 0.000000
1.100000 0.375000 0.000000
1.100000 0.400000 0.000000
1.100000 0.425000 0.000000
1.100000 0.450000 0.000000
1.100000 0.475000 0.000000
1.100000 0.500000 0.000000
1.100000 0.525000 0.000000
1.100000 0.550000 0.000000
1.100000 0.575000 0.000000
1.100000 0.600000 0.000000
</DataArray>
</Points>
<PointData>
<DataArray NumberOfComponents='1' type='Int32' Name='ParticleType' format='ascii'>
3
3
3
3
3
3
3
3
3
3
3
3
3
3
3
3
3
3
3
3
3
3
3
3
3
3
2
2
3
3
3
3
3
3
3
3
3
3
3
3
3
3
3
3
3
3
3
3
3
3
3
3
3
3
2
2
3
3
2
2
2
2
2
2
2
2
2
2
2
2
2
2
2
2
2
2
2
2
2
2
2
2
2
2
3
3
2
2
2
2
2
2
2
2
2
2
2
2
2
2
2
2
2
2
2
2
2
2
2
2
2
2
3
3
2
2
0
0
0
0
0
0
0
0
0
0
0
0
0
0
0
0
0
0
0
0
3
3
2
2
0
0
0
0
0
0
0
0
0
0
0
0
0
0
0
0
0
0
0
0
3
3
2
2
0
0
0
0
0
0
0
0
0
0
0
0
0
0
0
0
0
0
0
0
3
3
2
2
0
0
0
0
0
0
0
0
0
0
0
0
0
0
0
0
0
0
0
0
3
3
2
2
0
0
0
0
0
0
0
0
0
0
0
0
0
0
0
0
0
0
0
0
3
3
2
2
0
0
0
0
0
0
0
0
0
0
0
0
0
0
0
0
0
0
0
0
3
3
2
2
0
0
0
0
0
0
0
0
0
0
0
0
0
0
0
0
0
0
0
0
3
3
2
2
0
0
0
0
0
0
0
0
0
0
0
0
0
0
0
0
0
0
0
0
3
3
2
2
0
0
0
0
0
0
0
0
0
0
0
0
0
0
0
0
0
0
0
0
3
3
2
2
0
0
0
0
0
0
0
0
0
0
0
0
0
0
0
0
0
0
0
0
3
3
2
2
3
3
2
2
3
3
2
2
3
3
2
2
3
3
2
2
3
3
2
2
3
3
2
2
3
3
2
2
3
3
2
2
3
3
2
2
3
3
2
2
3
3
2
2
3
3
2
2
3
3
2
2
3
3
2
2
3
3
2
2
3
3
2
2
3
3
2
2
3
3
2
2
3
3
2
2
3
3
2
2
3
3
2
2
3
3
2
2
3
3
2
2
3
3
2
2
3
3
2
2
3
3
2
2
3
3
2
2
3
3
2
2
3
3
2
2
3
3
2
2
2
2
2
2
2
2
2
2
2
2
2
2
2
2
2
2
2
2
2
2
2
2
2
2
3
3
2
2
2
2
2
2
2
2
2
2
2
2
2
2
2
2
2
2
2
2
2
2
2
2
2
2
3
3
3
3
3
3
3
3
3
3
3
3
3
3
3
3
3
3
3
3
3
3
3
3
3
3
2
2
3
3
3
3
3
3
3
3
3
3
3
3
3
3
3
3
3
3
3
3
3
3
3
3
3
3
2
2
</DataArray>
<DataArray NumberOfComponents='1' type='Float32' Name='Velocity' format='ascii'>
0.000000
0.000000
0.000000
0.000000
0.000000
0.000000
0.000000
0.000000
0.000000
0.000000
0.000000
0.000000
0.000000
0.000000
0.000000
0.000000
0.000000
0.000000
0.000000
0.000000
0.000000
0.000000
0.000000
0.000000
0.000000
0.000000
0.000000
0.000000
0.000000
0.000000
0.000000
0.000000
0.000000
0.000000
0.000000
0.000000
0.000000
0.000000
0.000000
0.000000
0.000000
0.000000
0.000000
0.000000
0.000000
0.000000
0.000000
0.000000
0.000000
0.000000
0.000000
0.000000
0.000000
0.000000
0.000000
0.000000
0.000000
0.000000
0.000000
0.000000
0.000000
0.000000
0.000000
0.000000
0.000000
0.000000
0.000000
0.000000
0.000000
0.000000
0.000000
0.000000
0.000000
0.000000
0.000000
0.000000
0.000000
0.000000
0.000000
0.000000
0.000000
0.000000
0.000000
0.000000
0.000000
0.000000
0.000000
0.000000
0.000000
0.000000
0.000000
0.000000
0.000000
0.000000
0.000000
0.000000
0.000000
0.000000
0.000000
0.000000
0.000000
0.000000
0.000000
0.000000
0.000000
0.000000
0.000000
0.000000
0.000000
0.000000
0.000000
0.000000
0.000000
0.000000
0.000000
0.000000
0.175763
0.608663
0.144789
0.311724
0.423623
0.330974
0.436329
0.316751
0.194425
0.588181
0.359664
0.203767
0.230056
0.562218
0.410014
0.123536
0.039754
0.107088
0.603827
0.176134
0.000000
0.000000
0.000000
0.000000
0.789577
0.249119
1.455845
0.564404
0.269171
0.460151
0.235867
0.296266
0.734341
0.456125
0.344927
0.429253
0.932837
0.681313
0.344828
0.311405
0.432657
0.363739
0.502697
0.425689
0.000000
0.000000
0.000000
0.000000
0.691441
0.331588
0.411928
0.185973
0.992819
0.419757
0.203153
0.315102
0.913496
0.083487
0.173393
0.420882
0.151988
0.672318
0.449792
0.326553
0.503373
0.123304
0.220421
0.246717
0.000000
0.000000
0.000000
0.000000
0.302185
0.760020
0.439440
0.160009
0.304540
0.625929
0.775757
0.520868
0.300676
0.389324
0.575769
0.627483
0.355486
0.382309
1.307590
0.394979
0.311291
0.455219
0.501477
0.822179
0.000000
0.000000
0.000000
0.000000
0.598381
0.770896
0.180886
0.346043
0.766436
0.417191
0.640516
0.634997
0.291934
0.192296
0.736222
0.801051
0.536048
0.806196
0.251394
0.755858
0.930457
0.315456
0.590635
0.254821
0.000000
0.000000
0.000000
0.000000
0.801536
0.219475
0.380498
0.698515
0.416044
0.361037
0.248377
0.770047
0.471144
1.555859
0.563339
0.302990
0.020338
0.442057
0.343341
0.488260
0.400373
0.086637
0.262672
1.125456
0.000000
0.000000
0.000000
0.000000
0.647872
0.664314
0.608606
1.027735
0.333584
0.671010
0.217842
0.429830
0.520428
0.361800
0.914014
0.145000
1.252643
0.100438
0.377336
0.524920
0.150418
0.363831
0.809386
0.655700
0.000000
0.000000
0.000000
0.000000
0.665481
0.089915
0.664076
0.383434
0.536084
0.639002
0.366529
0.248525
0.671726
0.078935
0.574106
0.300041
0.310467
0.264584
0.786047
0.678884
0.564044
0.849439
0.689076
0.558935
0.000000
0.000000
0.000000
0.000000
0.417314
0.743396
0.572931
0.626801
0.776457
0.333813
0.575080
0.492576
0.404875
0.643011
0.431974
0.996870
0.441979
0.574665
0.347640
0.854615
0.455825
0.223224
0.749705
0.664945
0.000000
0.000000
0.000000
0.000000
0.224834
0.942577
1.000210
0.925909
0.382991
0.528483
0.534218
0.890112
0.375650
0.873961
0.819039
0.279470
0.245136
0.302094
0.742219
0.765303
0.661057
0.468156
0.511238
0.887969
0.000000
0.000000
0.000000
0.000000
0.000000
0.000000
0.000000
0.000000
0.000000
0.000000
0.000000
0.000000
0.000000
0.000000
0.000000
0.000000
0.000000
0.000000
0.000000
0.000000
0.000000
0.000000
0.000000
0.000000
0.000000
0.000000
0.000000
0.000000
0.000000
0.000000
0.000000
0.000000
0.000000
0.000000
0.000000
0.000000
0.000000
0.000000
0.000000
0.000000
0.000000
0.000000
0.000000
0.000000
0.000000
0.000000
0.000000
0.000000
0.000000
0.000000
0.000000
0.000000
0.000000
0.000000
0.000000
0.000000
0.000000
0.000000
0.000000
0.000000
0.000000
0.000000
0.000000
0.000000
0.000000
0.000000
0.000000
0.000000
0.000000
0.000000
0.000000
0.000000
0.000000
0.000000
0.000000
0.000000
0.000000
0.000000
0.000000
0.000000
0.000000
0.000000
0.000000
0.000000
0.000000
0.000000
0.000000
0.000000
0.000000
0.000000
0.000000
0.000000
0.000000
0.000000
0.000000
0.000000
0.000000
0.000000
0.000000
0.000000
0.000000
0.000000
0.000000
0.000000
0.000000
0.000000
0.000000
0.000000
0.000000
0.000000
0.000000
0.000000
0.000000
0.000000
0.000000
0.000000
0.000000
0.000000
0.000000
0.000000
0.000000
0.000000
0.000000
0.000000
0.000000
0.000000
0.000000
0.000000
0.000000
0.000000
0.000000
0.000000
0.000000
0.000000
0.000000
0.000000
0.000000
0.000000
0.000000
0.000000
0.000000
0.000000
0.000000
0.000000
0.000000
0.000000
0.000000
0.000000
0.000000
0.000000
0.000000
0.000000
0.000000
0.000000
0.000000
0.000000
0.000000
0.000000
0.000000
0.000000
0.000000
0.000000
0.000000
0.000000
0.000000
0.000000
0.000000
0.000000
0.000000
0.000000
0.000000
0.000000
0.000000
0.000000
0.000000
0.000000
0.000000
0.000000
0.000000
0.000000
0.000000
0.000000
0.000000
0.000000
0.000000
0.000000
0.000000
0.000000
0.000000
0.000000
0.000000
0.000000
0.000000
0.000000
0.000000
0.000000
0.000000
0.000000
0.000000
0.000000
0.000000
0.000000
0.000000
0.000000
0.000000
0.000000
0.000000
0.000000
0.000000
0.000000
0.000000
0.000000
0.000000
0.000000
0.000000
0.000000
0.000000
0.000000
0.000000
0.000000
0.000000
0.000000
0.000000
0.000000
0.000000
0.000000
0.000000
0.000000
0.000000
0.000000
0.000000
0.000000
</DataArray>
<DataArray NumberOfComponents='1' type='Float32' Name='pressure' format='ascii'>
0.000000
0.000000
0.000000
0.000000
0.000000
0.000000
0.000000
0.000000
0.000000
0.000000
0.000000
0.000000
0.000000
0.000000
0.000000
0.000000
0.000000
0.000000
0.000000
0.000000
0.000000
0.000000
0.000000
0.000000
0.000000
0.000000
0.000000
0.000000
0.000000
0.000000
0.000000
0.000000
0.000000
0.000000
0.000000
0.000000
0.000000
0.000000
0.000000
0.000000
0.000000
0.000000
0.000000
0.000000
0.000000
0.000000
0.000000
0.000000
0.000000
0.000000
0.000000
0.000000
0.000000
0.000000
0.000000
0.000000
0.000000
0.000000
513.000183
461.714722
387.312561
22.294275
230.312897
2490.828125
1993.991577
648.966431
2050.270020
1422.230835
289.223785
820.092102
0.000000
0.000000
0.000000
0.000000
0.000000
0.000000
0.000000
0.000000
0.000000
0.000000
0.000000
0.000000
0.000000
0.000000
0.000000
0.000000
803.813110
0.000000
214.700836
936.029480
0.000000
917.896545
156.868088
0.000000
2075.895020
0.000000
0.000000
0.000000
0.000000
0.000000
0.000000
0.000000
0.000000
0.000000
0.000000
0.000000
0.000000
0.000000
0.000000
0.000000
0.000000
0.000000
0.000000
0.000000
1090.629272
584.997375
3575.965820
737.648193
2599.567139
2135.701660
0.000000
569.238770
1345.641235
0.000000
869.637146
0.000000
964.159180
0.000000
3217.312256
0.000000
0.000000
2233.410400
0.000000
1336.337036
0.000000
877.391296
0.000000
0.000000
2902.270752
4188.975098
0.000000
3494.402588
0.000000
2341.832520
25.118229
417.417755
721.908813
0.000000
672.347229
0.000000
0.000000
0.000000
0.000000
0.000000
1525.104736
1957.027100
0.000000
1426.604614
0.000000
0.000000
0.000000
0.000000
1451.780518
602.356140
0.000000
0.000000
0.000000
1041.703247
0.000000
221.249756
716.325256
0.000000
0.000000
1344.244385
0.000000
2721.044922
671.589600
170.525375
406.985687
2176.774902
2167.738770
4078.319580
2883.380371
3374.660400
0.000000
0.000000
1161.854492
0.000000
1478.197388
0.000000
0.000000
553.447815
0.000000
578.656921
0.000000
0.000000
1406.781006
660.086609
0.000000
175.035599
103.302216
842.492920
0.000000
285.830658
377.242706
0.000000
629.856506
502.491638
0.000000
0.000000
4126.371094
3426.792969
0.000000
0.000000
0.000000
0.000000
0.000000
22.580715
0.000000
0.000000
0.000000
1829.394165
0.000000
0.000000
0.000000
0.000000
537.853210
0.000000
0.000000
2041.761230
290.718384
1453.707397
0.000000
0.000000
3108.042480
486.601654
0.000000
509.474884
0.000000
0.000000
0.000000
0.000000
1402.527100
0.000000
631.083923
0.000000
0.000000
77.597504
2742.210205
0.000000
905.763611
0.000000
0.000000
0.000000
478.350586
0.000000
0.000000
0.000000
2630.528809
2910.030273
0.000000
0.000000
0.000000
0.000000
0.000000
0.000000
873.866028
187.219254
1562.117920
233.512817
0.000000
0.000000
1004.453369
870.185852
199.553970
1027.231567
412.945435
0.000000
0.000000
0.000000
0.000000
0.000000
1413.872070
730.506287
0.000000
199.849976
0.000000
398.934570
874.272339
404.802094
0.000000
0.000000
0.000000
0.000000
0.000000
0.000000
2323.446777
0.000000
0.000000
0.000000
1171.948608
0.000000
0.000000
0.000000
0.000000
0.000000
0.000000
0.000000
380.230133
797.112549
0.000000
0.000000
0.000000
0.000000
82.223442
501.461395
0.000000
0.000000
0.000000
0.000000
0.000000
0.000000
2031.128418
0.000000
819.352478
0.000000
184.557678
201.454971
0.000000
0.000000
717.864990
0.000000
0.000000
0.000000
1348.568848
0.000000
0.000000
0.000000
0.000000
0.000000
0.000000
0.000000
0.000000
0.000000
1271.370483
310.550140
656.712341
804.193176
0.000000
0.000000
1105.568848
0.000000
0.000000
0.000000
859.229736
488.133057
0.000000
0.000000
0.000000
0.000000
0.000000
0.000000
0.000000
0.000000
0.000000
0.000000
970.477905
433.207581
0.000000
0.000000
1767.739990
1314.719971
0.000000
0.000000
1775.839233
1853.465454
0.000000
0.000000
1025.705078
1553.871582
0.000000
0.000000
1401.225586
1071.474487
0.000000
0.000000
0.000000
0.000000
0.000000
0.000000
0.000000
226.785217
0.000000
0.000000
965.724609
1586.396973
0.000000
0.000000
369.565002
0.000000
0.000000
0.000000
0.000000
0.000000
0.000000
0.000000
0.000000
452.641571
0.000000
0.000000
0.000000
56.609570
0.000000
0.000000
856.552917
78.873451
0.000000
0.000000
2390.607666
2010.804565
0.000000
0.000000
1397.486694
811.466675
0.000000
0.000000
1348.982178
1029.888428
0.000000
0.000000
2507.516846
1747.331665
0.000000
0.000000
2088.987305
1460.609375
0.000000
0.000000
618.187256
0.000000
0.000000
0.000000
688.456055
751.777405
0.000000
0.000000
1698.071167
2144.171631
0.000000
0.000000
2544.549805
2480.814697
0.000000
0.000000
2983.712646
2592.332031
0.000000
0.000000
2556.179443
4271.069824
0.000000
0.000000
729.808105
1282.383789
0.000000
0.000000
0.000000
0.000000
0.000000
0.000000
204.117554
372.949860
0.000000
0.000000
613.217407
1281.765747
1247.885742
0.000000
0.000000
0.000000
0.000000
0.000000
0.000000
0.000000
0.000000
0.000000
0.000000
0.000000
0.000000
0.000000
0.000000
0.000000
0.000000
0.000000
0.000000
0.000000
0.000000
0.000000
0.000000
0.000000
0.000000
0.000000
794.261841
809.569763
1194.584351
0.000000
0.000000
0.000000
0.000000
0.000000
0.000000
0.000000
0.000000
0.000000
0.000000
0.000000
0.000000
0.000000
0.000000
0.000000
0.000000
0.000000
0.000000
0.000000
0.000000
0.000000
0.000000
0.000000
0.000000
0.000000
0.000000
0.000000
0.000000
0.000000
0.000000
0.000000
0.000000
0.000000
0.000000
0.000000
0.000000
0.000000
0.000000
0.000000
0.000000
0.000000
0.000000
0.000000
0.000000
0.000000
0.000000
0.000000
0.000000
0.000000
0.000000
0.000000
0.000000
0.000000
0.000000
0.000000
0.000000
0.000000
0.000000
0.000000
0.000000
0.000000
0.000000
0.000000
0.000000
0.000000
0.000000
0.000000
0.000000
0.000000
0.000000
0.000000
0.000000
0.000000
0.000000
0.000000
0.000000
0.000000
0.000000
0.000000
</DataArray>
</PointData>
<Cells>
<DataArray type='Int32' Name='connectivity' format='ascii'>
0
1
2
3
4
5
6
7
8
9
10
11
12
13
14
15
16
17
18
19
20
21
22
23
24
25
26
27
28
29
30
31
32
33
34
35
36
37
38
39
40
41
42
43
44
45
46
47
48
49
50
51
52
53
54
55
56
57
58
59
60
61
62
63
64
65
66
67
68
69
70
71
72
73
74
75
76
77
78
79
80
81
82
83
84
85
86
87
88
89
90
91
92
93
94
95
96
97
98
99
100
101
102
103
104
105
106
107
108
109
110
111
112
113
114
115
116
117
118
119
120
121
122
123
124
125
126
127
128
129
130
131
132
133
134
135
136
137
138
139
140
141
142
143
144
145
146
147
148
149
150
151
152
153
154
155
156
157
158
159
160
161
162
163
164
165
166
167
168
169
170
171
172
173
174
175
176
177
178
179
180
181
182
183
184
185
186
187
188
189
190
191
192
193
194
195
196
197
198
199
200
201
202
203
204
205
206
207
208
209
210
211
212
213
214
215
216
217
218
219
220
221
222
223
224
225
226
227
228
229
230
231
232
233
234
235
236
237
238
239
240
241
242
243
244
245
246
247
248
249
250
251
252
253
254
255
256
257
258
259
260
261
262
263
264
265
266
267
268
269
270
271
272
273
274
275
276
277
278
279
280
281
282
283
284
285
286
287
288
289
290
291
292
293
294
295
296
297
298
299
300
301
302
303
304
305
306
307
308
309
310
311
312
313
314
315
316
317
318
319
320
321
322
323
324
325
326
327
328
329
330
331