<?xml version='1.0' encoding='UTF-8'?>
<VTKFile xmlns='VTK' byte_order='LittleEndian' version='0.1' type='UnstructuredGrid'>
<UnstructuredGrid>
<Piece NumberOfCells='584' NumberOfPoints='584'>
<Points>
<DataArray NumberOfComponents='3' type='Float32' Name='Position' format='ascii'>
-0.075000 -0.075000 0.000000
-0.075000 -0.050000 0.000000
-0.075000 -0.025000 0.000000
-0.075000 0.000000 0.000000
-0.075000 0.025000 0.000000
-0.075000 0.050000 0.000000
-0.075000 0.075000 0.000000
-0.075000 0.100000 0.000000
-0.075000 0.125000 0.000000
-0.075000 0.150000 0.000000
-0.075000 0.175000 0.000000
-0.075000 0.200000 0.000000
-0.075000 0.225000 0.000000
-0.075000 0.250000 0.000000
-0.075000 0.275000 0.000000
-0.075000 0.300000 0.000000
-0.075000 0.325000 0.000000
-0.075000 0.350000 0.000000
-0.075000 0.375000 0.000000
-0.075000 0.400000 0.000000
-0.075000 0.425000 0.000000
-0.075000 0.450000 0.000000
-0.075000 0.475000 0.000000
-0.075000 0.500000 0.000000
-0.075000 0.525000 0.000000
-0.075000 0.550000 0.000000
-0.075000 0.575000 0.000000
-0.075000 0.600000 0.000000
-0.050000 -0.075000 0.000000
-0.050000 -0.050000 0.000000
-0.050000 -0.025000 0.000000
-0.050000 0.000000 0.000000
-0.050000 0.025000 0.000000
-0.050000 0.050000 0.000000
-0.050000 0.075000 0.000000
-0.050000 0.100000 0.000000
-0.050000 0.125000 0.000000
-0.050000 0.150000 0.000000
-0.050000 0.175000 0.000000
-0.050000 0.200000 0.000000
-0.050000 0.225000 0.000000
-0.050000 0.250000 0.000000
-0.050000 0.275000 0.000000
-0.050000 0.300000 0.000000
-0.050000 0.325000 0.000000
-0.050000 0.350000 0.000000
-0.050000 0.375000 0.000000
-0.050000 0.400000 0.000000
-0.050000 0.425000 0.000000
-0.050000 0.450000 0.000000
-0.050000 0.475000 0.000000
-0.050000 0.500000 0.000000
-0.050000 0.525000 0.000000
-0.050000 0.550000 0.000000
-0.050000 0.575000 0.000000
-0.050000 0.600000 0.000000
-0.025000 -0.075000 0.000000
-0.025000 -0.050000 0.000000
-0.025000 -0.025000 0.000000
-0.025000 0.000000 0.000000
-0.025000 0.025000 0.000000
-0.025000 0.050000 0.000000
-0.025000 0.075000 0.000000
-0.025000 0.100000 0.000000
-0.025000 0.125000 0.000000
-0.025000 0.150000 0.000000
-0.025000 0.175000 0.000000
-0.025000 0.200000 0.000000
-0.025000 0.225000 0.000000
-0.025000 0.250000 0.000000
-0.025000 0.275000 0.000000
-0.025000 0.300000 0.000000
-0.025000 0.325000 0.000000
-0.025000 0.350000 0.000000
-0.025000 0.375000 0.000000
-0.025000 0.400000 0.000000
-0.025000 0.425000 0.000000
-0.025000 0.450000 0.000000
-0.025000 0.475000 0.000000
-0.025000 0.500000 0.000000
-0.025000 0.525000 0.000000
-0.025000 0.550000 0.000000
-0.025000 0.575000 0.000000
-0.025000 0.600000 0.000000
0.000000 -0.075000 0.000000
0.000000 -0.050000 0.000000
0.000000 -0.025000 0.000000
0.000000 0.000000 0.000000
0.000000 0.025000 0.000000
0.000000 0.050000 0.000000
0.000000 0.075000 0.000000
0.000000 0.100000 0.000000
0.000000 0.125000 0.000000
0.000000 0.150000 0.000000
0.000000 0.175000 0.000000
0.000000 0.200000 0.000000
0.000000 0.225000 0.000000
0.000000 0.250000 0.000000
0.000000 0.275000 0.000000
0.000000 0.300000 0.000000
0.000000 0.325000 0.000000
0.000000 0.350000 0.000000
0.000000 0.375000 0.000000
0.000000 0.400000 0.000000
0.000000 0.425000 0.000000
0.000000 0.450000 0.000000
0.000000 0.475000 0.000000
0.000000 0.500000 0.000000
0.000000 0.525000 0.000000
0.000000 0.550000 0.000000
0.000000 0.575000 0.000000
0.000000 0.600000 0.000000
0.025000 -0.075000 0.000000
0.025000 -0.050000 0.000000
0.025000 -0.025000 0.000000
0.025000 0.000000 0.000000
0.053565 0.023733 0.000000
0.024864 0.024363 0.000000
0.057361 0.042994 0.000000
0.027915 0.046872 0.000000
0.070732 0.058162 0.000000
0.026722 0.066689 0.000000
0.069868 0.081796 0.000000
0.034680 0.085217 0.000000
0.059006 0.098311 0.000000
0.024509 0.104161 0.000000
0.047280 0.119953 0.000000
0.026755 0.129539 0.000000
0.026797 0.151522 0.000000
0.022359 0.176003 0.000000
0.029772 0.199741 0.000000
0.024057 0.222604 0.000000
0.031536 0.242434 0.000000
0.023010 0.263743 0.000000
0.030763 0.288357 0.000000
0.024457 0.304031 0.000000
0.050000 -0.075000 0.000000
0.050000 -0.050000 0.000000
0.050000 -0.025000 0.000000
0.050000 0.000000 0.000000
0.113378 0.034231 0.000000
0.089725 0.020230 0.000000
0.090813 0.043136 0.000000
0.152548 0.076469 0.000000
0.094242 0.070760 0.000000
0.112595 0.085785 0.000000
0.091064 0.101464 0.000000
0.116312 0.108398 0.000000
0.074860 0.121772 0.000000
0.091217 0.132289 0.000000
0.063897 0.147601 0.000000
0.082096 0.161223 0.000000
0.048885 0.164337 0.000000
0.075230 0.180398 0.000000
0.050144 0.189623 0.000000
0.067599 0.208073 0.000000
0.054664 0.227287 0.000000
0.062373 0.248308 0.000000
0.052432 0.269953 0.000000
0.057608 0.292955 0.000000
0.075000 -0.075000 0.000000
0.075000 -0.050000 0.000000
0.075000 -0.025000 0.000000
0.075000 0.000000 0.000000
0.135269 0.021913 0.000000
0.122092 0.065730 0.000000
0.172542 0.023681 0.000000
0.132197 0.046201 0.000000
0.166589 0.060925 0.000000
0.175900 0.087488 0.000000
0.198233 0.096197 0.000000
0.140386 0.095518 0.000000
0.162466 0.106709 0.000000
0.124513 0.130973 0.000000
0.142772 0.148723 0.000000
0.109272 0.148020 0.000000
0.116298 0.171007 0.000000
0.101940 0.190635 0.000000
0.090484 0.209272 0.000000
0.086843 0.231698 0.000000
0.101678 0.246972 0.000000
0.083493 0.263107 0.000000
0.095956 0.288367 0.000000
0.077170 0.287323 0.000000
0.100000 -0.075000 0.000000
0.100000 -0.050000 0.000000
0.100000 -0.025000 0.000000
0.100000 0.000000 0.000000
0.222570 0.025733 0.000000
0.200643 0.023549 0.000000
0.194435 0.049154 0.000000
0.226907 0.065577 0.000000
0.160588 0.038702 0.000000
0.258210 0.063842 0.000000
0.198811 0.066399 0.000000
0.223692 0.084460 0.000000
0.187721 0.117300 0.000000
0.210918 0.129352 0.000000
0.148398 0.126340 0.000000
0.184877 0.139029 0.000000
0.168020 0.150620 0.000000
0.154170 0.171591 0.000000
0.132375 0.183280 0.000000
0.123498 0.205952 0.000000
0.136993 0.222131 0.000000
0.121422 0.241133 0.000000
0.125388 0.267502 0.000000
0.118092 0.287999 0.000000
0.125000 -0.075000 0.000000
0.125000 -0.050000 0.000000
0.125000 -0.025000 0.000000
0.125000 0.000000 0.000000
0.288988 0.021061 0.000000
0.257903 0.024018 0.000000
0.325692 0.022861 0.000000
0.298072 0.038964 0.000000
0.322384 0.049987 0.000000
0.232312 0.043933 0.000000
0.262428 0.042888 0.000000
0.277193 0.077794 0.000000
0.242818 0.096590 0.000000
0.222919 0.114896 0.000000
0.251710 0.126312 0.000000
0.224618 0.152873 0.000000
0.194580 0.166698 0.000000
0.175301 0.181934 0.000000
0.180574 0.207286 0.000000
0.154767 0.206646 0.000000
0.181623 0.228721 0.000000
0.153958 0.237474 0.000000
0.160709 0.264718 0.000000
0.145753 0.266256 0.000000
0.150000 -0.075000 0.000000
0.150000 -0.050000 0.000000
0.150000 -0.025000 0.000000
0.150000 0.000000 0.000000
0.399355 0.020807 0.000000
0.356604 0.023131 0.000000
0.383922 0.036995 0.000000
0.344906 0.041261 0.000000
0.367096 0.049453 0.000000
0.411221 0.051867 0.000000
0.319343 0.068787 0.000000
0.360929 0.073266 0.000000
0.290977 0.061606 0.000000
0.320713 0.090793 0.000000
0.289480 0.096129 0.000000
0.263516 0.099588 0.000000
0.273311 0.127140 0.000000
0.245003 0.146091 0.000000
0.231519 0.170572 0.000000
0.220605 0.185235 0.000000
0.199870 0.188159 0.000000
0.209793 0.219775 0.000000
0.200679 0.242773 0.000000
0.180150 0.256608 0.000000
0.175000 -0.075000 0.000000
0.175000 -0.050000 0.000000
0.175000 -0.025000 0.000000
0.175000 0.000000 0.000000
0.501699 0.033506 0.000000
0.442003 0.021858 0.000000
0.475530 0.056555 0.000000
0.479217 0.021908 0.000000
0.460951 0.036718 0.000000
0.422713 0.037712 0.000000
0.446792 0.055771 0.000000
0.438180 0.077458 0.000000
0.395889 0.067865 0.000000
0.408297 0.084023 0.000000
0.342055 0.092815 0.000000
0.350895 0.111685 0.000000
0.305213 0.110570 0.000000
0.308663 0.133392 0.000000
0.282119 0.145144 0.000000
0.278079 0.166686 0.000000
0.269109 0.184456 0.000000
0.243289 0.206129 0.000000
0.235533 0.232366 0.000000
0.219204 0.242724 0.000000
0.200000 -0.075000 0.000000
0.200000 -0.050000 0.000000
0.200000 -0.025000 0.000000
0.200000 0.000000 0.000000
0.709019 0.040979 0.000000
0.569278 0.020687 0.000000
0.640637 0.030040 0.000000
0.523846 0.021252 0.000000
0.613708 0.020115 0.000000
0.602355 0.035692 0.000000
0.544458 0.039686 0.000000
0.515700 0.047379 0.000000
0.478020 0.072951 0.000000
0.461805 0.091065 0.000000
0.433616 0.095887 0.000000
0.372464 0.085709 0.000000
0.401911 0.103951 0.000000
0.377419 0.114716 0.000000
0.332675 0.123740 0.000000
0.348067 0.145345 0.000000
0.313715 0.151374 0.000000
0.302526 0.178331 0.000000
0.288346 0.196977 0.000000
0.252589 0.221775 0.000000
0.225000 -0.075000 0.000000
0.225000 -0.050000 0.000000
0.225000 -0.025000 0.000000
0.225000 0.000000 0.000000
0.730155 0.024049 0.000000
0.754389 0.055835 0.000000
0.690317 0.027251 0.000000
0.659563 0.064599 0.000000
0.667520 0.024300 0.000000
0.658993 0.082589 0.000000
0.659219 0.042690 0.000000
0.609844 0.054538 0.000000
0.563816 0.038891 0.000000
0.579125 0.064608 0.000000
0.547084 0.066799 0.000000
0.517552 0.065716 0.000000
0.501697 0.092067 0.000000
0.482220 0.108715 0.000000
0.431666 0.120423 0.000000
0.402776 0.132237 0.000000
0.381385 0.135250 0.000000
0.349932 0.165946 0.000000
0.321347 0.185527 0.000000
0.267669 0.205107 0.000000
0.250000 -0.075000 0.000000
0.250000 -0.050000 0.000000
0.250000 -0.025000 0.000000
0.250000 0.000000 0.000000
0.815689 0.035158 0.000000
0.809143 0.021001 0.000000
0.756002 0.022305 0.000000
0.784616 0.033544 0.000000
0.771967 0.039904 0.000000
0.732135 0.047549 0.000000
0.714670 0.073301 0.000000
0.704775 0.059429 0.000000
0.662039 0.099291 0.000000
0.636749 0.059806 0.000000
0.618489 0.091204 0.000000
0.605207 0.071622 0.000000
0.571878 0.081199 0.000000
0.553507 0.083368 0.000000
0.523470 0.097200 0.000000
0.497083 0.109144 0.000000
0.454553 0.131540 0.000000
0.420083 0.130619 0.000000
0.371121 0.151253 0.000000
0.334009 0.173211 0.000000
0.275000 -0.075000 0.000000
0.275000 -0.050000 0.000000
0.275000 -0.025000 0.000000
0.275000 0.000000 0.000000
0.300000 -0.075000 0.000000
0.300000 -0.050000 0.000000
0.300000 -0.025000 0.000000
0.300000 0.000000 0.000000
0.325000 -0.075000 0.000000
0.325000 -0.050000 0.000000
0.325000 -0.025000 0.000000
0.325000 0.000000 0.000000
0.350000 -0.075000 0.000000
0.350000 -0.050000 0.000000
0.350000 -0.025000 0.000000
0.350000 0.000000 0.000000
0.375000 -0.075000 0.000000
0.375000 -0.050000 0.000000
0.375000 -0.025000 0.000000
0.375000 0.000000 0.000000
0.400000 -0.075000 0.000000
0.400000 -0.050000 0.000000
0.400000 -0.025000 0.000000
0.400000 0.000000 0.000000
0.425000 -0.075000 0.000000
0.425000 -0.050000 0.000000
0.425000 -0.025000 0.000000
0.425000 0.000000 0.000000
0.450000 -0.075000 0.000000
0.450000 -0.050000 0.000000
0.450000 -0.025000 0.000000
0.450000 0.000000 0.000000
0.475000 -0.075000 0.000000
0.475000 -0.050000 0.000000
0.475000 -0.025000 0.000000
0.475000 0.000000 0.000000
0.500000 -0.075000 0.000000
0.500000 -0.050000 0.000000
0.500000 -0.025000 0.000000
0.500000 0.000000 0.000000
0.525000 -0.075000 0.000000
0.525000 -0.050000 0.000000
0.525000 -0.025000 0.000000
0.525000 0.000000 0.000000
0.550000 -0.075000 0.000000
0.550000 -0.050000 0.000000
0.550000 -0.025000 0.000000
0.550000 0.000000 0.000000
0.575000 -0.075000 0.000000
0.575000 -0.050000 0.000000
0.575000 -0.025000 0.000000
0.575000 0.000000 0.000000
0.600000 -0.075000 0.000000
0.600000 -0.050000 0.000000
0.600000 -0.025000 0.000000
0.600000 0.000000 0.000000
0.625000 -0.075000 0.000000
0.625000 -0.050000 0.000000
0.625000 -0.025000 0.000000
0.625000 0.000000 0.000000
0.650000 -0.075000 0.000000
0.650000 -0.050000 0.000000
0.650000 -0.025000 0.000000
0.650000 0.000000 0.000000
0.675000 -0.075000 0.000000
0.675000 -0.050000 0.000000
0.675000 -0.025000 0.000000
0.675000 0.000000 0.000000
0.700000 -0.075000 0.000000
0.700000 -0.050000 0.000000
0.700000 -0.025000 0.000000
0.700000 0.000000 0.000000
0.725000 -0.075000 0.000000
0.725000 -0.050000 0.000000
0.725000 -0.025000 0.000000
0.725000 0.000000 0.000000
0.750000 -0.075000 0.000000
0.750000 -0.050000 0.000000
0.750000 -0.025000 0.000000
0.750000 0.000000 0.000000
0.775000 -0.075000 0.000000
0.775000 -0.050000 0.000000
0.775000 -0.025000 0.000000
0.775000 0.000000 0.000000
0.800000 -0.075000 0.000000
0.800000 -0.050000 0.000000
0.800000 -0.025000 0.000000
0.800000 0.000000 0.000000
0.825000 -0.075000 0.000000
0.825000 -0.050000 0.000000
0.825000 -0.025000 0.000000
0.825000 0.000000 0.000000
0.850000 -0.075000 0.000000
0.850000 -0.050000 0.000000
0.850000 -0.025000 0.000000
0.850000 0.000000 0.000000
0.875000 -0.075000 0.000000
0.875000 -0.050000 0.000000
0.875000 -0.025000 0.000000
0.875000 0.000000 0.000000
0.900000 -0.075000 0.000000
0.900000 -0.050000 0.000000
0.900000 -0.025000 0.000000
0.900000 0.000000 0.000000
0.925000 -0.075000 0.000000
0.925000 -0.050000 0.000000
0.925000 -0.025000 0.000000
0.925000 0.000000 0.000000
0.950000 -0.075000 0.000000
0.950000 -0.050000 0.000000
0.950000 -0.025000 0.000000
0.950000 0.000000 0.000000
0.975000 -0.075000 0.000000
0.975000 -0.050000 0.000000
0.975000 -0.025000 0.000000
0.975000 0.000000 0.000000
1.000000 -0.075000 0.000000
1.000000 -0.050000 0.000000
1.000000 -0.025000 0.000000
1.000000 0.000000 0.000000
1.025000 -0.075000 0.000000
1.025000 -0.050000 0.000000
1.025000 -0.025000 0.000000
1.025000 0.000000 0.000000
1.025000 0.025000 0.000000
1.025000 0.050000 0.000000
1.025000 0.075000 0.000000
1.025000 0.100000 0.000000
1.025000 0.125000 0.000000
1.025000 0.150000 0.000000
1.025000 0.175000 0.000000
1.025000 0.200000 0.000000
1.025000 0.225000 0.000000
1.025000 0.250000 0.000000
1.025000 0.275000 0.000000
1.025000 0.300000 0.000000
1.025000 0.325000 0.000000
1.025000 0.350000 0.000000
1.025000 0.375000 0.000000
1.025000 0.400000 0.000000
1.025000 0.425000 0.000000
1.025000 0.450000 0.000000
1.025000 0.475000 0.000000
1.025000 0.500000 0.000000
1.025000 0.525000 0.000000
1.025000 0.550000 0.000000
1.025000 0.575000 0.000000
1.025000 0.600000 0.000000
1.050000 -0.075000 0.000000
1.050000 -0.050000 0.000000
1.050000 -0.025000 0.000000
1.050000 0.000000 0.000000
1.050000 0.025000 0.000000
1.050000 0.050000 0.000000
1.050000 0.075000 0.000000
1.050000 0.100000 0.000000
1.050000 0.125000 0.000000
1.050000 0.150000 0.000000
1.050000 0.175000 0.000000
1.050000 0.200000 0.000000
1.050000 0.225000 0.000000
1.050000 0.250000 0.000000
1.050000 0.275000 0.000000
1.050000 0.300000 0.000000
1.050000 0.325000 0.000000
1.050000 0.350000 0.000000
1.050000 0.375000 0.000000
1.050000 0.400000 0.000000
1.050000 0.425000 0.000000
1.050000 0.450000 0.000000
1.050000 0.475000 0.000000
1.050000 0.500000 0.000000
1.050000 0.525000 0.000000
1.050000 0.550000 0.000000
1.050000 0.575000 0.000000
1.050000 0.600000 0.000000
1.075000 -0.075000 0.000000
1.075000 -0.050000 0.000000
1.075000 -0.025000 0.000000
1.075000 0.000000 0.000000
1.075000 0.025000 0.000000
1.075000 0.050000 0.000000
1.075000 0.075000 0.000000
1.075000 0.100000 0.000000
1.075000 0.125000 0.000000
1.075000 0.150000 0.000000
1.075000 0.175000 0.000000
1.075000 0.200000 0.000000
1.075000 0.225000 0.000000
1.075000 0.250000 0.000000
1.075000 0.275000 0.000000
1.075000 0.300000 0.000000
1.075000 0.325000 0.000000
1.075000 0.350000 0.000000
1.075000 0.375000 0.000000
1.075000 0.400000 0.000000
1.075000 0.425000 0.000000
1.075000 0.450000 0.000000
1.075000 0.475000 0.000000
1.075000 0.500000 0.000000
1.075000 0.525000 0.000000
1.075000 0.550000 0.000000
1.075000 0.575000 0.000000
1.075000 0.600000 0.000000
1.100000 -0.075000 0.000000
1.100000 -0.050000 0.000000
1.100000 -0.025000 0.000000
1.100000 0.000000 0.000000
1.100000 0.025000 0.000000
1.100000 0.050000 0.000000
1.100000 0.075000 0.000000
1.100000 0.100000 0.000000
1.100000 0.125000 0.000000
1.100000 0.150000 0.000000
1.100000 0.175000 0.000000
1.100000 0.200000 0.000000
1.100000 0.225000 0.000000
1.100000 0.250000 0.000000
1.100000 0.275000 0.000000
1.100000 0.300000 0.000000
1.100000 0.325000 0.000000
1.100000 0.350000 0.000000
1.100000 0.375000 0.000000
1.100000 0.400000 0.000000
1.100000 0.425000 0.000000
1.100000 0.450000 0.000000
1.100000 0.475000 0.000000
1.100000 0.500000 0.000000
1.100000 0.525000 0.000000
1.100000 0.550000 0.000000
1.100000 0.575000 0.000000
1.100000 0.600000 0.000000
</DataArray>
</Points>
<PointData>
<DataArray NumberOfComponents='1' type='Int32' Name='ParticleType' format='ascii'>
3
3
3
3
3
3
3
3
3
3
3
3
3
3
3
3
3
3
3
3
3
3
3
3
3
3
2
2
3
3
3
3
3
3
3
3
3
3
3
3
3
3
3
3
3
3
3
3
3
3
3
3
3
3
2
2
3
3
2
2
2
2
2
2
2
2
2
2
2
2
2
2
2
2
2
2
2
2
2
2
2
2
2
2
3
3
2
2
2
2
2
2
2
2
2
2
2
2
2
2
2
2
2
2
2
2
2
2
2
2
2
2
3
3
2
2
0
0
0
0
0
0
0
0
0
0
0
0
0
0
0
0
0
0
0
0
3
3
2
2
0
0
0
0
0
0
0
0
0
0
0
0
0
0
0
0
0
0
0
0
3
3
2
2
0
0
0
0
0
0
0
0
0
0
0
0
0
0
0
0
0
0
0
0
3
3
2
2
0
0
0
0
0
0
0
0
0
0
0
0
0
0
0
0
0
0
0
0
3
3
2
2
0
0
0
0
0
0
0
0
0
0
0
0
0
0
0
0
0
0
0
0
3
3
2
2
0
0
0
0
0
0
0
0
0
0
0
0
0
0
0
0
0
0
0
0
3
3
2
2
0
0
0
0
0
0
0
0
0
0
0
0
0
0
0
0
0
0
0
0
3
3
2
2
0
0
0
0
0
0
0
0
0
0
0
0
0
0
0
0
0
0
0
0
3
3
2
2
0
0
0
0
0
0
0
0
0
0
0
0
0
0
0
0
0
0
0
0
3
3
2
2
0
0
0
0
0
0
0
0
0
0
0
0
0
0
0
0
0
0
0
0
3
3
2
2
3
3
2
2
3
3
2
2
3
3
2
2
3
3
2
2
3
3
2
2
3
3
2
2
3
3
2
2
3
3
2
2
3
3
2
2
3
3
2
2
3
3
2
2
3
3
2
2
3
3
2
2
3
3
2
2
3
3
2
2
3
3
2
2
3
3
2
2
3
3
2
2
3
3
2
2
3
3
2
2
3
3
2
2
3
3
2
2
3
3
2
2
3
3
2
2
3
3
2
2
3
3
2
2
3
3
2
2
3
3
2
2
3
3
2
2
3
3
2
2
2
2
2
2
2
2
2
2
2
2
2
2
2
2
2
2
2
2
2
2
2
2
2
2
3
3
2
2
2
2
2
2
2
2
2
2
2
2
2
2
2
2
2
2
2
2
2
2
2
2
2
2
3
3
3
3
3
3
3
3
3
3
3
3
3
3
3
3
3
3
3
3
3
3
3
3
3
3
2
2
3
3
3
3
3
3
3
3
3
3
3
3
3
3
3
3
3
3
3
3
3
3
3
3
3
3
2
2
</DataArray>
<DataArray NumberOfComponents='1' type='Float32' Name='Velocity' format='ascii'>
0.000000
0.000000
0.000000
0.000000
0.000000
0.000000
0.000000
0.000000
0.000000
0.000000
0.000000
0.000000
0.000000
0.000000
0.000000
0.000000
0.000000
0.000000
0.000000
0.000000
0.000000
0.000000
0.000000
0.000000
0.000000
0.000000
0.000000
0.000000
0.000000
0.000000
0.000000
0.000000
0.000000
0.000000
0.000000
0.000000
0.000000
0.000000
0.000000
0.000000
0.000000
0.000000
0.000000
0.000000
0.000000
0.000000
0.000000
0.000000
0.000000
0.000000
0.000000
0.000000
0.000000
0.000000
0.000000
0.000000
0.000000
0.000000
0.000000
0.000000
0.000000
0.000000
0.000000
0.000000
0.000000
0.000000
0.000000
0.000000
0.000000
0.000000
0.000000
0.000000
0.000000
0.000000
0.000000
0.000000
0.000000
0.000000
0.000000
0.000000
0.000000
0.000000
0.000000
0.000000
0.000000
0.000000
0.000000
0.000000
0.000000
0.000000
0.000000
0.000000
0.000000
0.000000
0.000000
0.000000
0.000000
0.000000
0.000000
0.000000
0.000000
0.000000
0.000000
0.000000
0.000000
0.000000
0.000000
0.000000
0.000000
0.000000
0.000000
0.000000
0.000000
0.000000
0.000000
0.000000
0.499415
0.233324
0.227324
0.356395
0.259244
0.251069
0.356031
0.581377
0.117569
0.476323
0.724362
0.776364
0.821945
0.799614
0.581444
0.610613
0.651016
0.685465
0.710713
0.707575
0.000000
0.000000
0.000000
0.000000
0.201373
0.339294
0.519177
0.634643
0.235139
0.403159
0.478976
0.290527
0.322252
0.578965
0.262573
0.441992
0.515079
0.418534
0.859164
0.641010
0.775915
0.810044
0.706913
0.840491
0.000000
0.000000
0.000000
0.000000
0.590896
0.312882
0.514271
0.241549
0.341518
0.967243
0.741068
0.428855
0.744123
0.705307
0.712248
0.500905
0.569734
0.373510
0.395533
0.233122
0.682683
0.570357
0.686921
0.971804
0.000000
0.000000
0.000000
0.000000
0.489299
0.445249
0.403655
0.989540
0.219140
0.881218
0.579344
1.088097
0.837210
0.792877
0.601962
0.714736
1.122964
0.637661
0.700003
0.479089
0.935516
0.818438
0.695762
0.934352
0.000000
0.000000
0.000000
0.000000
1.549790
0.446741
1.100979
1.447739
1.285462
0.596941
0.808337
1.416221
0.913910
0.733748
0.674753
1.092117
0.761926
0.384363
0.340314
0.773539
1.031943
0.738341
0.909756
1.121858
0.000000
0.000000
0.000000
0.000000
1.673355
1.519437
1.973349
1.902356
1.645061
1.996408
1.286488
1.723219
0.988990
1.488473
1.020562
1.125507
1.411603
1.512461
0.927282
0.815583
1.043185
1.160727
1.104010
1.134095
0.000000
0.000000
0.000000
0.000000
2.378157
2.059419
1.861335
2.463595
2.258158
1.717245
2.431278
2.226962
1.931354
2.160379
1.336659
1.676208
1.155913
1.418268
0.963815
1.288484
1.235398
1.092921
1.141353
1.457187
0.000000
0.000000
0.000000
0.000000
2.853506
2.615731
3.076378
2.339108
2.838468
2.910406
2.601820
2.579209
1.993593
2.447198
1.996803
1.443197
2.073558
1.713539
1.124320
1.801087
1.510355
1.441850
1.690651
1.243341
0.000000
0.000000
0.000000
0.000000
2.762363
2.928003
3.002038
2.418330
2.652386
2.753818
3.003182
2.842235
2.556531
2.774591
2.826078
2.584571
2.659652
2.437890
1.961780
1.835314
2.008154
1.983264
1.483101
1.240279
0.000000
0.000000
0.000000
0.000000
2.796289
3.259138
2.985761
2.954994
2.700383
2.949969
2.702033
2.705640
2.614710
2.646708
2.882687
2.908784
2.554694
2.960359
3.024578
2.579443
2.478918
1.842720
1.600382
1.645022
0.000000
0.000000
0.000000
0.000000
0.000000
0.000000
0.000000
0.000000
0.000000
0.000000
0.000000
0.000000
0.000000
0.000000
0.000000
0.000000
0.000000
0.000000
0.000000
0.000000
0.000000
0.000000
0.000000
0.000000
0.000000
0.000000
0.000000
0.000000
0.000000
0.000000
0.000000
0.000000
0.000000
0.000000
0.000000
0.000000
0.000000
0.000000
0.000000
0.000000
0.000000
0.000000
0.000000
0.000000
0.000000
0.000000
0.000000
0.000000
0.000000
0.000000
0.000000
0.000000
0.000000
0.000000
0.000000
0.000000
0.000000
0.000000
0.000000
0.000000
0.000000
0.000000
0.000000
0.000000
0.000000
0.000000
0.000000
0.000000
0.000000
0.000000
0.000000
0.000000
0.000000
0.000000
0.000000
0.000000
0.000000
0.000000
0.000000
0.000000
0.000000
0.000000
0.000000
0.000000
0.000000
0.000000
0.000000
0.000000
0.000000
0.000000
0.000000
0.000000
0.000000
0.000000
0.000000
0.000000
0.000000
0.000000
0.000000
0.000000
0.000000
0.000000
0.000000
0.000000
0.000000
0.000000
0.000000
0.000000
0.000000
0.000000
0.000000
0.000000
0.000000
0.000000
0.000000
0.000000
0.000000
0.000000
0.000000
0.000000
0.000000
0.000000
0.000000
0.000000
0.000000
0.000000
0.000000
0.000000
0.000000
0.000000
0.000000
0.000000
0.000000
0.000000
0.000000
0.000000
0.000000
0.000000
0.000000
0.000000
0.000000
0.000000
0.000000
0.000000
0.000000
0.000000
0.000000
0.000000
0.000000
0.000000
0.000000
0.000000
0.000000
0.000000
0.000000
0.000000
0.000000
0.000000
0.000000
0.000000
0.000000
0.000000
0.000000
0.000000
0.000000
0.000000
0.000000
0.000000
0.000000
0.000000
0.000000
0.000000
0.000000
0.000000
0.000000
0.000000
0.000000
0.000000
0.000000
0.000000
0.000000
0.000000
0.000000
0.000000
0.000000
0.000000
0.000000
0.000000
0.000000
0.000000
0.000000
0.000000
0.000000
0.000000
0.000000
0.000000
0.000000
0.000000
0.000000
0.000000
0.000000
0.000000
0.000000
0.000000
0.000000
0.000000
0.000000
0.000000
0.000000
0.000000
0.000000
0.000000
0.000000
0.000000
0.000000
0.000000
0.000000
0.000000
0.000000
0.000000
0.000000
0.000000
0.000000
0.000000
0.000000
0.000000
0.000000
0.000000
0.000000
0.000000
0.000000
0.000000
</DataArray>
<DataArray NumberOfComponents='1' type='Float32' Name='pressure' format='ascii'>
0.000000
0.000000
0.000000
0.000000
0.000000
0.000000
0.000000
0.000000
0.000000
0.000000
0.000000
0.000000
0.000000
0.000000
0.000000
0.000000
0.000000
0.000000
0.000000
0.000000
0.000000
0.000000
0.000000
0.000000
0.000000
0.000000
0.000000
0.000000
0.000000
0.000000
0.000000
0.000000
0.000000
0.000000
0.000000
0.000000
0.000000
0.000000
0.000000
0.000000
0.000000
0.000000
0.000000
0.000000
0.000000
0.000000
0.000000
0.000000
0.000000
0.000000
0.000000
0.000000
0.000000
0.000000
0.000000
0.000000
0.000000
0.000000
3556.730957
3286.212402
2700.589844
1059.756592
466.997742
1071.411499
466.468719
700.419373
2138.932861
183.981918
915.986633
333.492981
75.638870
0.000000
0.000000
0.000000
0.000000
0.000000
0.000000
0.000000
0.000000
0.000000
0.000000
0.000000
0.000000
0.000000
0.000000
0.000000
3733.187256
3774.852295
3170.520020
1609.367920
577.550720
852.665710
787.765320
1152.877563
2690.442871
0.000000
920.261169
40.283001
362.335358
0.000000
0.000000
0.000000
0.000000
0.000000
0.000000
0.000000
0.000000
0.000000
0.000000
0.000000
0.000000
0.000000
0.000000
0.000000
4084.731689
4224.158203
2202.047607
4297.267090
2882.064209
3243.124512
2079.120117
2870.154297
2154.014893
2125.017822
2906.144775
2796.189209
847.578308
3129.696777
2012.017334
2328.549561
1480.934082
1466.761597
346.888611
1440.799805
73.078049
0.000000
0.000000
0.000000
4353.583984
3175.634521
3242.873779
3741.563477
3284.948975
2690.338379
2923.980713
3383.704590
1187.489014
2715.062744
1982.777832
2024.207764
736.047729
1778.836792
1650.169556
1020.229614
1389.836670
1297.730103
0.000000
996.763489
0.000000
0.000000
0.000000
0.000000
4971.012695
2767.420654
2974.187256
2037.517090
3084.806885
3013.704590
2350.828857
2503.048096
1863.261353
990.042114
2785.662598
2198.713867
2019.035522
1079.343750
1891.280029
0.000000
1860.232178
0.000000
421.764374
1188.120972
0.000000
0.000000
0.000000
0.000000
5476.374023
4716.061035
2475.202881
3243.481934
3211.997803
3118.692383
2887.286133
814.965149
2259.086670
3661.573975
1494.612183
1903.553589
1590.654663
1529.533325
2504.559570
638.940002
1604.281616
226.334229
1143.630737
0.000000
0.000000
0.000000
0.000000
0.000000
4567.520508
2593.747314
4637.097168
1075.979980
993.132263
3580.482422
2608.404785
1843.543701
3337.541992
4056.268555
1533.448486
1898.587158
1537.554443
1389.736694
648.092407
1319.247681
0.000000
0.000000
1744.009644
370.706665
0.000000
334.242767
0.000000
0.000000
3933.174561
2111.475342
359.717468
3172.778076
1391.495361
2625.700684
863.892029
1332.248779
1383.408325
2396.644043
1755.940674
2616.103760
2215.843506
2143.427246
1289.924072
0.000000
0.000000
0.000000
2128.652588
0.000000
0.000000
0.000000
0.000000
0.000000
4079.257324
3686.054443
0.000000
865.552246
577.111389
0.000000
1173.675659
1810.092896
0.000000
1247.282227
2021.099365
2972.061523
1638.440063
1796.117065
2728.633545
2560.801514
0.000000
0.000000
1926.353394
0.000000
0.000000
0.000000
0.000000
0.000000
3986.845215
4993.781738
345.930664
0.000000
0.000000
0.000000
150.062195
0.000000
222.528870
553.939941
809.377930
0.000000
1185.238892
803.649780
3448.822266
2100.483154
0.000000
1291.201538
2392.597168
598.223267
0.000000
0.000000
0.000000
0.000000
2761.409912
1971.914185
0.000000
0.000000
0.000000
0.000000
807.971680
0.000000
524.815796
674.636353
0.000000
0.000000
310.874573
0.000000
0.000000
0.000000
1560.233032
0.000000
2191.080566
0.000000
0.000000
0.000000
0.000000
0.000000
3065.260254
589.487305
0.000000
0.000000
2054.752197
0.000000
1022.021423
0.000000
0.000000
0.000000
0.000000
0.000000
0.000000
0.000000
0.000000
0.000000
0.000000
0.000000
0.000000
2419.388184
0.000000
0.000000
0.000000
0.000000
4382.655273
4059.528320
0.000000
0.000000
4857.264648
4214.456543
0.000000
0.000000
4315.017090
4079.269531
0.000000
0.000000
3203.095947
1904.852539
0.000000
0.000000
1836.040894
0.000000
0.000000
0.000000
3375.127197
2302.169434
0.000000
0.000000
1942.695068
0.000000
0.000000
0.000000
2672.168701
2240.392090
0.000000
0.000000
2430.175049
2357.895020
0.000000
0.000000
519.158508
0.000000
0.000000
0.000000
1592.846069
1.321569
0.000000
0.000000
381.326080
0.000000
0.000000
0.000000
1776.273315
280.564270
0.000000
0.000000
1391.310303
0.000000
0.000000
0.000000
1213.483398
58.886040
0.000000
0.000000
0.000000
0.000000
0.000000
0.000000
0.000000
0.000000
0.000000
0.000000
0.000000
0.000000
0.000000
0.000000
1.938282
0.000000
0.000000
0.000000
1044.510620
1508.903076
0.000000
0.000000
95.882690
0.000000
0.000000
0.000000
1481.291016
1350.967041
0.000000
0.000000
558.448914
0.000000
0.000000
0.000000
0.000000
0.000000
0.000000
0.000000
0.000000
0.000000
0.000000
0.000000
0.000000
0.000000
0.000000
0.000000
0.000000
0.000000
0.000000
0.000000
0.000000
0.000000
0.000000
0.000000
0.000000
0.000000
0.000000
0.000000
0.000000
0.000000
0.000000
0.000000
0.000000
0.000000
0.000000
0.000000
0.000000
0.000000
0.000000
0.000000
0.000000
0.000000
0.000000
0.000000
0.000000
0.000000
0.000000
0.000000
0.000000
0.000000
0.000000
0.000000
0.000000
0.000000
0.000000
0.000000
0.000000
0.000000
0.000000
0.000000
0.000000
0.000000
0.000000
0.000000
0.000000
0.000000
0.000000
0.000000
0.000000
0.000000
0.000000
0.000000
0.000000
0.000000
0.000000
0.000000
0.000000
0.000000
0.000000
0.000000
0.000000
0.000000
0.000000
0.000000
0.000000
0.000000
0.000000
0.000000
0.000000
0.000000
0.000000
0.000000
0.000000
0.000000
0.000000
0.000000
0.000000
0.000000
0.000000
0.000000
0.000000
0.000000
0.000000
0.000000
0.000000
0.000000
0.000000
0.000000
0.000000
0.000000
0.000000
0.000000
0.000000
0.000000
0.000000
0.000000
0.000000
0.000000
0.000000
0.000000
0.000000
0.000000
0.000000
0.000000
0.000000
0.000000
0.000000
0.000000
0.000000
0.000000
0.000000
0.000000
0.000000
0.000000
0.000000
0.000000
0.000000
0.000000
0.000000
0.000000
0.000000
0.000000
</DataArray>
</PointData>
<Cells>
<DataArray type='Int32' Name='connectivity' format='ascii'>
0
1
2
3
4
5
6
7
8
9
10
11
12
13
14
15
16
17
18
19
20
21
22
23
24
25
26
27
28
29
30
31
32
33
34
35
36
37
38
39
40
41
42
43
44
45
46
47
48
49
50
51
52
53
54
55
56
57
58
59
60
61
62
63
64
65
66
67
68
69
70
71
72
73
74
75
76
77
78
79
80
81
82
83
84
85
86
87
88
89
90
91
92
93
94
95
96
97
98
99
100
101
102
103
104
105
106
107
108
109
110
111
112
113
114
115
116
117
118
119
120
121
122
123
124
125
126
127
128
129
130
131
132
133
134
135
136
137
138
139
140
141
142
143
144
145
146
147
148
149
150
151
152
153
154
155
156
157
158
159
160
161
162
163
164
165
166
167
168
169
170
171
172
173
174
175
176
177
178
179
180
181
182
183
184
185
186
187
188
189
190
191
192
193
194
195
196
197
198
199
200
201
202
203
204
205
206
207
208
209
210
211
212
213
214
215
216
217
218
219
220
221
222
223
224
225
226
227
228
229
230
231
232
233
234
235
236
237
238
239
240
241
242
243
244
245
246
247
248
249
250
251
252
253
254
255
256
257
258
259
260
261
262
263
264
265
266
267
268
269
270
271
272
273
274
275
276
277
278
279
280
281
282
283
284
285
286
287
288
289
290
291
292
293
294