<?xml version='1.0' encoding='UTF-8'?>
<VTKFile xmlns='VTK' byte_order='LittleEndian' version='0.1' type='UnstructuredGrid'>
<UnstructuredGrid>
<Piece NumberOfCells='584' NumberOfPoints='584'>
<Points>
<DataArray NumberOfComponents='3' type='Float32' Name='Position' format='ascii'>
-0.075000 -0.075000 0.000000
-0.075000 -0.050000 0.000000
-0.075000 -0.025000 0.000000
-0.075000 0.000000 0.000000
-0.075000 0.025000 0.000000
-0.075000 0.050000 0.000000
-0.075000 0.075000 0.000000
-0.075000 0.100000 0.000000
-0.075000 0.125000 0.000000
-0.075000 0.150000 0.000000
-0.075000 0.175000 0.000000
-0.075000 0.200000 0.000000
-0.075000 0.225000 0.000000
-0.075000 0.250000 0.000000
-0.075000 0.275000 0.000000
-0.075000 0.300000 0.000000
-0.075000 0.325000 0.000000
-0.075000 0.350000 0.000000
-0.075000 0.375000 0.000000
-0.075000 0.400000 0.000000
-0.075000 0.425000 0.000000
-0.075000 0.450000 0.000000
-0.075000 0.475000 0.000000
-0.075000 0.500000 0.000000
-0.075000 0.525000 0.000000
-0.075000 0.550000 0.000000
-0.075000 0.575000 0.000000
-0.075000 0.600000 0.000000
-0.050000 -0.075000 0.000000
-0.050000 -0.050000 0.000000
-0.050000 -0.025000 0.000000
-0.050000 0.000000 0.000000
-0.050000 0.025000 0.000000
-0.050000 0.050000 0.000000
-0.050000 0.075000 0.000000
-0.050000 0.100000 0.000000
-0.050000 0.125000 0.000000
-0.050000 0.150000 0.000000
-0.050000 0.175000 0.000000
-0.050000 0.200000 0.000000
-0.050000 0.225000 0.000000
-0.050000 0.250000 0.000000
-0.050000 0.275000 0.000000
-0.050000 0.300000 0.000000
-0.050000 0.325000 0.000000
-0.050000 0.350000 0.000000
-0.050000 0.375000 0.000000
-0.050000 0.400000 0.000000
-0.050000 0.425000 0.000000
-0.050000 0.450000 0.000000
-0.050000 0.475000 0.000000
-0.050000 0.500000 0.000000
-0.050000 0.525000 0.000000
-0.050000 0.550000 0.000000
-0.050000 0.575000 0.000000
-0.050000 0.600000 0.000000
-0.025000 -0.075000 0.000000
-0.025000 -0.050000 0.000000
-0.025000 -0.025000 0.000000
-0.025000 0.000000 0.000000
-0.025000 0.025000 0.000000
-0.025000 0.050000 0.000000
-0.025000 0.075000 0.000000
-0.025000 0.100000 0.000000
-0.025000 0.125000 0.000000
-0.025000 0.150000 0.000000
-0.025000 0.175000 0.000000
-0.025000 0.200000 0.000000
-0.025000 0.225000 0.000000
-0.025000 0.250000 0.000000
-0.025000 0.275000 0.000000
-0.025000 0.300000 0.000000
-0.025000 0.325000 0.000000
-0.025000 0.350000 0.000000
-0.025000 0.375000 0.000000
-0.025000 0.400000 0.000000
-0.025000 0.425000 0.000000
-0.025000 0.450000 0.000000
-0.025000 0.475000 0.000000
-0.025000 0.500000 0.000000
-0.025000 0.525000 0.000000
-0.025000 0.550000 0.000000
-0.025000 0.575000 0.000000
-0.025000 0.600000 0.000000
0.000000 -0.075000 0.000000
0.000000 -0.050000 0.000000
0.000000 -0.025000 0.000000
0.000000 0.000000 0.000000
0.000000 0.025000 0.000000
0.000000 0.050000 0.000000
0.000000 0.075000 0.000000
0.000000 0.100000 0.000000
0.000000 0.125000 0.000000
0.000000 0.150000 0.000000
0.000000 0.175000 0.000000
0.000000 0.200000 0.000000
0.000000 0.225000 0.000000
0.000000 0.250000 0.000000
0.000000 0.275000 0.000000
0.000000 0.300000 0.000000
0.000000 0.325000 0.000000
0.000000 0.350000 0.000000
0.000000 0.375000 0.000000
0.000000 0.400000 0.000000
0.000000 0.425000 0.000000
0.000000 0.450000 0.000000
0.000000 0.475000 0.000000
0.000000 0.500000 0.000000
0.000000 0.525000 0.000000
0.000000 0.550000 0.000000
0.000000 0.575000 0.000000
0.000000 0.600000 0.000000
0.025000 -0.075000 0.000000
0.025000 -0.050000 0.000000
0.025000 -0.025000 0.000000
0.025000 0.000000 0.000000
0.278901 0.022867 0.000000
0.241792 0.020555 0.000000
0.228659 0.041262 0.000000
0.175582 0.023149 0.000000
0.361555 0.022309 0.000000
0.068051 0.020595 0.000000
0.460333 0.020720 0.000000
0.310978 0.024001 0.000000
0.206276 0.022607 0.000000
0.149283 0.059988 0.000000
0.266998 0.052329 0.000000
0.179607 0.050575 0.000000
0.154030 0.026511 0.000000
0.040086 0.025246 0.000000
0.021095 0.032815 0.000000
0.038960 0.057480 0.000000
0.094940 0.030227 0.000000
0.080988 0.052821 0.000000
0.080048 0.065317 0.000000
0.124438 0.023991 0.000000
0.050000 -0.075000 0.000000
0.050000 -0.050000 0.000000
0.050000 -0.025000 0.000000
0.050000 0.000000 0.000000
0.336327 0.027510 0.000000
0.581504 0.072080 0.000000
0.649471 0.066008 0.000000
0.619737 0.103676 0.000000
0.630464 0.076643 0.000000
0.670740 0.052279 0.000000
0.556880 0.028143 0.000000
0.747099 0.061978 0.000000
0.394154 0.024025 0.000000
0.393746 0.059279 0.000000
0.542873 0.116157 0.000000
0.472942 0.042351 0.000000
0.055129 0.046752 0.000000
0.447736 0.047900 0.000000
0.252395 0.045789 0.000000
0.287780 0.041467 0.000000
0.199598 0.048372 0.000000
0.306887 0.057729 0.000000
0.110977 0.038005 0.000000
0.141872 0.045850 0.000000
0.075000 -0.075000 0.000000
0.075000 -0.050000 0.000000
0.075000 -0.025000 0.000000
0.075000 0.000000 0.000000
0.353973 0.060383 0.000000
0.572521 0.046121 0.000000
0.580354 0.024237 0.000000
0.499516 0.024525 0.000000
0.857709 0.097853 0.000000
0.851820 0.020860 0.000000
0.861858 0.040158 0.000000
0.543560 0.139245 0.000000
0.810139 0.080055 0.000000
0.791435 0.027027 0.000000
0.658320 0.024725 0.000000
0.523001 0.024606 0.000000
0.408284 0.096981 0.000000
0.368083 0.041691 0.000000
0.401815 0.041266 0.000000
0.344618 0.072018 0.000000
0.319806 0.045737 0.000000
0.487448 0.074386 0.000000
0.435321 0.121057 0.000000
0.213830 0.053013 0.000000
0.100000 -0.075000 0.000000
0.100000 -0.050000 0.000000
0.100000 -0.025000 0.000000
0.100000 0.000000 0.000000
0.677856 0.028676 0.000000
0.612602 0.020984 0.000000
0.797023 0.056774 0.000000
0.928780 0.023120 0.000000
0.423827 0.054799 0.000000
0.909389 0.036581 0.000000
0.913250 0.082710 0.000000
0.840313 0.157183 0.000000
0.890022 0.021795 0.000000
0.878342 0.048729 0.000000
0.701978 0.023074 0.000000
0.697035 0.068036 0.000000
0.825295 0.058750 0.000000
0.815269 0.023428 0.000000
0.657374 0.098114 0.000000
0.429801 0.022613 0.000000
0.728145 0.026646 0.000000
0.847896 0.119724 0.000000
0.636619 0.034816 0.000000
0.547288 0.042144 0.000000
0.125000 -0.075000 0.000000
0.125000 -0.050000 0.000000
0.125000 -0.025000 0.000000
0.125000 0.000000 0.000000
0.916223 0.060700 0.000000
0.900405 0.097890 0.000000
1.002365 0.160088 0.000000
0.958517 0.025025 0.000000
0.960767 0.199846 0.000000
0.748245 0.038536 0.000000
0.798467 0.160019 0.000000
0.905470 0.162352 0.000000
0.914075 0.133158 0.000000
0.898068 0.129655 0.000000
0.951111 0.119404 0.000000
0.853400 0.198790 0.000000
0.743550 0.085068 0.000000
0.774340 0.049693 0.000000
0.673316 0.071539 0.000000
0.765419 0.020876 0.000000
0.873284 0.143959 0.000000
0.577806 0.095754 0.000000
0.772339 0.107947 0.000000
0.634928 0.103809 0.000000
0.150000 -0.075000 0.000000
0.150000 -0.050000 0.000000
0.150000 -0.025000 0.000000
0.150000 0.000000 0.000000
0.788706 0.126978 0.000000
0.998696 0.077512 0.000000
0.970168 0.321490 0.000000
0.745928 0.125091 0.000000
0.981953 0.069799 0.000000
0.691503 0.147123 0.000000
0.979191 0.126630 0.000000
0.805091 0.099545 0.000000
1.001412 0.134990 0.000000
0.952699 0.163752 0.000000
0.978039 0.042313 0.000000
0.891822 0.062368 0.000000
0.939900 0.043020 0.000000
0.957386 0.057390 0.000000
0.939742 0.105105 0.000000
0.870025 0.121243 0.000000
0.830862 0.039392 0.000000
0.881411 0.094082 0.000000
0.855723 0.074024 0.000000
0.712023 0.043883 0.000000
0.175000 -0.075000 0.000000
0.175000 -0.050000 0.000000
0.175000 -0.025000 0.000000
0.175000 0.000000 0.000000
0.464336 0.065982 0.000000
0.982437 0.178116 0.000000
0.987156 0.212625 0.000000
1.001394 0.194158 0.000000
0.975997 0.158683 0.000000
0.738519 0.181119 0.000000
0.989059 0.021925 0.000000
0.835987 0.216547 0.000000
0.747047 0.144698 0.000000
1.005228 0.040130 0.000000
0.899413 0.219363 0.000000
0.941047 0.185182 0.000000
0.840948 0.137814 0.000000
0.955464 0.139368 0.000000
0.980587 0.105859 0.000000
0.765653 0.148984 0.000000
1.001509 0.102973 0.000000
0.881043 0.162463 0.000000
0.810325 0.115656 0.000000
0.860749 0.180401 0.000000
0.200000 -0.075000 0.000000
0.200000 -0.050000 0.000000
0.200000 -0.025000 0.000000
0.200000 0.000000 0.000000
0.783261 0.506990 0.000000
0.712687 0.190385 0.000000
0.802984 0.242085 0.000000
0.958756 0.244734 0.000000
0.802590 0.222768 0.000000
0.869516 0.224165 0.000000
0.908194 0.263667 0.000000
0.991311 0.331841 0.000000
0.883707 0.190885 0.000000
0.686976 0.098112 0.000000
1.001774 0.228523 0.000000
0.958672 0.080051 0.000000
0.556412 0.146439 0.000000
0.749079 0.103508 0.000000
0.902994 0.195754 0.000000
0.767899 0.170149 0.000000
0.925246 0.214493 0.000000
0.804614 0.136212 0.000000
0.927696 0.149630 0.000000
0.937432 0.084618 0.000000
0.225000 -0.075000 0.000000
0.225000 -0.050000 0.000000
0.225000 -0.025000 0.000000
0.225000 0.000000 0.000000
0.857427 0.258303 0.000000
0.946865 1.223731 0.000000
0.925945 0.246003 0.000000
0.587904 0.104322 0.000000
0.491799 0.088954 0.000000
0.569207 0.162064 0.000000
0.877762 0.250219 0.000000
0.994002 0.257360 0.000000
0.941545 0.246422 0.000000
0.768049 0.195516 0.000000
0.983291 0.244956 0.000000
0.667053 0.137116 0.000000
0.620414 0.043601 0.000000
0.839105 0.077956 0.000000
0.726081 0.184973 0.000000
0.800247 0.175951 0.000000
0.782200 0.068689 0.000000
0.666296 0.118892 0.000000
0.693416 0.128871 0.000000
0.705574 0.089418 0.000000
0.250000 -0.075000 0.000000
0.250000 -0.050000 0.000000
0.250000 -0.025000 0.000000
0.250000 0.000000 0.000000
0.946705 0.848343 0.000000
0.752888 0.776303 0.000000
0.721615 0.126987 0.000000
0.832085 0.228734 0.000000
0.582031 0.915522 0.000000
0.866851 0.290548 0.000000
0.613843 0.712045 0.000000
0.707779 0.513528 0.000000
0.490239 0.039426 0.000000
0.901902 0.238393 0.000000
0.559558 0.113919 0.000000
0.641162 0.140643 0.000000
0.783856 0.189849 0.000000
0.727059 0.063250 0.000000
0.717177 0.105074 0.000000
0.834606 0.176774 0.000000
0.601454 0.051157 0.000000
0.922842 0.179161 0.000000
0.612713 0.124108 0.000000
0.958209 0.215928 0.000000
0.275000 -0.075000 0.000000
0.275000 -0.050000 0.000000
0.275000 -0.025000 0.000000
0.275000 0.000000 0.000000
0.300000 -0.075000 0.000000
0.300000 -0.050000 0.000000
0.300000 -0.025000 0.000000
0.300000 0.000000 0.000000
0.325000 -0.075000 0.000000
0.325000 -0.050000 0.000000
0.325000 -0.025000 0.000000
0.325000 0.000000 0.000000
0.350000 -0.075000 0.000000
0.350000 -0.050000 0.000000
0.350000 -0.025000 0.000000
0.350000 0.000000 0.000000
0.375000 -0.075000 0.000000
0.375000 -0.050000 0.000000
0.375000 -0.025000 0.000000
0.375000 0.000000 0.000000
0.400000 -0.075000 0.000000
0.400000 -0.050000 0.000000
0.400000 -0.025000 0.000000
0.400000 0.000000 0.000000
0.425000 -0.075000 0.000000
0.425000 -0.050000 0.000000
0.425000 -0.025000 0.000000
0.425000 0.000000 0.000000
0.450000 -0.075000 0.000000
0.450000 -0.050000 0.000000
0.450000 -0.025000 0.000000
0.450000 0.000000 0.000000
0.475000 -0.075000 0.000000
0.475000 -0.050000 0.000000
0.475000 -0.025000 0.000000
0.475000 0.000000 0.000000
0.500000 -0.075000 0.000000
0.500000 -0.050000 0.000000
0.500000 -0.025000 0.000000
0.500000 0.000000 0.000000
0.525000 -0.075000 0.000000
0.525000 -0.050000 0.000000
0.525000 -0.025000 0.000000
0.525000 0.000000 0.000000
0.550000 -0.075000 0.000000
0.550000 -0.050000 0.000000
0.550000 -0.025000 0.000000
0.550000 0.000000 0.000000
0.575000 -0.075000 0.000000
0.575000 -0.050000 0.000000
0.575000 -0.025000 0.000000
0.575000 0.000000 0.000000
0.600000 -0.075000 0.000000
0.600000 -0.050000 0.000000
0.600000 -0.025000 0.000000
0.600000 0.000000 0.000000
0.625000 -0.075000 0.000000
0.625000 -0.050000 0.000000
0.625000 -0.025000 0.000000
0.625000 0.000000 0.000000
0.650000 -0.075000 0.000000
0.650000 -0.050000 0.000000
0.650000 -0.025000 0.000000
0.650000 0.000000 0.000000
0.675000 -0.075000 0.000000
0.675000 -0.050000 0.000000
0.675000 -0.025000 0.000000
0.675000 0.000000 0.000000
0.700000 -0.075000 0.000000
0.700000 -0.050000 0.000000
0.700000 -0.025000 0.000000
0.700000 0.000000 0.000000
0.725000 -0.075000 0.000000
0.725000 -0.050000 0.000000
0.725000 -0.025000 0.000000
0.725000 0.000000 0.000000
0.750000 -0.075000 0.000000
0.750000 -0.050000 0.000000
0.750000 -0.025000 0.000000
0.750000 0.000000 0.000000
0.775000 -0.075000 0.000000
0.775000 -0.050000 0.000000
0.775000 -0.025000 0.000000
0.775000 0.000000 0.000000
0.800000 -0.075000 0.000000
0.800000 -0.050000 0.000000
0.800000 -0.025000 0.000000
0.800000 0.000000 0.000000
0.825000 -0.075000 0.000000
0.825000 -0.050000 0.000000
0.825000 -0.025000 0.000000
0.825000 0.000000 0.000000
0.850000 -0.075000 0.000000
0.850000 -0.050000 0.000000
0.850000 -0.025000 0.000000
0.850000 0.000000 0.000000
0.875000 -0.075000 0.000000
0.875000 -0.050000 0.000000
0.875000 -0.025000 0.000000
0.875000 0.000000 0.000000
0.900000 -0.075000 0.000000
0.900000 -0.050000 0.000000
0.900000 -0.025000 0.000000
0.900000 0.000000 0.000000
0.925000 -0.075000 0.000000
0.925000 -0.050000 0.000000
0.925000 -0.025000 0.000000
0.925000 0.000000 0.000000
0.950000 -0.075000 0.000000
0.950000 -0.050000 0.000000
0.950000 -0.025000 0.000000
0.950000 0.000000 0.000000
0.975000 -0.075000 0.000000
0.975000 -0.050000 0.000000
0.975000 -0.025000 0.000000
0.975000 0.000000 0.000000
1.000000 -0.075000 0.000000
1.000000 -0.050000 0.000000
1.000000 -0.025000 0.000000
1.000000 0.000000 0.000000
1.025000 -0.075000 0.000000
1.025000 -0.050000 0.000000
1.025000 -0.025000 0.000000
1.025000 0.000000 0.000000
1.025000 0.025000 0.000000
1.025000 0.050000 0.000000
1.025000 0.075000 0.000000
1.025000 0.100000 0.000000
1.025000 0.125000 0.000000
1.025000 0.150000 0.000000
1.025000 0.175000 0.000000
1.025000 0.200000 0.000000
1.025000 0.225000 0.000000
1.025000 0.250000 0.000000
1.025000 0.275000 0.000000
1.025000 0.300000 0.000000
1.025000 0.325000 0.000000
1.025000 0.350000 0.000000
1.025000 0.375000 0.000000
1.025000 0.400000 0.000000
1.025000 0.425000 0.000000
1.025000 0.450000 0.000000
1.025000 0.475000 0.000000
1.025000 0.500000 0.000000
1.025000 0.525000 0.000000
1.025000 0.550000 0.000000
1.025000 0.575000 0.000000
1.025000 0.600000 0.000000
1.050000 -0.075000 0.000000
1.050000 -0.050000 0.000000
1.050000 -0.025000 0.000000
1.050000 0.000000 0.000000
1.050000 0.025000 0.000000
1.050000 0.050000 0.000000
1.050000 0.075000 0.000000
1.050000 0.100000 0.000000
1.050000 0.125000 0.000000
1.050000 0.150000 0.000000
1.050000 0.175000 0.000000
1.050000 0.200000 0.000000
1.050000 0.225000 0.000000
1.050000 0.250000 0.000000
1.050000 0.275000 0.000000
1.050000 0.300000 0.000000
1.050000 0.325000 0.000000
1.050000 0.350000 0.000000
1.050000 0.375000 0.000000
1.050000 0.400000 0.000000
1.050000 0.425000 0.000000
1.050000 0.450000 0.000000
1.050000 0.475000 0.000000
1.050000 0.500000 0.000000
1.050000 0.525000 0.000000
1.050000 0.550000 0.000000
1.050000 0.575000 0.000000
1.050000 0.600000 0.000000
1.075000 -0.075000 0.000000
1.075000 -0.050000 0.000000
1.075000 -0.025000 0.000000
1.075000 0.000000 0.000000
1.075000 0.025000 0.000000
1.075000 0.050000 0.000000
1.075000 0.075000 0.000000
1.075000 0.100000 0.000000
1.075000 0.125000 0.000000
1.075000 0.150000 0.000000
1.075000 0.175000 0.000000
1.075000 0.200000 0.000000
1.075000 0.225000 0.000000
1.075000 0.250000 0.000000
1.075000 0.275000 0.000000
1.075000 0.300000 0.000000
1.075000 0.325000 0.000000
1.075000 0.350000 0.000000
1.075000 0.375000 0.000000
1.075000 0.400000 0.000000
1.075000 0.425000 0.000000
1.075000 0.450000 0.000000
1.075000 0.475000 0.000000
1.075000 0.500000 0.000000
1.075000 0.525000 0.000000
1.075000 0.550000 0.000000
1.075000 0.575000 0.000000
1.075000 0.600000 0.000000
1.100000 -0.075000 0.000000
1.100000 -0.050000 0.000000
1.100000 -0.025000 0.000000
1.100000 0.000000 0.000000
1.100000 0.025000 0.000000
1.100000 0.050000 0.000000
1.100000 0.075000 0.000000
1.100000 0.100000 0.000000
1.100000 0.125000 0.000000
1.100000 0.150000 0.000000
1.100000 0.175000 0.000000
1.100000 0.200000 0.000000
1.100000 0.225000 0.000000
1.100000 0.250000 0.000000
1.100000 0.275000 0.000000
1.100000 0.300000 0.000000
1.100000 0.325000 0.000000
1.100000 0.350000 0.000000
1.100000 0.375000 0.000000
1.100000 0.400000 0.000000
1.100000 0.425000 0.000000
1.100000 0.450000 0.000000
1.100000 0.475000 0.000000
1.100000 0.500000 0.000000
1.100000 0.525000 0.000000
1.100000 0.550000 0.000000
1.100000 0.575000 0.000000
1.100000 0.600000 0.000000
</DataArray>
</Points>
<PointData>
<DataArray NumberOfComponents='1' type='Int32' Name='ParticleType' format='ascii'>
3
3
3
3
3
3
3
3
3
3
3
3
3
3
3
3
3
3
3
3
3
3
3
3
3
3
2
2
3
3
3
3
3
3
3
3
3
3
3
3
3
3
3
3
3
3
3
3
3
3
3
3
3
3
2
2
3
3
2
2
2
2
2
2
2
2
2
2
2
2
2
2
2
2
2
2
2
2
2
2
2
2
2
2
3
3
2
2
2
2
2
2
2
2
2
2
2
2
2
2
2
2
2
2
2
2
2
2
2
2
2
2
3
3
2
2
0
0
0
0
0
0
0
0
0
0
0
0
0
0
0
0
0
0
0
0
3
3
2
2
0
0
0
0
0
0
0
0
0
0
0
0
0
0
0
0
0
0
0
0
3
3
2
2
0
0
0
0
0
0
0
0
0
0
0
0
0
0
0
0
0
0
0
0
3
3
2
2
0
0
0
0
0
0
0
0
0
0
0
0
0
0
0
0
0
0
0
0
3
3
2
2
0
0
0
0
0
0
0
0
0
0
0
0
0
0
0
0
0
0
0
0
3
3
2
2
0
0
0
0
0
0
0
0
0
0
0
0
0
0
0
0
0
0
0
0
3
3
2
2
0
0
0
0
0
0
0
0
0
0
0
0
0
0
0
0
0
0
0
0
3
3
2
2
0
0
0
0
0
0
0
0
0
0
0
0
0
0
0
0
0
0
0
0
3
3
2
2
0
0
0
0
0
0
0
0
0
0
0
0
0
0
0
0
0
0
0
0
3
3
2
2
0
0
0
0
0
0
0
0
0
0
0
0
0
0
0
0
0
0
0
0
3
3
2
2
3
3
2
2
3
3
2
2
3
3
2
2
3
3
2
2
3
3
2
2
3
3
2
2
3
3
2
2
3
3
2
2
3
3
2
2
3
3
2
2
3
3
2
2
3
3
2
2
3
3
2
2
3
3
2
2
3
3
2
2
3
3
2
2
3
3
2
2
3
3
2
2
3
3
2
2
3
3
2
2
3
3
2
2
3
3
2
2
3
3
2
2
3
3
2
2
3
3
2
2
3
3
2
2
3
3
2
2
3
3
2
2
3
3
2
2
3
3
2
2
2
2
2
2
2
2
2
2
2
2
2
2
2
2
2
2
2
2
2
2
2
2
2
2
3
3
2
2
2
2
2
2
2
2
2
2
2
2
2
2
2
2
2
2
2
2
2
2
2
2
2
2
3
3
3
3
3
3
3
3
3
3
3
3
3
3
3
3
3
3
3
3
3
3
3
3
3
3
2
2
3
3
3
3
3
3
3
3
3
3
3
3
3
3
3
3
3
3
3
3
3
3
3
3
3
3
2
2
</DataArray>
<DataArray NumberOfComponents='1' type='Float32' Name='Velocity' format='ascii'>
0.000000
0.000000
0.000000
0.000000
0.000000
0.000000
0.000000
0.000000
0.000000
0.000000
0.000000
0.000000
0.000000
0.000000
0.000000
0.000000
0.000000
0.000000
0.000000
0.000000
0.000000
0.000000
0.000000
0.000000
0.000000
0.000000
0.000000
0.000000
0.000000
0.000000
0.000000
0.000000
0.000000
0.000000
0.000000
0.000000
0.000000
0.000000
0.000000
0.000000
0.000000
0.000000
0.000000
0.000000
0.000000
0.000000
0.000000
0.000000
0.000000
0.000000
0.000000
0.000000
0.000000
0.000000
0.000000
0.000000
0.000000
0.000000
0.000000
0.000000
0.000000
0.000000
0.000000
0.000000
0.000000
0.000000
0.000000
0.000000
0.000000
0.000000
0.000000
0.000000
0.000000
0.000000
0.000000
0.000000
0.000000
0.000000
0.000000
0.000000
0.000000
0.000000
0.000000
0.000000
0.000000
0.000000
0.000000
0.000000
0.000000
0.000000
0.000000
0.000000
0.000000
0.000000
0.000000
0.000000
0.000000
0.000000
0.000000
0.000000
0.000000
0.000000
0.000000
0.000000
0.000000
0.000000
0.000000
0.000000
0.000000
0.000000
0.000000
0.000000
0.000000
0.000000
0.000000
0.000000
0.101396
0.034750
0.396194
0.154974
0.283394
0.050746
0.128824
0.229240
0.402218
0.173958
0.224926
0.162866
0.189377
0.122354
0.095517
0.087161
0.148138
0.061764
0.105586
0.205549
0.000000
0.000000
0.000000
0.000000
0.099222
1.133404
0.683155
1.650646
1.289995
0.410983
0.486066
0.686866
0.264096
0.248227
0.188593
0.323918
0.156553
0.901969
0.480033
0.170643
0.396911
0.379209
0.258900
0.307807
0.000000
0.000000
0.000000
0.000000
0.525997
0.628931
0.132155
0.492979
0.617983
0.187122
0.263061
2.744611
0.569017
0.430279
0.490654
1.072025
0.597447
0.498494
0.696712
0.327955
0.433037
1.285773
0.619058
0.164341
0.000000
0.000000
0.000000
0.000000
0.212552
0.227567
0.845794
0.131397
0.084299
0.157778
0.645045
1.041232
0.296106
0.279207
0.564299
0.518601
0.243753
0.126470
1.164543
0.207999
0.345855
0.495120
0.507809
0.371956
0.000000
0.000000
0.000000
0.000000
0.216849
0.153728
0.251082
0.120622
0.330298
0.468296
1.566367
0.870332
0.178479
0.299979
0.373662
0.517578
0.964950
0.543026
0.776829
0.266290
0.539440
0.863543
0.695802
2.059831
0.000000
0.000000
0.000000
0.000000
0.589204
0.397215
0.236573
1.276327
0.171274
1.799840
0.051327
0.057244
0.322883
0.448068
0.189794
0.474264
0.097416
0.077299
0.284936
0.278463
0.162753
0.451268
0.336070
0.814249
0.000000
0.000000
0.000000
0.000000
0.919490
0.638343
0.421480
0.545297
0.463422
1.978888
0.127944
1.196329
1.827046
0.087861
0.931235
0.544383
0.832447
0.325122
0.413932
1.520583
0.201029
0.420914
0.642260
0.745417
0.000000
0.000000
0.000000
0.000000
2.298986
1.938040
1.421142
0.086200
1.755173
0.552081
1.377643
0.314301
0.949314
1.889296
0.734066
0.271123
2.530380
1.051302
0.370857
2.015574
0.746669
1.005907
0.130148
0.327131
0.000000
0.000000
0.000000
0.000000
0.421606
1.240583
0.377497
1.322072
0.691782
2.766459
0.648630
0.930895
0.498432
1.553770
0.767808
2.701646
0.494152
0.576629
2.024496
1.172545
0.715578
1.504463
1.672979
1.532474
0.000000
0.000000
0.000000
0.000000
1.974376
1.977750
2.272306
1.077669
1.935729
2.595265
2.141314
2.394319
1.322554
0.755465
2.141964
2.708355
1.693016
0.557282
1.120326
1.336944
0.967610
0.443282
2.407575
0.363944
0.000000
0.000000
0.000000
0.000000
0.000000
0.000000
0.000000
0.000000
0.000000
0.000000
0.000000
0.000000
0.000000
0.000000
0.000000
0.000000
0.000000
0.000000
0.000000
0.000000
0.000000
0.000000
0.000000
0.000000
0.000000
0.000000
0.000000
0.000000
0.000000
0.000000
0.000000
0.000000
0.000000
0.000000
0.000000
0.000000
0.000000
0.000000
0.000000
0.000000
0.000000
0.000000
0.000000
0.000000
0.000000
0.000000
0.000000
0.000000
0.000000
0.000000
0.000000
0.000000
0.000000
0.000000
0.000000
0.000000
0.000000
0.000000
0.000000
0.000000
0.000000
0.000000
0.000000
0.000000
0.000000
0.000000
0.000000
0.000000
0.000000
0.000000
0.000000
0.000000
0.000000
0.000000
0.000000
0.000000
0.000000
0.000000
0.000000
0.000000
0.000000
0.000000
0.000000
0.000000
0.000000
0.000000
0.000000
0.000000
0.000000
0.000000
0.000000
0.000000
0.000000
0.000000
0.000000
0.000000
0.000000
0.000000
0.000000
0.000000
0.000000
0.000000
0.000000
0.000000
0.000000
0.000000
0.000000
0.000000
0.000000
0.000000
0.000000
0.000000
0.000000
0.000000
0.000000
0.000000
0.000000
0.000000
0.000000
0.000000
0.000000
0.000000
0.000000
0.000000
0.000000
0.000000
0.000000
0.000000
0.000000
0.000000
0.000000
0.000000
0.000000
0.000000
0.000000
0.000000
0.000000
0.000000
0.000000
0.000000
0.000000
0.000000
0.000000
0.000000
0.000000
0.000000
0.000000
0.000000
0.000000
0.000000
0.000000
0.000000
0.000000
0.000000
0.000000
0.000000
0.000000
0.000000
0.000000
0.000000
0.000000
0.000000
0.000000
0.000000
0.000000
0.000000
0.000000
0.000000
0.000000
0.000000
0.000000
0.000000
0.000000
0.000000
0.000000
0.000000
0.000000
0.000000
0.000000
0.000000
0.000000
0.000000
0.000000
0.000000
0.000000
0.000000
0.000000
0.000000
0.000000
0.000000
0.000000
0.000000
0.000000
0.000000
0.000000
0.000000
0.000000
0.000000
0.000000
0.000000
0.000000
0.000000
0.000000
0.000000
0.000000
0.000000
0.000000
0.000000
0.000000
0.000000
0.000000
0.000000
0.000000
0.000000
0.000000
0.000000
0.000000
0.000000
0.000000
0.000000
0.000000
0.000000
0.000000
0.000000
0.000000
0.000000
0.000000
0.000000
0.000000
0.000000
0.000000
0.000000
</DataArray>
<DataArray NumberOfComponents='1' type='Float32' Name='pressure' format='ascii'>
0.000000
0.000000
0.000000
0.000000
0.000000
0.000000
0.000000
0.000000
0.000000
0.000000
0.000000
0.000000
0.000000
0.000000
0.000000
0.000000
0.000000
0.000000
0.000000
0.000000
0.000000
0.000000
0.000000
0.000000
0.000000
0.000000
0.000000
0.000000
0.000000
0.000000
0.000000
0.000000
0.000000
0.000000
0.000000
0.000000
0.000000
0.000000
0.000000
0.000000
0.000000
0.000000
0.000000
0.000000
0.000000
0.000000
0.000000
0.000000
0.000000
0.000000
0.000000
0.000000
0.000000
0.000000
0.000000
0.000000
0.000000
0.000000
0.000000
0.000000
955.740540
61.366611
0.000000
0.000000
0.000000
0.000000
0.000000
0.000000
0.000000
0.000000
0.000000
0.000000
0.000000
0.000000
0.000000
0.000000
0.000000
0.000000
0.000000
0.000000
0.000000
0.000000
0.000000
0.000000
0.000000
0.000000
0.000000
0.000000
163.087631
0.000000
0.000000
0.000000
0.000000
0.000000
0.000000
0.000000
0.000000
0.000000
0.000000
0.000000
0.000000
0.000000
0.000000
0.000000
0.000000
0.000000
0.000000
0.000000
0.000000
0.000000
0.000000
0.000000
0.000000
0.000000
0.000000
0.000000
311.551941
1051.212891
0.000000
649.887512
856.357239
0.000000
3541.149414
1290.309204
1174.555420
0.000000
0.000000
0.000000
1392.043701
387.759277
0.000000
0.000000
0.000000
0.000000
0.000000
1073.924561
0.000000
0.000000
280.756897
89.289009
0.000000
0.000000
0.000000
1075.572266
0.000000
2440.236572
3484.035889
1678.271606
0.000000
0.000000
0.000000
8169.092285
0.000000
0.000000
0.000000
0.000000
217.823151
0.000000
0.000000
0.000000
0.000000
0.000000
1096.265503
0.000000
0.000000
0.000000
562.297424
1910.265503
0.000000
1703.124756
1558.747803
0.000000
0.000000
0.000000
3013.543701
0.000000
0.000000
0.000000
0.000000
0.000000
0.000000
0.000000
0.000000
0.000000
0.000000
0.000000
0.000000
0.000000
4380.936523
462.173981
3455.118652
1343.656982
0.000000
0.000000
1316.455200
0.000000
0.000000
1993.800293
3216.857178
0.000000
1802.490967
130.369644
0.000000
0.000000
2041.242798
0.000000
1965.028198
0.000000
0.000000
0.000000
465.115906
271.621216
1657.901245
0.000000
287.614777
0.000000
580.719116
3555.903809
1435.856567
377.228729
426.736816
0.000000
1206.855591
0.000000
0.000000
205.100281
3374.927246
1943.282715
773.096252
0.000000
0.000000
6079.700195
0.000000
0.000000
269.783539
612.372864
2348.625488
228.080170
0.000000
2834.350830
730.989807
0.000000
1218.675415
408.767487
1291.376709
0.000000
1284.953735
994.293579
518.148010
1030.728516
0.000000
2327.465332
1551.729980
0.000000
94.927414
1358.751343
0.000000
0.000000
1912.652466
2127.834229
0.000000
0.000000
0.000000
0.000000
1103.270508
0.000000
2373.066162
0.000000
0.000000
927.354553
0.000000
714.362061
0.000000
978.730652
1122.987183
457.677063
1718.946655
551.689941
2495.834229
0.000000
0.000000
0.000000
2146.988281
425.075500
0.000000
0.000000
0.000000
0.000000
0.000000
0.000000
0.000000
0.000000
0.000000
1554.778076
467.259949
645.787476
0.000000
2088.924805
0.000000
0.000000
0.000000
2825.578369
0.000000
902.455566
0.000000
0.000000
2422.564453
118.977234
0.000000
0.000000
0.000000
0.000000
0.000000
0.000000
0.000000
0.000000
0.000000
0.000000
0.000000
0.000000
77.625069
689.397156
0.000000
0.000000
0.000000
757.250183
0.000000
6997.942383
0.000000
0.000000
2718.630371
1183.660278
0.000000
0.000000
0.000000
0.000000
0.000000
0.000000
0.000000
0.000000
5935.484375
0.000000
0.000000
0.000000
0.000000
2073.946045
3397.262207
0.000000
0.000000
2027.249878
0.000000
0.000000
0.000000
0.000000
1691.901367
39.547569
0.000000
0.000000
566.096252
175.628586
0.000000
0.000000
55.511681
0.000000
0.000000
0.000000
803.115112
564.351013
0.000000
0.000000
649.895752
365.489716
0.000000
0.000000
754.547241
0.000000
0.000000
0.000000
2065.898193
0.000000
0.000000
0.000000
3668.834473
2860.702881
0.000000
0.000000
3321.748535
2678.703857
0.000000
0.000000
2114.080566
3032.658691
0.000000
0.000000
999.647766
0.000000
0.000000
0.000000
0.000000
0.000000
0.000000
0.000000
476.065887
0.000000
0.000000
0.000000
1249.891357
0.000000
0.000000
0.000000
1516.489502
173.431107
0.000000
0.000000
984.419678
0.000000
0.000000
0.000000
1089.541016
1656.257690
0.000000
0.000000
2934.529785
4608.925293
0.000000
0.000000
1791.768188
1368.019409
0.000000
0.000000
2853.880859
469.490234
0.000000
0.000000
3561.494873
3514.363037
0.000000
0.000000
2440.665527
1717.887939
0.000000
0.000000
3253.369141
2912.324707
0.000000
0.000000
4665.154785
5431.573730
0.000000
0.000000
3334.857178
1148.453125
0.000000
0.000000
2744.584229
203.432571
0.000000
0.000000
2180.670410
2599.041260
0.000000
0.000000
1035.923706
271.722443
0.000000
0.000000
1483.702026
424.467346
0.000000
0.000000
1809.636841
1058.232788
0.000000
0.000000
1248.514038
481.089844
1013.277954
1012.974426
0.000000
1477.199341
1840.535522
1259.344971
0.000000
263.174408
1108.553955
0.000000
0.000000
0.000000
0.000000
0.000000
0.000000
0.000000
0.000000
0.000000
0.000000
0.000000
0.000000
0.000000
0.000000
0.000000
0.000000
0.000000
1281.005859
1391.135986
2423.716064
2777.353271
708.695557
1728.529663
1566.732544
2081.685059
785.029114
727.836609
702.712769
0.000000
0.000000
0.000000
0.000000
0.000000
0.000000
0.000000
0.000000
0.000000
0.000000
0.000000
0.000000
0.000000
0.000000
0.000000
0.000000
0.000000
0.000000
0.000000
0.000000
0.000000
0.000000
0.000000
0.000000
0.000000
0.000000
0.000000
0.000000
0.000000
0.000000
0.000000
0.000000
0.000000
0.000000
0.000000
0.000000
0.000000
0.000000
0.000000
0.000000
0.000000
0.000000
0.000000
0.000000
0.000000
0.000000
0.000000
0.000000
0.000000
0.000000
0.000000
0.000000
0.000000
0.000000
0.000000
0.000000
0.000000
0.000000
0.000000
0.000000
0.000000
0.000000
0.000000
0.000000
0.000000
0.000000
0.000000
0.000000
0.000000
0.000000
0.000000
</DataArray>
</PointData>
<Cells>
<DataArray type='Int32' Name='connectivity' format='ascii'>
0
1
2
3
4
5
6
7
8
9
10
11
12
13
14
15
16
17
18
19
20
21
22
23
24
25
26
27
28
29
30
31
32
33
34
35
36
37
38
39
40
41
42
43
44
45
46
47
48
49
50
51
52
53
54
55
56
57
58
59
60
61
62
63
64
65
66
67
68
69
70
71
72
73
74
75
76
77
78
79
80
81
82
83
84
85
86
87
88
89
90
91
92
93
94
95
96
97
98
99
100
101
102
103
104
105
106
107
108
109
110
111
112
113
114
115
116
117
118
119
120
121
122
123
124
125
126
127
128
129
130
131
132
133
134
135
136
137
138
139
140
141
142
143
144
145
146
147
148
149
150
151
152
153
154
155
156
157
158
159
160
161
162
163
164
165
166
167
168
169
170
171
172
173
174
175
176
177
178
179
180
181
182
183
184
185
186
187
188
189
190
191
192
193
194
195
196
197
198
199
200
201
202
203
204
205
206
207
208
209
210
211
212
213
214
215
216
217
218
219
220
221
222
223
224
225
226
227
228
229
230
231
232
233
234
235
236
237
238
239
240
241
242
243
244
245
246
247
248
249
250
251
252
253
254
255
256
257
258
259
260
261
262
263
264
265
266
267
268
269
270
271
272
273
274
275
276
277
278
279
280
281
282
283
284
285
286
287
288
289
290
291
292
293
294
295
296
297
298
299
300
301
302
303
304
305
306
307
308
309
310
311
312
313
314
315
316
317
318
319
320
321
322
323
324