<?xml version='1.0' encoding='UTF-8'?>
<VTKFile xmlns='VTK' byte_order='LittleEndian' version='0.1' type='UnstructuredGrid'>
<UnstructuredGrid>
<Piece NumberOfCells='584' NumberOfPoints='584'>
<Points>
<DataArray NumberOfComponents='3' type='Float32' Name='Position' format='ascii'>
-0.075000 -0.075000 0.000000
-0.075000 -0.050000 0.000000
-0.075000 -0.025000 0.000000
-0.075000 0.000000 0.000000
-0.075000 0.025000 0.000000
-0.075000 0.050000 0.000000
-0.075000 0.075000 0.000000
-0.075000 0.100000 0.000000
-0.075000 0.125000 0.000000
-0.075000 0.150000 0.000000
-0.075000 0.175000 0.000000
-0.075000 0.200000 0.000000
-0.075000 0.225000 0.000000
-0.075000 0.250000 0.000000
-0.075000 0.275000 0.000000
-0.075000 0.300000 0.000000
-0.075000 0.325000 0.000000
-0.075000 0.350000 0.000000
-0.075000 0.375000 0.000000
-0.075000 0.400000 0.000000
-0.075000 0.425000 0.000000
-0.075000 0.450000 0.000000
-0.075000 0.475000 0.000000
-0.075000 0.500000 0.000000
-0.075000 0.525000 0.000000
-0.075000 0.550000 0.000000
-0.075000 0.575000 0.000000
-0.075000 0.600000 0.000000
-0.050000 -0.075000 0.000000
-0.050000 -0.050000 0.000000
-0.050000 -0.025000 0.000000
-0.050000 0.000000 0.000000
-0.050000 0.025000 0.000000
-0.050000 0.050000 0.000000
-0.050000 0.075000 0.000000
-0.050000 0.100000 0.000000
-0.050000 0.125000 0.000000
-0.050000 0.150000 0.000000
-0.050000 0.175000 0.000000
-0.050000 0.200000 0.000000
-0.050000 0.225000 0.000000
-0.050000 0.250000 0.000000
-0.050000 0.275000 0.000000
-0.050000 0.300000 0.000000
-0.050000 0.325000 0.000000
-0.050000 0.350000 0.000000
-0.050000 0.375000 0.000000
-0.050000 0.400000 0.000000
-0.050000 0.425000 0.000000
-0.050000 0.450000 0.000000
-0.050000 0.475000 0.000000
-0.050000 0.500000 0.000000
-0.050000 0.525000 0.000000
-0.050000 0.550000 0.000000
-0.050000 0.575000 0.000000
-0.050000 0.600000 0.000000
-0.025000 -0.075000 0.000000
-0.025000 -0.050000 0.000000
-0.025000 -0.025000 0.000000
-0.025000 0.000000 0.000000
-0.025000 0.025000 0.000000
-0.025000 0.050000 0.000000
-0.025000 0.075000 0.000000
-0.025000 0.100000 0.000000
-0.025000 0.125000 0.000000
-0.025000 0.150000 0.000000
-0.025000 0.175000 0.000000
-0.025000 0.200000 0.000000
-0.025000 0.225000 0.000000
-0.025000 0.250000 0.000000
-0.025000 0.275000 0.000000
-0.025000 0.300000 0.000000
-0.025000 0.325000 0.000000
-0.025000 0.350000 0.000000
-0.025000 0.375000 0.000000
-0.025000 0.400000 0.000000
-0.025000 0.425000 0.000000
-0.025000 0.450000 0.000000
-0.025000 0.475000 0.000000
-0.025000 0.500000 0.000000
-0.025000 0.525000 0.000000
-0.025000 0.550000 0.000000
-0.025000 0.575000 0.000000
-0.025000 0.600000 0.000000
0.000000 -0.075000 0.000000
0.000000 -0.050000 0.000000
0.000000 -0.025000 0.000000
0.000000 0.000000 0.000000
0.000000 0.025000 0.000000
0.000000 0.050000 0.000000
0.000000 0.075000 0.000000
0.000000 0.100000 0.000000
0.000000 0.125000 0.000000
0.000000 0.150000 0.000000
0.000000 0.175000 0.000000
0.000000 0.200000 0.000000
0.000000 0.225000 0.000000
0.000000 0.250000 0.000000
0.000000 0.275000 0.000000
0.000000 0.300000 0.000000
0.000000 0.325000 0.000000
0.000000 0.350000 0.000000
0.000000 0.375000 0.000000
0.000000 0.400000 0.000000
0.000000 0.425000 0.000000
0.000000 0.450000 0.000000
0.000000 0.475000 0.000000
0.000000 0.500000 0.000000
0.000000 0.525000 0.000000
0.000000 0.550000 0.000000
0.000000 0.575000 0.000000
0.000000 0.600000 0.000000
0.025000 -0.075000 0.000000
0.025000 -0.050000 0.000000
0.025000 -0.025000 0.000000
0.025000 0.000000 0.000000
0.201818 0.056011 0.000000
0.138186 0.155359 0.000000
0.181817 0.041722 0.000000
0.196463 0.023554 0.000000
0.220839 0.044543 0.000000
0.127940 0.087896 0.000000
0.304440 0.025033 0.000000
0.212003 0.078717 0.000000
0.173279 0.108073 0.000000
0.145266 0.226935 0.000000
0.227887 0.023785 0.000000
0.101883 0.119026 0.000000
0.163978 0.021048 0.000000
0.121926 0.021774 0.000000
0.135438 0.131436 0.000000
0.071175 0.049351 0.000000
0.019422 0.156589 0.000000
0.083488 0.023259 0.000000
0.027992 0.121514 0.000000
0.173879 0.063633 0.000000
0.050000 -0.075000 0.000000
0.050000 -0.050000 0.000000
0.050000 -0.025000 0.000000
0.050000 0.000000 0.000000
0.093667 0.188197 0.000000
0.074415 0.130436 0.000000
0.078258 0.177916 0.000000
0.024392 0.025846 0.000000
0.025412 0.102180 0.000000
0.420329 0.067927 0.000000
0.202809 0.132735 0.000000
0.564500 0.028454 0.000000
0.097308 0.153601 0.000000
0.204451 0.230820 0.000000
0.111774 0.072590 0.000000
0.220658 0.132230 0.000000
0.018973 0.210499 0.000000
0.193723 0.258975 0.000000
0.129121 0.045178 0.000000
0.045869 0.041531 0.000000
0.195659 0.109407 0.000000
0.243406 0.100109 0.000000
0.107889 0.225755 0.000000
0.093372 0.058689 0.000000
0.075000 -0.075000 0.000000
0.075000 -0.050000 0.000000
0.075000 -0.025000 0.000000
0.075000 0.000000 0.000000
0.119396 0.107783 0.000000
0.161188 0.129788 0.000000
0.389166 0.061670 0.000000
0.334036 0.025083 0.000000
0.392344 0.097336 0.000000
0.604200 0.078377 0.000000
0.581815 0.093496 0.000000
0.055875 0.109587 0.000000
0.289525 0.117504 0.000000
0.559434 0.060675 0.000000
0.418406 0.021830 0.000000
0.083956 0.102830 0.000000
0.223242 0.099750 0.000000
0.230549 0.158425 0.000000
0.261499 0.082084 0.000000
0.059095 0.086350 0.000000
0.151162 0.104580 0.000000
0.051987 0.067156 0.000000
0.158289 0.081738 0.000000
0.149527 0.038593 0.000000
0.100000 -0.075000 0.000000
0.100000 -0.050000 0.000000
0.100000 -0.025000 0.000000
0.100000 0.000000 0.000000
0.467700 0.029109 0.000000
0.294611 0.187103 0.000000
0.481261 0.076460 0.000000
0.778947 0.027468 0.000000
0.242319 0.070642 0.000000
0.707535 0.023360 0.000000
0.542370 0.084197 0.000000
0.248460 0.051080 0.000000
0.649899 0.027142 0.000000
0.656345 0.052466 0.000000
0.446818 0.027803 0.000000
0.291601 0.143123 0.000000
0.496425 0.064317 0.000000
0.611691 0.041532 0.000000
0.065517 0.204305 0.000000
0.250380 0.029173 0.000000
0.505804 0.036819 0.000000
0.279675 0.066445 0.000000
0.308027 0.101975 0.000000
0.135516 0.208403 0.000000
0.125000 -0.075000 0.000000
0.125000 -0.050000 0.000000
0.125000 -0.025000 0.000000
0.125000 0.000000 0.000000
0.679029 0.043441 0.000000
0.622195 0.061932 0.000000
0.983222 0.062373 0.000000
0.832378 0.028978 0.000000
0.513987 0.074720 0.000000
0.598359 0.023597 0.000000
0.114674 0.212066 0.000000
0.428866 0.043000 0.000000
0.764877 0.078316 0.000000
0.725884 0.060704 0.000000
0.831768 0.065814 0.000000
0.465576 0.052292 0.000000
0.491854 0.021366 0.000000
0.353984 0.143978 0.000000
0.384199 0.024270 0.000000
0.369543 0.125242 0.000000
0.213587 0.176371 0.000000
0.143147 0.064228 0.000000
0.385622 0.128191 0.000000
0.074625 0.152051 0.000000
0.150000 -0.075000 0.000000
0.150000 -0.050000 0.000000
0.150000 -0.025000 0.000000
0.150000 0.000000 0.000000
0.170927 0.183466 0.000000
0.964518 0.021616 0.000000
0.655978 0.073089 0.000000
0.285519 0.041809 0.000000
0.882687 0.025826 0.000000
0.191805 0.083835 0.000000
0.898891 0.054605 0.000000
0.428397 0.111000 0.000000
0.946428 0.065243 0.000000
0.463334 0.114392 0.000000
0.925739 0.034846 0.000000
0.680131 0.024039 0.000000
0.839864 0.077051 0.000000
0.803936 0.085563 0.000000
0.752691 0.022850 0.000000
0.587964 0.066657 0.000000
0.631370 0.024031 0.000000
0.613595 0.097424 0.000000
0.638516 0.077759 0.000000
0.251789 0.156634 0.000000
0.175000 -0.075000 0.000000
0.175000 -0.050000 0.000000
0.175000 -0.025000 0.000000
0.175000 0.000000 0.000000
0.115721 0.142143 0.000000
0.524003 0.096421 0.000000
0.874488 0.049425 0.000000
0.776520 0.063829 0.000000
1.001295 0.024687 0.000000
0.155787 0.188150 0.000000
0.859586 0.022858 0.000000
0.345529 0.050509 0.000000
0.373003 0.050376 0.000000
0.910524 0.024541 0.000000
0.456659 0.068218 0.000000
0.738183 0.065659 0.000000
0.330206 0.101589 0.000000
0.940907 0.029743 0.000000
0.976622 0.039190 0.000000
0.400882 0.041470 0.000000
0.997298 0.050910 0.000000
0.437227 0.079633 0.000000
0.115165 0.174705 0.000000
0.355761 0.106717 0.000000
0.200000 -0.075000 0.000000
0.200000 -0.050000 0.000000
0.200000 -0.025000 0.000000
0.200000 0.000000 0.000000
0.322202 0.126508 0.000000
0.102412 0.037031 0.000000
0.264173 0.112180 0.000000
0.801997 0.022548 0.000000
0.353117 0.069142 0.000000
0.275434 0.173479 0.000000
0.583341 0.039428 0.000000
0.972382 0.075240 0.000000
0.327819 0.146282 0.000000
0.050516 0.137064 0.000000
0.788459 0.050328 0.000000
0.656501 0.097901 0.000000
0.055680 0.022760 0.000000
0.430885 0.128628 0.000000
0.524607 0.035202 0.000000
0.183009 0.220660 0.000000
0.697874 0.060596 0.000000
0.334303 0.168811 0.000000
0.843208 0.044411 0.000000
0.690026 0.071681 0.000000
0.225000 -0.075000 0.000000
0.225000 -0.050000 0.000000
0.225000 -0.025000 0.000000
0.225000 0.000000 0.000000
0.305739 0.062849 0.000000
0.809711 0.045574 0.000000
0.511389 0.107678 0.000000
0.223648 0.256848 0.000000
0.036070 0.192714 0.000000
0.079565 0.218275 0.000000
0.399941 0.120411 0.000000
0.879590 0.064816 0.000000
0.540807 0.055847 0.000000
0.038512 0.151514 0.000000
0.559017 0.088992 0.000000
0.177617 0.292629 0.000000
0.358832 0.023711 0.000000
0.405846 0.085281 0.000000
0.087582 0.082810 0.000000
0.199300 0.182805 0.000000
0.490228 0.104762 0.000000
0.021300 0.055888 0.000000
0.243961 0.131317 0.000000
0.319706 0.043615 0.000000
0.250000 -0.075000 0.000000
0.250000 -0.050000 0.000000
0.250000 -0.025000 0.000000
0.250000 0.000000 0.000000
0.725470 0.030571 0.000000
0.311394 0.188147 0.000000
0.212044 0.199295 0.000000
0.289388 0.085704 0.000000
0.276224 0.023154 0.000000
0.310898 0.156112 0.000000
0.135299 0.184571 0.000000
0.256246 0.176567 0.000000
0.246678 0.200209 0.000000
0.447448 0.104185 0.000000
0.188155 0.153450 0.000000
0.049154 0.183207 0.000000
0.172544 0.146949 0.000000
0.543888 0.022507 0.000000
0.359235 0.088454 0.000000
0.323110 0.079610 0.000000
0.273510 0.134442 0.000000
0.749133 0.044223 0.000000
0.029534 0.079070 0.000000
0.484274 0.120727 0.000000
0.275000 -0.075000 0.000000
0.275000 -0.050000 0.000000
0.275000 -0.025000 0.000000
0.275000 0.000000 0.000000
0.300000 -0.075000 0.000000
0.300000 -0.050000 0.000000
0.300000 -0.025000 0.000000
0.300000 0.000000 0.000000
0.325000 -0.075000 0.000000
0.325000 -0.050000 0.000000
0.325000 -0.025000 0.000000
0.325000 0.000000 0.000000
0.350000 -0.075000 0.000000
0.350000 -0.050000 0.000000
0.350000 -0.025000 0.000000
0.350000 0.000000 0.000000
0.375000 -0.075000 0.000000
0.375000 -0.050000 0.000000
0.375000 -0.025000 0.000000
0.375000 0.000000 0.000000
0.400000 -0.075000 0.000000
0.400000 -0.050000 0.000000
0.400000 -0.025000 0.000000
0.400000 0.000000 0.000000
0.425000 -0.075000 0.000000
0.425000 -0.050000 0.000000
0.425000 -0.025000 0.000000
0.425000 0.000000 0.000000
0.450000 -0.075000 0.000000
0.450000 -0.050000 0.000000
0.450000 -0.025000 0.000000
0.450000 0.000000 0.000000
0.475000 -0.075000 0.000000
0.475000 -0.050000 0.000000
0.475000 -0.025000 0.000000
0.475000 0.000000 0.000000
0.500000 -0.075000 0.000000
0.500000 -0.050000 0.000000
0.500000 -0.025000 0.000000
0.500000 0.000000 0.000000
0.525000 -0.075000 0.000000
0.525000 -0.050000 0.000000
0.525000 -0.025000 0.000000
0.525000 0.000000 0.000000
0.550000 -0.075000 0.000000
0.550000 -0.050000 0.000000
0.550000 -0.025000 0.000000
0.550000 0.000000 0.000000
0.575000 -0.075000 0.000000
0.575000 -0.050000 0.000000
0.575000 -0.025000 0.000000
0.575000 0.000000 0.000000
0.600000 -0.075000 0.000000
0.600000 -0.050000 0.000000
0.600000 -0.025000 0.000000
0.600000 0.000000 0.000000
0.625000 -0.075000 0.000000
0.625000 -0.050000 0.000000
0.625000 -0.025000 0.000000
0.625000 0.000000 0.000000
0.650000 -0.075000 0.000000
0.650000 -0.050000 0.000000
0.650000 -0.025000 0.000000
0.650000 0.000000 0.000000
0.675000 -0.075000 0.000000
0.675000 -0.050000 0.000000
0.675000 -0.025000 0.000000
0.675000 0.000000 0.000000
0.700000 -0.075000 0.000000
0.700000 -0.050000 0.000000
0.700000 -0.025000 0.000000
0.700000 0.000000 0.000000
0.725000 -0.075000 0.000000
0.725000 -0.050000 0.000000
0.725000 -0.025000 0.000000
0.725000 0.000000 0.000000
0.750000 -0.075000 0.000000
0.750000 -0.050000 0.000000
0.750000 -0.025000 0.000000
0.750000 0.000000 0.000000
0.775000 -0.075000 0.000000
0.775000 -0.050000 0.000000
0.775000 -0.025000 0.000000
0.775000 0.000000 0.000000
0.800000 -0.075000 0.000000
0.800000 -0.050000 0.000000
0.800000 -0.025000 0.000000
0.800000 0.000000 0.000000
0.825000 -0.075000 0.000000
0.825000 -0.050000 0.000000
0.825000 -0.025000 0.000000
0.825000 0.000000 0.000000
0.850000 -0.075000 0.000000
0.850000 -0.050000 0.000000
0.850000 -0.025000 0.000000
0.850000 0.000000 0.000000
0.875000 -0.075000 0.000000
0.875000 -0.050000 0.000000
0.875000 -0.025000 0.000000
0.875000 0.000000 0.000000
0.900000 -0.075000 0.000000
0.900000 -0.050000 0.000000
0.900000 -0.025000 0.000000
0.900000 0.000000 0.000000
0.925000 -0.075000 0.000000
0.925000 -0.050000 0.000000
0.925000 -0.025000 0.000000
0.925000 0.000000 0.000000
0.950000 -0.075000 0.000000
0.950000 -0.050000 0.000000
0.950000 -0.025000 0.000000
0.950000 0.000000 0.000000
0.975000 -0.075000 0.000000
0.975000 -0.050000 0.000000
0.975000 -0.025000 0.000000
0.975000 0.000000 0.000000
1.000000 -0.075000 0.000000
1.000000 -0.050000 0.000000
1.000000 -0.025000 0.000000
1.000000 0.000000 0.000000
1.025000 -0.075000 0.000000
1.025000 -0.050000 0.000000
1.025000 -0.025000 0.000000
1.025000 0.000000 0.000000
1.025000 0.025000 0.000000
1.025000 0.050000 0.000000
1.025000 0.075000 0.000000
1.025000 0.100000 0.000000
1.025000 0.125000 0.000000
1.025000 0.150000 0.000000
1.025000 0.175000 0.000000
1.025000 0.200000 0.000000
1.025000 0.225000 0.000000
1.025000 0.250000 0.000000
1.025000 0.275000 0.000000
1.025000 0.300000 0.000000
1.025000 0.325000 0.000000
1.025000 0.350000 0.000000
1.025000 0.375000 0.000000
1.025000 0.400000 0.000000
1.025000 0.425000 0.000000
1.025000 0.450000 0.000000
1.025000 0.475000 0.000000
1.025000 0.500000 0.000000
1.025000 0.525000 0.000000
1.025000 0.550000 0.000000
1.025000 0.575000 0.000000
1.025000 0.600000 0.000000
1.050000 -0.075000 0.000000
1.050000 -0.050000 0.000000
1.050000 -0.025000 0.000000
1.050000 0.000000 0.000000
1.050000 0.025000 0.000000
1.050000 0.050000 0.000000
1.050000 0.075000 0.000000
1.050000 0.100000 0.000000
1.050000 0.125000 0.000000
1.050000 0.150000 0.000000
1.050000 0.175000 0.000000
1.050000 0.200000 0.000000
1.050000 0.225000 0.000000
1.050000 0.250000 0.000000
1.050000 0.275000 0.000000
1.050000 0.300000 0.000000
1.050000 0.325000 0.000000
1.050000 0.350000 0.000000
1.050000 0.375000 0.000000
1.050000 0.400000 0.000000
1.050000 0.425000 0.000000
1.050000 0.450000 0.000000
1.050000 0.475000 0.000000
1.050000 0.500000 0.000000
1.050000 0.525000 0.000000
1.050000 0.550000 0.000000
1.050000 0.575000 0.000000
1.050000 0.600000 0.000000
1.075000 -0.075000 0.000000
1.075000 -0.050000 0.000000
1.075000 -0.025000 0.000000
1.075000 0.000000 0.000000
1.075000 0.025000 0.000000
1.075000 0.050000 0.000000
1.075000 0.075000 0.000000
1.075000 0.100000 0.000000
1.075000 0.125000 0.000000
1.075000 0.150000 0.000000
1.075000 0.175000 0.000000
1.075000 0.200000 0.000000
1.075000 0.225000 0.000000
1.075000 0.250000 0.000000
1.075000 0.275000 0.000000
1.075000 0.300000 0.000000
1.075000 0.325000 0.000000
1.075000 0.350000 0.000000
1.075000 0.375000 0.000000
1.075000 0.400000 0.000000
1.075000 0.425000 0.000000
1.075000 0.450000 0.000000
1.075000 0.475000 0.000000
1.075000 0.500000 0.000000
1.075000 0.525000 0.000000
1.075000 0.550000 0.000000
1.075000 0.575000 0.000000
1.075000 0.600000 0.000000
1.100000 -0.075000 0.000000
1.100000 -0.050000 0.000000
1.100000 -0.025000 0.000000
1.100000 0.000000 0.000000
1.100000 0.025000 0.000000
1.100000 0.050000 0.000000
1.100000 0.075000 0.000000
1.100000 0.100000 0.000000
1.100000 0.125000 0.000000
1.100000 0.150000 0.000000
1.100000 0.175000 0.000000
1.100000 0.200000 0.000000
1.100000 0.225000 0.000000
1.100000 0.250000 0.000000
1.100000 0.275000 0.000000
1.100000 0.300000 0.000000
1.100000 0.325000 0.000000
1.100000 0.350000 0.000000
1.100000 0.375000 0.000000
1.100000 0.400000 0.000000
1.100000 0.425000 0.000000
1.100000 0.450000 0.000000
1.100000 0.475000 0.000000
1.100000 0.500000 0.000000
1.100000 0.525000 0.000000
1.100000 0.550000 0.000000
1.100000 0.575000 0.000000
1.100000 0.600000 0.000000
</DataArray>
</Points>
<PointData>
<DataArray NumberOfComponents='1' type='Int32' Name='ParticleType' format='ascii'>
3
3
3
3
3
3
3
3
3
3
3
3
3
3
3
3
3
3
3
3
3
3
3
3
3
3
2
2
3
3
3
3
3
3
3
3
3
3
3
3
3
3
3
3
3
3
3
3
3
3
3
3
3
3
2
2
3
3
2
2
2
2
2
2
2
2
2
2
2
2
2
2
2
2
2
2
2
2
2
2
2
2
2
2
3
3
2
2
2
2
2
2
2
2
2
2
2
2
2
2
2
2
2
2
2
2
2
2
2
2
2
2
3
3
2
2
0
0
0
0
0
0
0
0
0
0
0
0
0
0
0
0
0
0
0
0
3
3
2
2
0
0
0
0
0
0
0
0
0
0
0
0
0
0
0
0
0
0
0
0
3
3
2
2
0
0
0
0
0
0
0
0
0
0
0
0
0
0
0
0
0
0
0
0
3
3
2
2
0
0
0
0
0
0
0
0
0
0
0
0
0
0
0
0
0
0
0
0
3
3
2
2
0
0
0
0
0
0
0
0
0
0
0
0
0
0
0
0
0
0
0
0
3
3
2
2
0
0
0
0
0
0
0
0
0
0
0
0
0
0
0
0
0
0
0
0
3
3
2
2
0
0
0
0
0
0
0
0
0
0
0
0
0
0
0
0
0
0
0
0
3
3
2
2
0
0
0
0
0
0
0
0
0
0
0
0
0
0
0
0
0
0
0
0
3
3
2
2
0
0
0
0
0
0
0
0
0
0
0
0
0
0
0
0
0
0
0
0
3
3
2
2
0
0
0
0
0
0
0
0
0
0
0
0
0
0
0
0
0
0
0
0
3
3
2
2
3
3
2
2
3
3
2
2
3
3
2
2
3
3
2
2
3
3
2
2
3
3
2
2
3
3
2
2
3
3
2
2
3
3
2
2
3
3
2
2
3
3
2
2
3
3
2
2
3
3
2
2
3
3
2
2
3
3
2
2
3
3
2
2
3
3
2
2
3
3
2
2
3
3
2
2
3
3
2
2
3
3
2
2
3
3
2
2
3
3
2
2
3
3
2
2
3
3
2
2
3
3
2
2
3
3
2
2
3
3
2
2
3
3
2
2
3
3
2
2
2
2
2
2
2
2
2
2
2
2
2
2
2
2
2
2
2
2
2
2
2
2
2
2
3
3
2
2
2
2
2
2
2
2
2
2
2
2
2
2
2
2
2
2
2
2
2
2
2
2
2
2
3
3
3
3
3
3
3
3
3
3
3
3
3
3
3
3
3
3
3
3
3
3
3
3
3
3
2
2
3
3
3
3
3
3
3
3
3
3
3
3
3
3
3
3
3
3
3
3
3
3
3
3
3
3
2
2
</DataArray>
<DataArray NumberOfComponents='1' type='Float32' Name='Velocity' format='ascii'>
0.000000
0.000000
0.000000
0.000000
0.000000
0.000000
0.000000
0.000000
0.000000
0.000000
0.000000
0.000000
0.000000
0.000000
0.000000
0.000000
0.000000
0.000000
0.000000
0.000000
0.000000
0.000000
0.000000
0.000000
0.000000
0.000000
0.000000
0.000000
0.000000
0.000000
0.000000
0.000000
0.000000
0.000000
0.000000
0.000000
0.000000
0.000000
0.000000
0.000000
0.000000
0.000000
0.000000
0.000000
0.000000
0.000000
0.000000
0.000000
0.000000
0.000000
0.000000
0.000000
0.000000
0.000000
0.000000
0.000000
0.000000
0.000000
0.000000
0.000000
0.000000
0.000000
0.000000
0.000000
0.000000
0.000000
0.000000
0.000000
0.000000
0.000000
0.000000
0.000000
0.000000
0.000000
0.000000
0.000000
0.000000
0.000000
0.000000
0.000000
0.000000
0.000000
0.000000
0.000000
0.000000
0.000000
0.000000
0.000000
0.000000
0.000000
0.000000
0.000000
0.000000
0.000000
0.000000
0.000000
0.000000
0.000000
0.000000
0.000000
0.000000
0.000000
0.000000
0.000000
0.000000
0.000000
0.000000
0.000000
0.000000
0.000000
0.000000
0.000000
0.000000
0.000000
0.000000
0.000000
0.453455
0.243154
0.622977
0.479889
0.422434
0.572077
0.406828
0.337555
0.317480
0.646979
0.161949
0.548114
0.478873
0.357698
0.295383
0.250399
0.531356
0.466645
0.588741
0.371373
0.000000
0.000000
0.000000
0.000000
0.618168
0.675208
0.596519
0.231651
0.334058
0.091407
0.291195
0.123825
0.476067
0.488197
0.599828
0.508127
0.630066
0.717527
0.590842
0.193536
0.327119
0.464771
0.433448
0.130398
0.000000
0.000000
0.000000
0.000000
0.443713
0.394324
0.389460
0.412650
0.301872
0.728958
0.598112
0.180751
0.255809
0.220565
0.232393
0.313142
0.301101
0.396996
0.374398
0.349662
0.303435
0.223952
0.288545
0.554234
0.000000
0.000000
0.000000
0.000000
0.109561
0.845185
0.385535
0.183866
0.326997
0.280301
0.420288
0.481586
0.159739
0.217997
0.267750
0.325457
0.250560
0.172953
0.537915
0.283780
0.201132
0.213466
0.254569
0.125546
0.000000
0.000000
0.000000
0.000000
0.176947
0.497379
0.200926
0.183049
0.247955
0.060119
0.268773
0.070772
0.273125
0.261411
0.122270
0.383881
0.255921
0.674659
0.246933
0.191090
0.170747
0.474937
0.282879
0.416329
0.000000
0.000000
0.000000
0.000000
0.255666
0.092634
0.279502
0.328920
0.150435
0.318486
0.229984
0.634209
0.261667
0.424133
0.300510
0.228880
0.286532
0.268869
0.049276
0.267590
0.136239
0.402728
0.334011
0.445474
0.000000
0.000000
0.000000
0.000000
0.051866
0.174901
0.381437
0.292886
0.144077
0.553018
0.177493
0.233862
0.449318
0.151189
0.140814
0.204543
0.104009
0.170207
0.158515
0.124816
0.062958
0.098276
0.583723
0.419216
0.000000
0.000000
0.000000
0.000000
0.605401
0.350001
0.132749
0.169789
0.410488
0.786190
0.315703
0.400141
0.138408
0.268778
0.021485
0.703149
0.220543
0.789889
0.367603
0.234479
0.336612
0.636272
0.204464
0.319380
0.000000
0.000000
0.000000
0.000000
0.419573
0.063131
0.239623
0.581422
0.530908
0.299976
0.211994
0.246634
0.213021
0.398316
0.290736
1.598006
0.267458
0.256243
0.471974
0.650928
0.110119
0.205278
0.096312
0.329796
0.000000
0.000000
0.000000
0.000000
0.045039
0.423018
0.505291
0.405205
0.268824
0.229696
0.294590
0.236657
0.297489
0.286352
0.354825
1.075512
0.148005
0.137141
0.316733
0.353559
0.470371
0.240092
0.457813
0.152416
0.000000
0.000000
0.000000
0.000000
0.000000
0.000000
0.000000
0.000000
0.000000
0.000000
0.000000
0.000000
0.000000
0.000000
0.000000
0.000000
0.000000
0.000000
0.000000
0.000000
0.000000
0.000000
0.000000
0.000000
0.000000
0.000000
0.000000
0.000000
0.000000
0.000000
0.000000
0.000000
0.000000
0.000000
0.000000
0.000000
0.000000
0.000000
0.000000
0.000000
0.000000
0.000000
0.000000
0.000000
0.000000
0.000000
0.000000
0.000000
0.000000
0.000000
0.000000
0.000000
0.000000
0.000000
0.000000
0.000000
0.000000
0.000000
0.000000
0.000000
0.000000
0.000000
0.000000
0.000000
0.000000
0.000000
0.000000
0.000000
0.000000
0.000000
0.000000
0.000000
0.000000
0.000000
0.000000
0.000000
0.000000
0.000000
0.000000
0.000000
0.000000
0.000000
0.000000
0.000000
0.000000
0.000000
0.000000
0.000000
0.000000
0.000000
0.000000
0.000000
0.000000
0.000000
0.000000
0.000000
0.000000
0.000000
0.000000
0.000000
0.000000
0.000000
0.000000
0.000000
0.000000
0.000000
0.000000
0.000000
0.000000
0.000000
0.000000
0.000000
0.000000
0.000000
0.000000
0.000000
0.000000
0.000000
0.000000
0.000000
0.000000
0.000000
0.000000
0.000000
0.000000
0.000000
0.000000
0.000000
0.000000
0.000000
0.000000
0.000000
0.000000
0.000000
0.000000
0.000000
0.000000
0.000000
0.000000
0.000000
0.000000
0.000000
0.000000
0.000000
0.000000
0.000000
0.000000
0.000000
0.000000
0.000000
0.000000
0.000000
0.000000
0.000000
0.000000
0.000000
0.000000
0.000000
0.000000
0.000000
0.000000
0.000000
0.000000
0.000000
0.000000
0.000000
0.000000
0.000000
0.000000
0.000000
0.000000
0.000000
0.000000
0.000000
0.000000
0.000000
0.000000
0.000000
0.000000
0.000000
0.000000
0.000000
0.000000
0.000000
0.000000
0.000000
0.000000
0.000000
0.000000
0.000000
0.000000
0.000000
0.000000
0.000000
0.000000
0.000000
0.000000
0.000000
0.000000
0.000000
0.000000
0.000000
0.000000
0.000000
0.000000
0.000000
0.000000
0.000000
0.000000
0.000000
0.000000
0.000000
0.000000
0.000000
0.000000
0.000000
0.000000
0.000000
0.000000
0.000000
0.000000
0.000000
0.000000
0.000000
0.000000
0.000000
0.000000
0.000000
0.000000
0.000000
0.000000
0.000000
</DataArray>
<DataArray NumberOfComponents='1' type='Float32' Name='pressure' format='ascii'>
0.000000
0.000000
0.000000
0.000000
0.000000
0.000000
0.000000
0.000000
0.000000
0.000000
0.000000
0.000000
0.000000
0.000000
0.000000
0.000000
0.000000
0.000000
0.000000
0.000000
0.000000
0.000000
0.000000
0.000000
0.000000
0.000000
0.000000
0.000000
0.000000
0.000000
0.000000
0.000000
0.000000
0.000000
0.000000
0.000000
0.000000
0.000000
0.000000
0.000000
0.000000
0.000000
0.000000
0.000000
0.000000
0.000000
0.000000
0.000000
0.000000
0.000000
0.000000
0.000000
0.000000
0.000000
0.000000
0.000000
0.000000
0.000000
1408.973145
1524.727417
1886.493286
2733.230469
884.561279
204.394821
0.000000
2763.760986
1777.129395
2588.201904
1777.153687
0.000000
0.000000
0.000000
0.000000
0.000000
0.000000
0.000000
0.000000
0.000000
0.000000
0.000000
0.000000
0.000000
0.000000
0.000000
0.000000
0.000000
1411.989014
1331.453369
1437.431519
3356.630615
0.000000
0.000000
0.000000
1983.401367
0.000000
0.000000
0.000000
0.000000
0.000000
0.000000
0.000000
0.000000
0.000000
0.000000
0.000000
0.000000
0.000000
0.000000
0.000000
0.000000
0.000000
0.000000
0.000000
0.000000
1390.008911
443.948303
1332.171387
0.000000
2149.172607
0.000000
1657.577515
834.719177
1924.853027
1276.549805
1504.207520
0.000000
3064.822510
125.023018
2377.198730
930.384521
148.966888
0.000000
0.000000
1067.735107
749.078186
1048.448486
0.000000
0.000000
2736.481934
3115.010742
0.000000
0.000000
0.000000
0.000000
1356.732666
940.118042
1845.666992
1176.949341
703.584167
0.000000
14.179296
1091.770508
0.000000
0.000000
2131.801270
1981.098267
246.359970
1057.913696
0.000000
1624.420776
0.000000
0.000000
2882.826904
2099.297363
862.664490
102.083969
402.321625
1429.200317
9.084678
132.499222
0.000000
0.000000
1852.389038
0.000000
1116.854004
0.000000
1039.711304
0.000000
553.395630
479.596588
911.995544
1332.884155
1570.557251
1672.165039
0.000000
0.000000
2228.089600
689.016846
660.800476
0.000000
0.000000
0.000000
1290.419312
559.392639
472.036865
629.445190
475.098755
720.159302
695.359070
1850.790283
32.349823
0.000000
0.000000
1161.137451
510.940277
2083.787598
2342.035400
0.000000
0.000000
0.000000
3544.799805
2829.547852
1139.942993
951.087708
0.000000
0.000000
0.000000
1184.672119
2763.523926
0.000000
0.000000
7.605741
0.000000
908.981567
1331.727661
0.000000
1374.209961
1028.847168
1709.138672
795.545776
289.619415
0.000000
0.000000
0.000000
3315.100098
764.131653
0.000000
417.736053
0.000000
1560.715942
912.133362
1087.641235
0.000000
2396.240723
0.000000
0.000000
1253.244263
1974.946045
0.000000
0.000000
390.653107
247.475845
597.362793
0.000000
0.000000
2008.076782
0.000000
0.000000
3697.086426
3635.376221
1585.538086
0.000000
259.275696
0.000000
0.000000
0.000000
528.883423
1204.476196
852.612183
610.299927
768.665771
0.000000
1679.706909
0.000000
512.607788
1236.582397
0.000000
0.000000
0.000000
2139.274902
0.000000
0.000000
2927.889648
2119.573730
131.644501
1890.352417
1376.129639
807.149048
1669.756836
0.000000
267.248840
0.000000
2667.316406
838.036499
1583.227173
0.000000
2751.256104
0.000000
720.536377
0.000000
0.000000
0.000000
241.308334
0.000000
0.000000
0.000000
2393.045898
2119.620361
1404.448364
0.000000
0.000000
0.000000
0.000000
0.000000
0.000000
0.000000
0.000000
879.826355
0.000000
0.000000
2356.629150
120.001625
1710.659790
559.585144
778.332336
1081.015503
0.000000
1790.527466
0.000000
0.000000
1004.633118
0.000000
611.300110
0.000000
0.000000
874.858398
2113.549805
2412.020752
259.712708
0.000000
0.000000
1886.498047
0.000000
0.000000
3.318614
2075.625244
1053.245483
69.855965
2448.255371
580.385986
80.478218
0.000000
0.000000
0.000000
2495.317139
2927.958252
0.000000
0.000000
1871.869385
2520.618164
0.000000
0.000000
1543.488770
1092.479248
0.000000
0.000000
1938.481934
1935.045654
0.000000
0.000000
2043.784302
1859.439819
0.000000
0.000000
1667.858154
472.298157
0.000000
0.000000
2137.023193
2186.664307
0.000000
0.000000
158.877182
0.000000
0.000000
0.000000
1087.503418
564.868286
0.000000
0.000000
1857.337769
1700.490601
0.000000
0.000000
270.116211
0.000000
0.000000
0.000000
1087.156494
507.121765
0.000000
0.000000
0.000000
0.000000
0.000000
0.000000
1083.001465
968.638611
0.000000
0.000000
994.547546
1867.045044
0.000000
0.000000
238.986618
0.000000
0.000000
0.000000
1278.641235
1145.239746
0.000000
0.000000
1555.656616
2364.682373
0.000000
0.000000
624.589905
238.148193
0.000000
0.000000
1519.588379
1707.979248
0.000000
0.000000
0.000000
0.000000
0.000000
0.000000
1261.426758
1164.097534
0.000000
0.000000
0.000000
0.000000
0.000000
0.000000
682.952759
0.000000
0.000000
0.000000
555.343323
650.450012
0.000000
0.000000
80.890121
0.000000
0.000000
0.000000
0.000000
621.865051
0.000000
0.000000
1103.617920
1272.448853
0.000000
0.000000
1438.011719
707.063354
0.000000
0.000000
544.539429
0.000000
0.000000
0.000000
308.187622
688.137085
0.000000
0.000000
0.000000
0.000000
0.000000
0.000000
0.000000
0.000000
0.000000
0.000000
0.000000
0.000000
0.000000
0.000000
0.000000
0.000000
0.000000
0.000000
0.000000
0.000000
0.000000
0.000000
0.000000
0.000000
0.000000
0.000000
243.130997
125.783966
212.947189
0.000000
0.000000
0.000000
0.000000
0.000000
0.000000
0.000000
0.000000
0.000000
0.000000
0.000000
0.000000
0.000000
0.000000
0.000000
0.000000
0.000000
0.000000
0.000000
0.000000
0.000000
0.000000
0.000000
0.000000
0.000000
0.000000
0.000000
0.000000
0.000000
0.000000
0.000000
0.000000
0.000000
0.000000
0.000000
0.000000
0.000000
0.000000
0.000000
0.000000
0.000000
0.000000
0.000000
0.000000
0.000000
0.000000
0.000000
0.000000
0.000000
0.000000
0.000000
0.000000
0.000000
0.000000
0.000000
0.000000
0.000000
0.000000
0.000000
0.000000
0.000000
0.000000
0.000000
0.000000
0.000000
0.000000
0.000000
0.000000
0.000000
0.000000
0.000000
0.000000
0.000000
0.000000
0.000000
0.000000
0.000000
0.000000
0.000000
</DataArray>
</PointData>
<Cells>
<DataArray type='Int32' Name='connectivity' format='ascii'>
0
1
2
3
4
5
6
7
8
9
10
11
12
13
14
15
16
17
18
19
20
21
22
23
24
25
26
27
28
29
30
31
32
33
34
35
36
37
38
39
40
41
42
43
44
45
46
47
48
49
50
51
52
53
54
55
56
57
58
59
60
61
62
63
64
65
66
67
68
69
70
71
72
73
74
75
76
77
78
79
80
81
82
83
84
85
86
87
88
89
90
91
92
93
94
95
96
97
98
99
100
101
102
103
104
105
106
107
108
109
110
111
112
113
114
115
116
117
118
119
120
121
122
123
124
125
126
127
128
129
130
131
132
133
134
135
136
137
138
139
140
141
142
143
144
145
146
147
148
149
150
151
152
153
154
155
156
157
158
159
160
161
162
163
164
165
166
167
168
169
170
171
172
173
174
175
176
177
178
179
180
181
182
183
184
185
186
187
188
189
190
191
192
193
194
195
196
197
198
199
200
201
202
203
204
205
206
207
208
209
210
211
212
213
214
215
216
217
218
219
220
221
222
223
224
225
226
227
228
229
230
231
232
233
234
235
236
237
238
239
240
241
242
243
244
245
246
247
248
249
250
251
252
253
254
255
256
257
258
259
260
261
262
263
264
265
266
267
268
269
270
271
272
273
274
275
276
277
278
279
280
281
282
283
284
285
286
287
288
289
290
291
292
293
294
295
296
297
298
299
300
301
302
303