<?xml version='1.0' encoding='UTF-8'?>
<VTKFile xmlns='VTK' byte_order='LittleEndian' version='0.1' type='UnstructuredGrid'>
<UnstructuredGrid>
<Piece NumberOfCells='584' NumberOfPoints='584'>
<Points>
<DataArray NumberOfComponents='3' type='Float32' Name='Position' format='ascii'>
-0.075000 -0.075000 0.000000
-0.075000 -0.050000 0.000000
-0.075000 -0.025000 0.000000
-0.075000 0.000000 0.000000
-0.075000 0.025000 0.000000
-0.075000 0.050000 0.000000
-0.075000 0.075000 0.000000
-0.075000 0.100000 0.000000
-0.075000 0.125000 0.000000
-0.075000 0.150000 0.000000
-0.075000 0.175000 0.000000
-0.075000 0.200000 0.000000
-0.075000 0.225000 0.000000
-0.075000 0.250000 0.000000
-0.075000 0.275000 0.000000
-0.075000 0.300000 0.000000
-0.075000 0.325000 0.000000
-0.075000 0.350000 0.000000
-0.075000 0.375000 0.000000
-0.075000 0.400000 0.000000
-0.075000 0.425000 0.000000
-0.075000 0.450000 0.000000
-0.075000 0.475000 0.000000
-0.075000 0.500000 0.000000
-0.075000 0.525000 0.000000
-0.075000 0.550000 0.000000
-0.075000 0.575000 0.000000
-0.075000 0.600000 0.000000
-0.050000 -0.075000 0.000000
-0.050000 -0.050000 0.000000
-0.050000 -0.025000 0.000000
-0.050000 0.000000 0.000000
-0.050000 0.025000 0.000000
-0.050000 0.050000 0.000000
-0.050000 0.075000 0.000000
-0.050000 0.100000 0.000000
-0.050000 0.125000 0.000000
-0.050000 0.150000 0.000000
-0.050000 0.175000 0.000000
-0.050000 0.200000 0.000000
-0.050000 0.225000 0.000000
-0.050000 0.250000 0.000000
-0.050000 0.275000 0.000000
-0.050000 0.300000 0.000000
-0.050000 0.325000 0.000000
-0.050000 0.350000 0.000000
-0.050000 0.375000 0.000000
-0.050000 0.400000 0.000000
-0.050000 0.425000 0.000000
-0.050000 0.450000 0.000000
-0.050000 0.475000 0.000000
-0.050000 0.500000 0.000000
-0.050000 0.525000 0.000000
-0.050000 0.550000 0.000000
-0.050000 0.575000 0.000000
-0.050000 0.600000 0.000000
-0.025000 -0.075000 0.000000
-0.025000 -0.050000 0.000000
-0.025000 -0.025000 0.000000
-0.025000 0.000000 0.000000
-0.025000 0.025000 0.000000
-0.025000 0.050000 0.000000
-0.025000 0.075000 0.000000
-0.025000 0.100000 0.000000
-0.025000 0.125000 0.000000
-0.025000 0.150000 0.000000
-0.025000 0.175000 0.000000
-0.025000 0.200000 0.000000
-0.025000 0.225000 0.000000
-0.025000 0.250000 0.000000
-0.025000 0.275000 0.000000
-0.025000 0.300000 0.000000
-0.025000 0.325000 0.000000
-0.025000 0.350000 0.000000
-0.025000 0.375000 0.000000
-0.025000 0.400000 0.000000
-0.025000 0.425000 0.000000
-0.025000 0.450000 0.000000
-0.025000 0.475000 0.000000
-0.025000 0.500000 0.000000
-0.025000 0.525000 0.000000
-0.025000 0.550000 0.000000
-0.025000 0.575000 0.000000
-0.025000 0.600000 0.000000
0.000000 -0.075000 0.000000
0.000000 -0.050000 0.000000
0.000000 -0.025000 0.000000
0.000000 0.000000 0.000000
0.000000 0.025000 0.000000
0.000000 0.050000 0.000000
0.000000 0.075000 0.000000
0.000000 0.100000 0.000000
0.000000 0.125000 0.000000
0.000000 0.150000 0.000000
0.000000 0.175000 0.000000
0.000000 0.200000 0.000000
0.000000 0.225000 0.000000
0.000000 0.250000 0.000000
0.000000 0.275000 0.000000
0.000000 0.300000 0.000000
0.000000 0.325000 0.000000
0.000000 0.350000 0.000000
0.000000 0.375000 0.000000
0.000000 0.400000 0.000000
0.000000 0.425000 0.000000
0.000000 0.450000 0.000000
0.000000 0.475000 0.000000
0.000000 0.500000 0.000000
0.000000 0.525000 0.000000
0.000000 0.550000 0.000000
0.000000 0.575000 0.000000
0.000000 0.600000 0.000000
0.025000 -0.075000 0.000000
0.025000 -0.050000 0.000000
0.025000 -0.025000 0.000000
0.025000 0.000000 0.000000
0.124810 0.047331 0.000000
0.212727 0.066650 0.000000
0.152463 0.037153 0.000000
0.173416 0.023540 0.000000
0.257220 0.024212 0.000000
0.088817 0.089058 0.000000
0.326746 0.033787 0.000000
0.210361 0.027437 0.000000
0.191306 0.032788 0.000000
0.028344 0.212883 0.000000
0.235923 0.024168 0.000000
0.048652 0.154671 0.000000
0.131074 0.019890 0.000000
0.040816 0.055533 0.000000
0.103174 0.104227 0.000000
0.042961 0.024570 0.000000
0.053936 0.191914 0.000000
0.089645 0.022785 0.000000
0.078552 0.142811 0.000000
0.109791 0.037776 0.000000
0.050000 -0.075000 0.000000
0.050000 -0.050000 0.000000
0.050000 -0.025000 0.000000
0.050000 0.000000 0.000000
0.220651 0.146160 0.000000
0.141300 0.169258 0.000000
0.207846 0.162451 0.000000
0.021411 0.029534 0.000000
0.016693 0.164123 0.000000
0.483572 0.052554 0.000000
0.191715 0.084104 0.000000
0.617093 0.043125 0.000000
0.220219 0.118836 0.000000
0.262913 0.169111 0.000000
0.050249 0.078801 0.000000
0.267425 0.055738 0.000000
0.081935 0.172960 0.000000
0.191506 0.133638 0.000000
0.096601 0.072260 0.000000
0.021919 0.091614 0.000000
0.185583 0.066123 0.000000
0.243619 0.086521 0.000000
0.047922 0.241949 0.000000
0.080428 0.045172 0.000000
0.075000 -0.075000 0.000000
0.075000 -0.050000 0.000000
0.075000 -0.025000 0.000000
0.075000 0.000000 0.000000
0.172679 0.121461 0.000000
0.160976 0.107019 0.000000
0.427941 0.062454 0.000000
0.359181 0.019268 0.000000
0.575956 0.100478 0.000000
0.695671 0.021194 0.000000
0.721140 0.044493 0.000000
0.028503 0.118414 0.000000
0.512736 0.098615 0.000000
0.687679 0.037797 0.000000
0.478795 0.024622 0.000000
0.143302 0.138961 0.000000
0.224386 0.050762 0.000000
0.257879 0.097828 0.000000
0.282973 0.028614 0.000000
0.067365 0.117823 0.000000
0.194179 0.108743 0.000000
0.025826 0.067424 0.000000
0.155280 0.075350 0.000000
0.139074 0.076587 0.000000
0.100000 -0.075000 0.000000
0.100000 -0.050000 0.000000
0.100000 -0.025000 0.000000
0.100000 0.000000 0.000000
0.525784 0.023398 0.000000
0.445615 0.106255 0.000000
0.539243 0.046713 0.000000
0.834523 0.023756 0.000000
0.250246 0.055025 0.000000
0.791849 0.025863 0.000000
0.719459 0.090550 0.000000
0.298470 0.049716 0.000000
0.737114 0.020980 0.000000
0.743210 0.044739 0.000000
0.501255 0.029464 0.000000
0.416377 0.127659 0.000000
0.601033 0.060633 0.000000
0.651443 0.043023 0.000000
0.225705 0.204396 0.000000
0.306485 0.021401 0.000000
0.578707 0.024050 0.000000
0.330169 0.088780 0.000000
0.412635 0.069737 0.000000
0.274798 0.077507 0.000000
0.125000 -0.075000 0.000000
0.125000 -0.050000 0.000000
0.125000 -0.025000 0.000000
0.125000 0.000000 0.000000
0.764321 0.095437 0.000000
0.796523 0.156551 0.000000
1.004198 0.090131 0.000000
0.856666 0.026913 0.000000
0.674327 0.108504 0.000000
0.633197 0.023510 0.000000
0.286875 0.124386 0.000000
0.598159 0.109085 0.000000
0.820989 0.072868 0.000000
0.782682 0.071644 0.000000
0.943380 0.058931 0.000000
0.611845 0.079809 0.000000
0.557255 0.024022 0.000000
0.559137 0.055501 0.000000
0.452766 0.022657 0.000000
0.579577 0.079235 0.000000
0.431061 0.142861 0.000000
0.135583 0.114370 0.000000
0.539888 0.071917 0.000000
0.038866 0.184055 0.000000
0.150000 -0.075000 0.000000
0.150000 -0.050000 0.000000
0.150000 -0.025000 0.000000
0.150000 0.000000 0.000000
0.307542 0.064160 0.000000
0.961548 0.019721 0.000000
0.795260 0.111615 0.000000
0.352109 0.060104 0.000000
0.908433 0.032414 0.000000
0.162998 0.054392 0.000000
0.957194 0.064308 0.000000
0.503317 0.076107 0.000000
0.988327 0.073016 0.000000
0.776114 0.137370 0.000000
0.881710 0.046586 0.000000
0.765161 0.024079 0.000000
0.858921 0.054642 0.000000
0.837784 0.107887 0.000000
0.814286 0.029768 0.000000
0.678296 0.062114 0.000000
0.662073 0.025652 0.000000
0.694342 0.067190 0.000000
0.718035 0.063051 0.000000
0.377923 0.115037 0.000000
0.175000 -0.075000 0.000000
0.175000 -0.050000 0.000000
0.175000 -0.025000 0.000000
0.175000 0.000000 0.000000
0.035025 0.137058 0.000000
0.719211 0.108149 0.000000
0.956837 0.115390 0.000000
0.919874 0.123014 0.000000
0.982136 0.037060 0.000000
0.096853 0.177077 0.000000
0.882468 0.023444 0.000000
0.367313 0.039889 0.000000
0.424013 0.026238 0.000000
0.925371 0.025361 0.000000
0.644427 0.116485 0.000000
0.784320 0.100081 0.000000
0.561509 0.104852 0.000000
0.944676 0.039387 0.000000
1.000522 0.050882 0.000000
0.453999 0.044060 0.000000
0.998687 0.024686 0.000000
0.536628 0.137331 0.000000
0.265326 0.113725 0.000000
0.525747 0.113385 0.000000
0.200000 -0.075000 0.000000
0.200000 -0.050000 0.000000
0.200000 -0.025000 0.000000
0.200000 0.000000 0.000000
0.453816 0.084358 0.000000
0.117761 0.075977 0.000000
0.371250 0.086873 0.000000
0.848759 0.071787 0.000000
0.406273 0.038174 0.000000
0.404202 0.137664 0.000000
0.649986 0.064247 0.000000
0.973175 0.083112 0.000000
0.490684 0.130588 0.000000
0.042794 0.208259 0.000000
0.864292 0.081538 0.000000
0.759414 0.058623 0.000000
0.063353 0.029105 0.000000
0.516250 0.046290 0.000000
0.700081 0.113900 0.000000
0.097502 0.162179 0.000000
0.781754 0.044555 0.000000
0.470194 0.133207 0.000000
0.944853 0.111370 0.000000
0.749033 0.081649 0.000000
0.225000 -0.075000 0.000000
0.225000 -0.050000 0.000000
0.225000 -0.025000 0.000000
0.225000 0.000000 0.000000
0.348728 0.093012 0.000000
0.906024 0.056577 0.000000
0.639681 0.101270 0.000000
0.217909 0.087733 0.000000
0.127160 0.145203 0.000000
0.067155 0.271497 0.000000
0.537845 0.093573 0.000000
0.967642 0.104143 0.000000
0.687598 0.096382 0.000000
0.171558 0.148878 0.000000
0.745968 0.109292 0.000000
0.018925 0.273586 0.000000
0.393930 0.025263 0.000000
0.487106 0.074129 0.000000
0.090374 0.126606 0.000000
0.363946 0.132272 0.000000
0.580917 0.051906 0.000000
0.068562 0.064182 0.000000
0.329915 0.124055 0.000000
0.378524 0.057527 0.000000
0.250000 -0.075000 0.000000
0.250000 -0.050000 0.000000
0.250000 -0.025000 0.000000
0.250000 0.000000 0.000000
0.802972 0.066091 0.000000
0.466921 0.114517 0.000000
0.381339 0.131839 0.000000
0.403867 0.100345 0.000000
0.333941 0.051593 0.000000
0.487381 0.106850 0.000000
0.235630 0.124291 0.000000
0.312038 0.088727 0.000000
0.306677 0.116071 0.000000
0.614395 0.100359 0.000000
0.313820 0.132017 0.000000
0.028334 0.243466 0.000000
0.119369 0.126539 0.000000
0.607982 0.025598 0.000000
0.454132 0.064260 0.000000
0.389583 0.078427 0.000000
0.428868 0.099227 0.000000
0.826609 0.055720 0.000000
0.057145 0.106447 0.000000
0.641784 0.078369 0.000000
0.275000 -0.075000 0.000000
0.275000 -0.050000 0.000000
0.275000 -0.025000 0.000000
0.275000 0.000000 0.000000
0.300000 -0.075000 0.000000
0.300000 -0.050000 0.000000
0.300000 -0.025000 0.000000
0.300000 0.000000 0.000000
0.325000 -0.075000 0.000000
0.325000 -0.050000 0.000000
0.325000 -0.025000 0.000000
0.325000 0.000000 0.000000
0.350000 -0.075000 0.000000
0.350000 -0.050000 0.000000
0.350000 -0.025000 0.000000
0.350000 0.000000 0.000000
0.375000 -0.075000 0.000000
0.375000 -0.050000 0.000000
0.375000 -0.025000 0.000000
0.375000 0.000000 0.000000
0.400000 -0.075000 0.000000
0.400000 -0.050000 0.000000
0.400000 -0.025000 0.000000
0.400000 0.000000 0.000000
0.425000 -0.075000 0.000000
0.425000 -0.050000 0.000000
0.425000 -0.025000 0.000000
0.425000 0.000000 0.000000
0.450000 -0.075000 0.000000
0.450000 -0.050000 0.000000
0.450000 -0.025000 0.000000
0.450000 0.000000 0.000000
0.475000 -0.075000 0.000000
0.475000 -0.050000 0.000000
0.475000 -0.025000 0.000000
0.475000 0.000000 0.000000
0.500000 -0.075000 0.000000
0.500000 -0.050000 0.000000
0.500000 -0.025000 0.000000
0.500000 0.000000 0.000000
0.525000 -0.075000 0.000000
0.525000 -0.050000 0.000000
0.525000 -0.025000 0.000000
0.525000 0.000000 0.000000
0.550000 -0.075000 0.000000
0.550000 -0.050000 0.000000
0.550000 -0.025000 0.000000
0.550000 0.000000 0.000000
0.575000 -0.075000 0.000000
0.575000 -0.050000 0.000000
0.575000 -0.025000 0.000000
0.575000 0.000000 0.000000
0.600000 -0.075000 0.000000
0.600000 -0.050000 0.000000
0.600000 -0.025000 0.000000
0.600000 0.000000 0.000000
0.625000 -0.075000 0.000000
0.625000 -0.050000 0.000000
0.625000 -0.025000 0.000000
0.625000 0.000000 0.000000
0.650000 -0.075000 0.000000
0.650000 -0.050000 0.000000
0.650000 -0.025000 0.000000
0.650000 0.000000 0.000000
0.675000 -0.075000 0.000000
0.675000 -0.050000 0.000000
0.675000 -0.025000 0.000000
0.675000 0.000000 0.000000
0.700000 -0.075000 0.000000
0.700000 -0.050000 0.000000
0.700000 -0.025000 0.000000
0.700000 0.000000 0.000000
0.725000 -0.075000 0.000000
0.725000 -0.050000 0.000000
0.725000 -0.025000 0.000000
0.725000 0.000000 0.000000
0.750000 -0.075000 0.000000
0.750000 -0.050000 0.000000
0.750000 -0.025000 0.000000
0.750000 0.000000 0.000000
0.775000 -0.075000 0.000000
0.775000 -0.050000 0.000000
0.775000 -0.025000 0.000000
0.775000 0.000000 0.000000
0.800000 -0.075000 0.000000
0.800000 -0.050000 0.000000
0.800000 -0.025000 0.000000
0.800000 0.000000 0.000000
0.825000 -0.075000 0.000000
0.825000 -0.050000 0.000000
0.825000 -0.025000 0.000000
0.825000 0.000000 0.000000
0.850000 -0.075000 0.000000
0.850000 -0.050000 0.000000
0.850000 -0.025000 0.000000
0.850000 0.000000 0.000000
0.875000 -0.075000 0.000000
0.875000 -0.050000 0.000000
0.875000 -0.025000 0.000000
0.875000 0.000000 0.000000
0.900000 -0.075000 0.000000
0.900000 -0.050000 0.000000
0.900000 -0.025000 0.000000
0.900000 0.000000 0.000000
0.925000 -0.075000 0.000000
0.925000 -0.050000 0.000000
0.925000 -0.025000 0.000000
0.925000 0.000000 0.000000
0.950000 -0.075000 0.000000
0.950000 -0.050000 0.000000
0.950000 -0.025000 0.000000
0.950000 0.000000 0.000000
0.975000 -0.075000 0.000000
0.975000 -0.050000 0.000000
0.975000 -0.025000 0.000000
0.975000 0.000000 0.000000
1.000000 -0.075000 0.000000
1.000000 -0.050000 0.000000
1.000000 -0.025000 0.000000
1.000000 0.000000 0.000000
1.025000 -0.075000 0.000000
1.025000 -0.050000 0.000000
1.025000 -0.025000 0.000000
1.025000 0.000000 0.000000
1.025000 0.025000 0.000000
1.025000 0.050000 0.000000
1.025000 0.075000 0.000000
1.025000 0.100000 0.000000
1.025000 0.125000 0.000000
1.025000 0.150000 0.000000
1.025000 0.175000 0.000000
1.025000 0.200000 0.000000
1.025000 0.225000 0.000000
1.025000 0.250000 0.000000
1.025000 0.275000 0.000000
1.025000 0.300000 0.000000
1.025000 0.325000 0.000000
1.025000 0.350000 0.000000
1.025000 0.375000 0.000000
1.025000 0.400000 0.000000
1.025000 0.425000 0.000000
1.025000 0.450000 0.000000
1.025000 0.475000 0.000000
1.025000 0.500000 0.000000
1.025000 0.525000 0.000000
1.025000 0.550000 0.000000
1.025000 0.575000 0.000000
1.025000 0.600000 0.000000
1.050000 -0.075000 0.000000
1.050000 -0.050000 0.000000
1.050000 -0.025000 0.000000
1.050000 0.000000 0.000000
1.050000 0.025000 0.000000
1.050000 0.050000 0.000000
1.050000 0.075000 0.000000
1.050000 0.100000 0.000000
1.050000 0.125000 0.000000
1.050000 0.150000 0.000000
1.050000 0.175000 0.000000
1.050000 0.200000 0.000000
1.050000 0.225000 0.000000
1.050000 0.250000 0.000000
1.050000 0.275000 0.000000
1.050000 0.300000 0.000000
1.050000 0.325000 0.000000
1.050000 0.350000 0.000000
1.050000 0.375000 0.000000
1.050000 0.400000 0.000000
1.050000 0.425000 0.000000
1.050000 0.450000 0.000000
1.050000 0.475000 0.000000
1.050000 0.500000 0.000000
1.050000 0.525000 0.000000
1.050000 0.550000 0.000000
1.050000 0.575000 0.000000
1.050000 0.600000 0.000000
1.075000 -0.075000 0.000000
1.075000 -0.050000 0.000000
1.075000 -0.025000 0.000000
1.075000 0.000000 0.000000
1.075000 0.025000 0.000000
1.075000 0.050000 0.000000
1.075000 0.075000 0.000000
1.075000 0.100000 0.000000
1.075000 0.125000 0.000000
1.075000 0.150000 0.000000
1.075000 0.175000 0.000000
1.075000 0.200000 0.000000
1.075000 0.225000 0.000000
1.075000 0.250000 0.000000
1.075000 0.275000 0.000000
1.075000 0.300000 0.000000
1.075000 0.325000 0.000000
1.075000 0.350000 0.000000
1.075000 0.375000 0.000000
1.075000 0.400000 0.000000
1.075000 0.425000 0.000000
1.075000 0.450000 0.000000
1.075000 0.475000 0.000000
1.075000 0.500000 0.000000
1.075000 0.525000 0.000000
1.075000 0.550000 0.000000
1.075000 0.575000 0.000000
1.075000 0.600000 0.000000
1.100000 -0.075000 0.000000
1.100000 -0.050000 0.000000
1.100000 -0.025000 0.000000
1.100000 0.000000 0.000000
1.100000 0.025000 0.000000
1.100000 0.050000 0.000000
1.100000 0.075000 0.000000
1.100000 0.100000 0.000000
1.100000 0.125000 0.000000
1.100000 0.150000 0.000000
1.100000 0.175000 0.000000
1.100000 0.200000 0.000000
1.100000 0.225000 0.000000
1.100000 0.250000 0.000000
1.100000 0.275000 0.000000
1.100000 0.300000 0.000000
1.100000 0.325000 0.000000
1.100000 0.350000 0.000000
1.100000 0.375000 0.000000
1.100000 0.400000 0.000000
1.100000 0.425000 0.000000
1.100000 0.450000 0.000000
1.100000 0.475000 0.000000
1.100000 0.500000 0.000000
1.100000 0.525000 0.000000
1.100000 0.550000 0.000000
1.100000 0.575000 0.000000
1.100000 0.600000 0.000000
</DataArray>
</Points>
<PointData>
<DataArray NumberOfComponents='1' type='Int32' Name='ParticleType' format='ascii'>
3
3
3
3
3
3
3
3
3
3
3
3
3
3
3
3
3
3
3
3
3
3
3
3
3
3
2
2
3
3
3
3
3
3
3
3
3
3
3
3
3
3
3
3
3
3
3
3
3
3
3
3
3
3
2
2
3
3
2
2
2
2
2
2
2
2
2
2
2
2
2
2
2
2
2
2
2
2
2
2
2
2
2
2
3
3
2
2
2
2
2
2
2
2
2
2
2
2
2
2
2
2
2
2
2
2
2
2
2
2
2
2
3
3
2
2
0
0
0
0
0
0
0
0
0
0
0
0
0
0
0
0
0
0
0
0
3
3
2
2
0
0
0
0
0
0
0
0
0
0
0
0
0
0
0
0
0
0
0
0
3
3
2
2
0
0
0
0
0
0
0
0
0
0
0
0
0
0
0
0
0
0
0
0
3
3
2
2
0
0
0
0
0
0
0
0
0
0
0
0
0
0
0
0
0
0
0
0
3
3
2
2
0
0
0
0
0
0
0
0
0
0
0
0
0
0
0
0
0
0
0
0
3
3
2
2
0
0
0
0
0
0
0
0
0
0
0
0
0
0
0
0
0
0
0
0
3
3
2
2
0
0
0
0
0
0
0
0
0
0
0
0
0
0
0
0
0
0
0
0
3
3
2
2
0
0
0
0
0
0
0
0
0
0
0
0
0
0
0
0
0
0
0
0
3
3
2
2
0
0
0
0
0
0
0
0
0
0
0
0
0
0
0
0
0
0
0
0
3
3
2
2
0
0
0
0
0
0
0
0
0
0
0
0
0
0
0
0
0
0
0
0
3
3
2
2
3
3
2
2
3
3
2
2
3
3
2
2
3
3
2
2
3
3
2
2
3
3
2
2
3
3
2
2
3
3
2
2
3
3
2
2
3
3
2
2
3
3
2
2
3
3
2
2
3
3
2
2
3
3
2
2
3
3
2
2
3
3
2
2
3
3
2
2
3
3
2
2
3
3
2
2
3
3
2
2
3
3
2
2
3
3
2
2
3
3
2
2
3
3
2
2
3
3
2
2
3
3
2
2
3
3
2
2
3
3
2
2
3
3
2
2
3
3
2
2
2
2
2
2
2
2
2
2
2
2
2
2
2
2
2
2
2
2
2
2
2
2
2
2
3
3
2
2
2
2
2
2
2
2
2
2
2
2
2
2
2
2
2
2
2
2
2
2
2
2
2
2
3
3
3
3
3
3
3
3
3
3
3
3
3
3
3
3
3
3
3
3
3
3
3
3
3
3
2
2
3
3
3
3
3
3
3
3
3
3
3
3
3
3
3
3
3
3
3
3
3
3
3
3
3
3
2
2
</DataArray>
<DataArray NumberOfComponents='1' type='Float32' Name='Velocity' format='ascii'>
0.000000
0.000000
0.000000
0.000000
0.000000
0.000000
0.000000
0.000000
0.000000
0.000000
0.000000
0.000000
0.000000
0.000000
0.000000
0.000000
0.000000
0.000000
0.000000
0.000000
0.000000
0.000000
0.000000
0.000000
0.000000
0.000000
0.000000
0.000000
0.000000
0.000000
0.000000
0.000000
0.000000
0.000000
0.000000
0.000000
0.000000
0.000000
0.000000
0.000000
0.000000
0.000000
0.000000
0.000000
0.000000
0.000000
0.000000
0.000000
0.000000
0.000000
0.000000
0.000000
0.000000
0.000000
0.000000
0.000000
0.000000
0.000000
0.000000
0.000000
0.000000
0.000000
0.000000
0.000000
0.000000
0.000000
0.000000
0.000000
0.000000
0.000000
0.000000
0.000000
0.000000
0.000000
0.000000
0.000000
0.000000
0.000000
0.000000
0.000000
0.000000
0.000000
0.000000
0.000000
0.000000
0.000000
0.000000
0.000000
0.000000
0.000000
0.000000
0.000000
0.000000
0.000000
0.000000
0.000000
0.000000
0.000000
0.000000
0.000000
0.000000
0.000000
0.000000
0.000000
0.000000
0.000000
0.000000
0.000000
0.000000
0.000000
0.000000
0.000000
0.000000
0.000000
0.000000
0.000000
0.508378
0.493949
0.436199
0.412348
0.370476
0.593299
0.655755
0.315544
0.167008
0.629125
0.216511
0.772121
0.110136
0.214783
0.404391
0.169393
0.567978
0.285018
0.646599
0.699461
0.000000
0.000000
0.000000
0.000000
1.449063
1.718384
1.541955
0.180842
0.106693
0.509073
0.299835
0.354410
1.348802
0.568605
0.828678
0.534927
0.920452
1.001413
0.251658
0.339988
0.439503
0.629465
1.232344
0.278562
0.000000
0.000000
0.000000
0.000000
0.646850
0.300990
0.315519
0.250985
1.049294
0.234698
0.378180
0.556521
0.918536
0.594143
0.449955
1.152565
0.727226
0.525682
0.854464
0.418451
0.805553
0.200526
0.361857
0.375071
0.000000
0.000000
0.000000
0.000000
0.344427
0.825068
0.618626
0.236567
0.385059
0.303901
0.560730
0.432785
0.577452
0.306759
0.626457
1.099572
0.745897
0.477253
1.198226
0.402079
0.613917
0.646883
0.549951
0.413345
0.000000
0.000000
0.000000
0.000000
0.105932
0.925761
0.254952
0.129225
0.973753
0.548740
0.939473
1.303029
0.414069
0.311990
0.307128
0.550373
0.379344
0.580068
0.608273
1.044464
1.100306
0.249680
0.685676
0.054304
0.000000
0.000000
0.000000
0.000000
0.879459
0.168309
0.210774
0.661017
0.466515
0.448399
0.445286
0.863010
0.340780
1.550796
0.334800
0.277666
0.237595
0.237636
0.217140
0.735999
0.404904
0.656675
0.408995
0.819434
0.000000
0.000000
0.000000
0.000000
0.675343
0.651843
0.395779
0.707002
0.312460
0.932753
0.451934
0.346972
0.604719
0.297386
0.740838
0.521273
1.177876
0.310181
0.172112
0.329998
0.283872
0.455428
0.854921
1.012624
0.000000
0.000000
0.000000
0.000000
0.992412
0.381067
0.528656
0.737600
0.254274
1.342757
0.368920
0.083054
0.770770
0.948118
0.409743
0.555446
0.070571
0.431730
0.776962
0.798674
0.552894
0.919058
0.370666
0.160352
0.000000
0.000000
0.000000
0.000000
0.794617
0.438895
0.411172
0.417012
1.305997
0.526786
0.929172
0.451665
0.577902
1.431185
0.516213
1.787149
0.563457
0.764181
0.585897
1.308822
0.699409
0.395701
0.891762
0.756632
0.000000
0.000000
0.000000
0.000000
0.582869
0.902706
0.969857
0.443227
0.441751
1.119057
0.946488
0.772491
0.673911
0.975421
0.642809
1.146963
0.197948
0.507858
0.687200
0.850588
0.417782
0.431232
0.165993
0.795694
0.000000
0.000000
0.000000
0.000000
0.000000
0.000000
0.000000
0.000000
0.000000
0.000000
0.000000
0.000000
0.000000
0.000000
0.000000
0.000000
0.000000
0.000000
0.000000
0.000000
0.000000
0.000000
0.000000
0.000000
0.000000
0.000000
0.000000
0.000000
0.000000
0.000000
0.000000
0.000000
0.000000
0.000000
0.000000
0.000000
0.000000
0.000000
0.000000
0.000000
0.000000
0.000000
0.000000
0.000000
0.000000
0.000000
0.000000
0.000000
0.000000
0.000000
0.000000
0.000000
0.000000
0.000000
0.000000
0.000000
0.000000
0.000000
0.000000
0.000000
0.000000
0.000000
0.000000
0.000000
0.000000
0.000000
0.000000
0.000000
0.000000
0.000000
0.000000
0.000000
0.000000
0.000000
0.000000
0.000000
0.000000
0.000000
0.000000
0.000000
0.000000
0.000000
0.000000
0.000000
0.000000
0.000000
0.000000
0.000000
0.000000
0.000000
0.000000
0.000000
0.000000
0.000000
0.000000
0.000000
0.000000
0.000000
0.000000
0.000000
0.000000
0.000000
0.000000
0.000000
0.000000
0.000000
0.000000
0.000000
0.000000
0.000000
0.000000
0.000000
0.000000
0.000000
0.000000
0.000000
0.000000
0.000000
0.000000
0.000000
0.000000
0.000000
0.000000
0.000000
0.000000
0.000000
0.000000
0.000000
0.000000
0.000000
0.000000
0.000000
0.000000
0.000000
0.000000
0.000000
0.000000
0.000000
0.000000
0.000000
0.000000
0.000000
0.000000
0.000000
0.000000
0.000000
0.000000
0.000000
0.000000
0.000000
0.000000
0.000000
0.000000
0.000000
0.000000
0.000000
0.000000
0.000000
0.000000
0.000000
0.000000
0.000000
0.000000
0.000000
0.000000
0.000000
0.000000
0.000000
0.000000
0.000000
0.000000
0.000000
0.000000
0.000000
0.000000
0.000000
0.000000
0.000000
0.000000
0.000000
0.000000
0.000000
0.000000
0.000000
0.000000
0.000000
0.000000
0.000000
0.000000
0.000000
0.000000
0.000000
0.000000
0.000000
0.000000
0.000000
0.000000
0.000000
0.000000
0.000000
0.000000
0.000000
0.000000
0.000000
0.000000
0.000000
0.000000
0.000000
0.000000
0.000000
0.000000
0.000000
0.000000
0.000000
0.000000
0.000000
0.000000
0.000000
0.000000
0.000000
0.000000
0.000000
0.000000
0.000000
0.000000
0.000000
0.000000
0.000000
0.000000
0.000000
0.000000
0.000000
</DataArray>
<DataArray NumberOfComponents='1' type='Float32' Name='pressure' format='ascii'>
0.000000
0.000000
0.000000
0.000000
0.000000
0.000000
0.000000
0.000000
0.000000
0.000000
0.000000
0.000000
0.000000
0.000000
0.000000
0.000000
0.000000
0.000000
0.000000
0.000000
0.000000
0.000000
0.000000
0.000000
0.000000
0.000000
0.000000
0.000000
0.000000
0.000000
0.000000
0.000000
0.000000
0.000000
0.000000
0.000000
0.000000
0.000000
0.000000
0.000000
0.000000
0.000000
0.000000
0.000000
0.000000
0.000000
0.000000
0.000000
0.000000
0.000000
0.000000
0.000000
0.000000
0.000000
0.000000
0.000000
0.000000
0.000000
1317.563965
1466.605347
2583.123291
970.135132
1369.669800
1663.100952
434.970001
3759.785400
4066.787598
76.285309
0.000000
260.637268
2338.824463
0.000000
0.000000
0.000000
0.000000
0.000000
0.000000
0.000000
0.000000
0.000000
0.000000
0.000000
0.000000
0.000000
0.000000
0.000000
1117.119751
1429.303101
2023.009155
0.000000
727.402771
89.667938
0.000000
1112.406982
510.523987
0.000000
0.000000
0.000000
0.000000
0.000000
0.000000
0.000000
0.000000
0.000000
0.000000
0.000000
0.000000
0.000000
0.000000
0.000000
0.000000
0.000000
0.000000
0.000000
244.414932
510.987244
515.715088
180.043671
559.716614
112.145599
0.000000
304.072449
0.000000
0.000000
700.769531
2399.490479
1562.427612
0.000000
488.966949
408.170502
0.000000
2250.927002
0.000000
1342.557129
0.000000
1385.619141
0.000000
0.000000
1098.790527
1207.170776
0.000000
0.000000
0.000000
482.885620
0.000000
0.000000
0.000000
0.000000
0.000000
0.000000
0.000000
0.000000
0.000000
0.000000
793.732178
0.000000
0.000000
0.000000
0.000000
212.397888
0.000000
0.000000
1513.550415
1056.156860
271.513367
0.000000
103.206139
124.350609
41.938114
908.542236
1134.875488
0.000000
0.000000
580.373718
0.000000
1856.455444
0.000000
934.109009
0.000000
372.331848
0.000000
1617.572876
988.477356
495.782776
0.000000
0.000000
2315.122803
965.264709
0.000000
424.798950
1054.243774
522.769592
81.488243
2133.839600
427.504974
759.508484
241.431747
914.495361
948.072815
0.000000
386.676239
826.621887
0.000000
854.116333
0.000000
0.000000
252.856247
0.000000
0.000000
0.000000
3775.958984
3775.360840
1213.988892
0.000000
0.000000
0.000000
0.000000
925.820068
0.000000
0.000000
0.000000
2.862718
0.000000
2153.305908
0.000000
294.240173
399.688538
0.000000
0.000000
0.000000
0.000000
0.000000
0.000000
0.000000
1973.130737
0.000000
0.000000
0.000000
0.000000
80.764534
0.000000
6.876145
0.000000
0.000000
518.612854
0.000000
0.000000
1395.972656
0.000000
0.000000
66.519623
0.000000
35.935715
540.463867
62.281933
1501.638306
0.000000
0.000000
1201.895142
570.065430
0.000000
0.000000
0.000000
0.000000
0.000000
0.000000
124.596306
1294.771973
0.000000
1866.461914
0.000000
0.000000
0.000000
0.000000
0.000000
160.184708
552.205444
0.000000
0.000000
0.000000
0.000000
0.000000
0.000000
0.000000
0.000000
0.000000
0.000000
0.000000
1174.439087
0.000000
166.876831
0.000000
0.000000
1459.100586
0.000000
1276.623413
1768.913940
0.000000
0.000000
3860.626465
1068.446533
0.000000
0.000000
0.000000
0.000000
0.000000
370.686523
434.565399
0.000000
0.000000
0.000000
0.000000
2248.101318
0.000000
0.000000
0.000000
0.000000
0.000000
0.000000
0.000000
971.206543
0.000000
0.000000
0.000000
142.067581
0.000000
0.000000
622.883728
0.000000
0.000000
1359.094238
2122.402344
548.082336
433.163147
0.000000
0.000000
1917.828369
0.000000
0.000000
0.000000
0.000000
0.000000
0.000000
0.000000
2472.699707
486.407837
621.164001
963.648438
0.000000
2742.281250
0.000000
0.000000
0.000000
0.000000
431.187134
0.000000
0.000000
0.000000
2423.922119
2670.885254
0.000000
0.000000
1457.156738
0.000000
0.000000
0.000000
3026.461426
293.475189
0.000000
0.000000
2073.368896
787.401672
0.000000
0.000000
434.092896
0.000000
0.000000
0.000000
162.595123
0.000000
0.000000
0.000000
1454.121338
2545.006348
0.000000
0.000000
526.715149
913.267944
0.000000
0.000000
0.000000
0.000000
0.000000
0.000000
651.493530
141.382416
0.000000
0.000000
514.566589
540.857117
0.000000
0.000000
829.121765
913.231079
0.000000
0.000000
92.374748
21.078680
0.000000
0.000000
751.885620
1623.270142
0.000000
0.000000
261.457031
0.000000
0.000000
0.000000
877.828735
352.833405
0.000000
0.000000
2876.633057
2034.577148
0.000000
0.000000
2886.973389
266.982025
0.000000
0.000000
3313.742676
2735.453125
0.000000
0.000000
2015.968750
2317.805664
0.000000
0.000000
1186.493286
1470.730103
0.000000
0.000000
1362.883179
2307.569336
0.000000
0.000000
544.931152
1400.486572
0.000000
0.000000
735.428711
147.031265
0.000000
0.000000
0.000000
0.000000
0.000000
0.000000
520.831970
0.000000
0.000000
0.000000
2401.565186
1207.691650
0.000000
0.000000
2265.474365
1277.611084
0.000000
0.000000
824.206848
456.605072
0.000000
0.000000
248.323639
0.000000
0.000000
0.000000
0.000000
0.000000
0.000000
0.000000
0.000000
0.000000
0.000000
0.000000
0.000000
0.000000
0.000000
0.000000
0.000000
0.000000
0.000000
0.000000
0.000000
0.000000
0.000000
0.000000
0.000000
0.000000
0.000000
0.000000
0.000000
0.000000
0.000000
0.000000
232.381622
811.621460
0.000000
0.000000
0.000000
0.000000
0.000000
0.000000
0.000000
0.000000
0.000000
0.000000
0.000000
0.000000
0.000000
0.000000
0.000000
0.000000
0.000000
0.000000
0.000000
0.000000
0.000000
0.000000
0.000000
0.000000
0.000000
0.000000
0.000000
0.000000
0.000000
0.000000
0.000000
0.000000
0.000000
0.000000
0.000000
0.000000
0.000000
0.000000
0.000000
0.000000
0.000000
0.000000
0.000000
0.000000
0.000000
0.000000
0.000000
0.000000
0.000000
0.000000
0.000000
0.000000
0.000000
0.000000
0.000000
0.000000
0.000000
0.000000
0.000000
0.000000
0.000000
0.000000
0.000000
0.000000
0.000000
0.000000
0.000000
0.000000
0.000000
0.000000
0.000000
0.000000
0.000000
0.000000
0.000000
0.000000
</DataArray>
</PointData>
<Cells>
<DataArray type='Int32' Name='connectivity' format='ascii'>
0
1
2
3
4
5
6
7
8
9
10
11
12
13
14
15
16
17
18
19
20
21
22
23
24
25
26
27
28
29
30
31
32
33
34
35
36
37
38
39
40
41
42
43
44
45
46
47
48
49
50
51
52
53
54
55
56
57
58
59
60
61
62
63
64
65
66
67
68
69
70
71
72
73
74
75
76
77
78
79
80
81
82
83
84
85
86
87
88
89
90
91
92
93
94
95
96
97
98
99
100
101
102
103
104
105
106
107
108
109
110
111
112
113
114
115
116
117
118
119
120
121
122
123
124
125
126
127
128
129
130
131
132
133
134
135
136
137
138
139
140
141
142
143
144
145
146
147
148
149
150
151
152
153
154
155
156
157
158
159
160
161
162
163
164
165
166
167
168
169
170
171
172
173
174
175
176
177
178
179
180
181
182
183
184
185
186
187
188
189
190
191
192
193
194
195
196
197
198
199
200
201
202
203
204
205
206
207
208
209
210
211
212
213
214
215
216
217
218
219
220
221
222
223
224
225
226
227
228
229
230
231
232
233
234
235
236
237
238
239
240
241
242
243
244
245
246
247
248
249
250
251
252
253
254
255
256
257
258
259
260
261
262
263
264
265
266
267
268
269
270
271
272
273
274
275
276
277
278
279
280
281
282
283
284
285
286
287
288
289
290
291
292
293
294
295
296
297
298
299
300
301
302
303
304
305
306
307
308
309
310
311
312
313
314
315
316
317
318
319
320
321
322
323
324
325
326
327
328
329
330
331
332
333
334
335
336