<?xml version='1.0' encoding='UTF-8'?>
<VTKFile xmlns='VTK' byte_order='LittleEndian' version='0.1' type='UnstructuredGrid'>
<UnstructuredGrid>
<Piece NumberOfCells='584' NumberOfPoints='584'>
<Points>
<DataArray NumberOfComponents='3' type='Float32' Name='Position' format='ascii'>
-0.075000 -0.075000 0.000000
-0.075000 -0.050000 0.000000
-0.075000 -0.025000 0.000000
-0.075000 0.000000 0.000000
-0.075000 0.025000 0.000000
-0.075000 0.050000 0.000000
-0.075000 0.075000 0.000000
-0.075000 0.100000 0.000000
-0.075000 0.125000 0.000000
-0.075000 0.150000 0.000000
-0.075000 0.175000 0.000000
-0.075000 0.200000 0.000000
-0.075000 0.225000 0.000000
-0.075000 0.250000 0.000000
-0.075000 0.275000 0.000000
-0.075000 0.300000 0.000000
-0.075000 0.325000 0.000000
-0.075000 0.350000 0.000000
-0.075000 0.375000 0.000000
-0.075000 0.400000 0.000000
-0.075000 0.425000 0.000000
-0.075000 0.450000 0.000000
-0.075000 0.475000 0.000000
-0.075000 0.500000 0.000000
-0.075000 0.525000 0.000000
-0.075000 0.550000 0.000000
-0.075000 0.575000 0.000000
-0.075000 0.600000 0.000000
-0.050000 -0.075000 0.000000
-0.050000 -0.050000 0.000000
-0.050000 -0.025000 0.000000
-0.050000 0.000000 0.000000
-0.050000 0.025000 0.000000
-0.050000 0.050000 0.000000
-0.050000 0.075000 0.000000
-0.050000 0.100000 0.000000
-0.050000 0.125000 0.000000
-0.050000 0.150000 0.000000
-0.050000 0.175000 0.000000
-0.050000 0.200000 0.000000
-0.050000 0.225000 0.000000
-0.050000 0.250000 0.000000
-0.050000 0.275000 0.000000
-0.050000 0.300000 0.000000
-0.050000 0.325000 0.000000
-0.050000 0.350000 0.000000
-0.050000 0.375000 0.000000
-0.050000 0.400000 0.000000
-0.050000 0.425000 0.000000
-0.050000 0.450000 0.000000
-0.050000 0.475000 0.000000
-0.050000 0.500000 0.000000
-0.050000 0.525000 0.000000
-0.050000 0.550000 0.000000
-0.050000 0.575000 0.000000
-0.050000 0.600000 0.000000
-0.025000 -0.075000 0.000000
-0.025000 -0.050000 0.000000
-0.025000 -0.025000 0.000000
-0.025000 0.000000 0.000000
-0.025000 0.025000 0.000000
-0.025000 0.050000 0.000000
-0.025000 0.075000 0.000000
-0.025000 0.100000 0.000000
-0.025000 0.125000 0.000000
-0.025000 0.150000 0.000000
-0.025000 0.175000 0.000000
-0.025000 0.200000 0.000000
-0.025000 0.225000 0.000000
-0.025000 0.250000 0.000000
-0.025000 0.275000 0.000000
-0.025000 0.300000 0.000000
-0.025000 0.325000 0.000000
-0.025000 0.350000 0.000000
-0.025000 0.375000 0.000000
-0.025000 0.400000 0.000000
-0.025000 0.425000 0.000000
-0.025000 0.450000 0.000000
-0.025000 0.475000 0.000000
-0.025000 0.500000 0.000000
-0.025000 0.525000 0.000000
-0.025000 0.550000 0.000000
-0.025000 0.575000 0.000000
-0.025000 0.600000 0.000000
0.000000 -0.075000 0.000000
0.000000 -0.050000 0.000000
0.000000 -0.025000 0.000000
0.000000 0.000000 0.000000
0.000000 0.025000 0.000000
0.000000 0.050000 0.000000
0.000000 0.075000 0.000000
0.000000 0.100000 0.000000
0.000000 0.125000 0.000000
0.000000 0.150000 0.000000
0.000000 0.175000 0.000000
0.000000 0.200000 0.000000
0.000000 0.225000 0.000000
0.000000 0.250000 0.000000
0.000000 0.275000 0.000000
0.000000 0.300000 0.000000
0.000000 0.325000 0.000000
0.000000 0.350000 0.000000
0.000000 0.375000 0.000000
0.000000 0.400000 0.000000
0.000000 0.425000 0.000000
0.000000 0.450000 0.000000
0.000000 0.475000 0.000000
0.000000 0.500000 0.000000
0.000000 0.525000 0.000000
0.000000 0.550000 0.000000
0.000000 0.575000 0.000000
0.000000 0.600000 0.000000
0.025000 -0.075000 0.000000
0.025000 -0.050000 0.000000
0.025000 -0.025000 0.000000
0.025000 0.000000 0.000000
0.045004 0.022842 0.000000
0.024369 0.028869 0.000000
0.060060 0.041067 0.000000
0.027181 0.052660 0.000000
0.067505 0.065118 0.000000
0.027640 0.070731 0.000000
0.065040 0.084024 0.000000
0.028761 0.092631 0.000000
0.053980 0.104345 0.000000
0.023680 0.112253 0.000000
0.043222 0.131762 0.000000
0.021673 0.144941 0.000000
0.030905 0.168002 0.000000
0.024768 0.192112 0.000000
0.026549 0.213389 0.000000
0.024805 0.235799 0.000000
0.029518 0.258408 0.000000
0.024314 0.278255 0.000000
0.029492 0.303537 0.000000
0.025683 0.320722 0.000000
0.050000 -0.075000 0.000000
0.050000 -0.050000 0.000000
0.050000 -0.025000 0.000000
0.050000 0.000000 0.000000
0.109135 0.031091 0.000000
0.081876 0.022838 0.000000
0.082149 0.043747 0.000000
0.138496 0.075326 0.000000
0.093629 0.071785 0.000000
0.105380 0.091430 0.000000
0.081977 0.103732 0.000000
0.109077 0.112636 0.000000
0.068604 0.123739 0.000000
0.086726 0.140963 0.000000
0.058211 0.148116 0.000000
0.078313 0.167946 0.000000
0.051110 0.174426 0.000000
0.070762 0.188575 0.000000
0.054567 0.205195 0.000000
0.063414 0.223053 0.000000
0.055295 0.244210 0.000000
0.060978 0.263688 0.000000
0.052861 0.286720 0.000000
0.058379 0.310016 0.000000
0.075000 -0.075000 0.000000
0.075000 -0.050000 0.000000
0.075000 -0.025000 0.000000
0.075000 0.000000 0.000000
0.126086 0.023831 0.000000
0.116152 0.062852 0.000000
0.162623 0.019289 0.000000
0.130583 0.049658 0.000000
0.160660 0.062274 0.000000
0.158855 0.091077 0.000000
0.180611 0.099190 0.000000
0.131686 0.100138 0.000000
0.149690 0.114088 0.000000
0.111886 0.134991 0.000000
0.131516 0.153570 0.000000
0.104441 0.158735 0.000000
0.106373 0.180097 0.000000
0.101122 0.199650 0.000000
0.091687 0.218766 0.000000
0.087594 0.238604 0.000000
0.095953 0.258047 0.000000
0.082817 0.276785 0.000000
0.089439 0.300658 0.000000
0.074207 0.308003 0.000000
0.100000 -0.075000 0.000000
0.100000 -0.050000 0.000000
0.100000 -0.025000 0.000000
0.100000 0.000000 0.000000
0.216497 0.022445 0.000000
0.192678 0.030671 0.000000
0.185402 0.049178 0.000000
0.209394 0.061631 0.000000
0.159955 0.041006 0.000000
0.239256 0.075507 0.000000
0.188248 0.077196 0.000000
0.203332 0.093504 0.000000
0.174324 0.126233 0.000000
0.195012 0.135559 0.000000
0.141548 0.136199 0.000000
0.172934 0.149565 0.000000
0.152717 0.164024 0.000000
0.146991 0.185112 0.000000
0.132041 0.199287 0.000000
0.124543 0.217963 0.000000
0.129836 0.237671 0.000000
0.119823 0.258407 0.000000
0.118704 0.281661 0.000000
0.114433 0.305076 0.000000
0.125000 -0.075000 0.000000
0.125000 -0.050000 0.000000
0.125000 -0.025000 0.000000
0.125000 0.000000 0.000000
0.263923 0.026143 0.000000
0.242426 0.025275 0.000000
0.298867 0.020024 0.000000
0.274718 0.045456 0.000000
0.297300 0.050055 0.000000
0.222865 0.047561 0.000000
0.248664 0.055138 0.000000
0.252157 0.088932 0.000000
0.227849 0.104216 0.000000
0.211038 0.116864 0.000000
0.232348 0.136863 0.000000
0.205436 0.157370 0.000000
0.185969 0.171758 0.000000
0.171401 0.187669 0.000000
0.177110 0.212383 0.000000
0.156395 0.220405 0.000000
0.168349 0.242603 0.000000
0.148918 0.253543 0.000000
0.153018 0.280792 0.000000
0.138101 0.287399 0.000000
0.150000 -0.075000 0.000000
0.150000 -0.050000 0.000000
0.150000 -0.025000 0.000000
0.150000 0.000000 0.000000
0.368520 0.022140 0.000000
0.332472 0.023576 0.000000
0.348629 0.038157 0.000000
0.314091 0.042664 0.000000
0.336499 0.059426 0.000000
0.369819 0.051756 0.000000
0.294977 0.078937 0.000000
0.329076 0.080221 0.000000
0.272180 0.069515 0.000000
0.292892 0.099462 0.000000
0.271106 0.107141 0.000000
0.249521 0.117883 0.000000
0.251403 0.144110 0.000000
0.229191 0.160151 0.000000
0.221234 0.180579 0.000000
0.214669 0.197513 0.000000
0.196647 0.209431 0.000000
0.197852 0.237013 0.000000
0.187930 0.257431 0.000000
0.171274 0.279067 0.000000
0.175000 -0.075000 0.000000
0.175000 -0.050000 0.000000
0.175000 -0.025000 0.000000
0.175000 0.000000 0.000000
0.453285 0.029857 0.000000
0.403754 0.023803 0.000000
0.441392 0.052990 0.000000
0.432242 0.023330 0.000000
0.420341 0.047937 0.000000
0.390386 0.039441 0.000000
0.400115 0.063489 0.000000
0.396545 0.082563 0.000000
0.358832 0.072979 0.000000
0.372439 0.089954 0.000000
0.317923 0.094119 0.000000
0.322338 0.121909 0.000000
0.286798 0.126060 0.000000
0.284790 0.143820 0.000000
0.270020 0.164249 0.000000
0.258518 0.182468 0.000000
0.248724 0.200908 0.000000
0.227423 0.222101 0.000000
0.222114 0.250864 0.000000
0.204798 0.266273 0.000000
0.200000 -0.075000 0.000000
0.200000 -0.050000 0.000000
0.200000 -0.025000 0.000000
0.200000 0.000000 0.000000
0.652144 0.037730 0.000000
0.518679 0.022749 0.000000
0.579248 0.020971 0.000000
0.479477 0.021924 0.000000
0.559226 0.027730 0.000000
0.542623 0.037540 0.000000
0.491021 0.039692 0.000000
0.467632 0.054129 0.000000
0.437944 0.080086 0.000000
0.417267 0.092533 0.000000
0.399693 0.109566 0.000000
0.352630 0.102468 0.000000
0.364454 0.120799 0.000000
0.342603 0.126259 0.000000
0.316077 0.140611 0.000000
0.317457 0.161941 0.000000
0.290585 0.170911 0.000000
0.280249 0.196472 0.000000
0.264137 0.219415 0.000000
0.237543 0.243048 0.000000
0.225000 -0.075000 0.000000
0.225000 -0.050000 0.000000
0.225000 -0.025000 0.000000
0.225000 0.000000 0.000000
0.673345 0.023382 0.000000
0.695481 0.053724 0.000000
0.633338 0.023742 0.000000
0.611320 0.059040 0.000000
0.614763 0.025244 0.000000
0.604278 0.074321 0.000000
0.597336 0.045781 0.000000
0.554308 0.055480 0.000000
0.512155 0.041381 0.000000
0.523623 0.067157 0.000000
0.490788 0.073163 0.000000
0.467971 0.074117 0.000000
0.450473 0.095556 0.000000
0.432792 0.118100 0.000000
0.396194 0.127561 0.000000
0.369918 0.145223 0.000000
0.349931 0.160358 0.000000
0.320143 0.185597 0.000000
0.298167 0.207542 0.000000
0.253505 0.230175 0.000000
0.250000 -0.075000 0.000000
0.250000 -0.050000 0.000000
0.250000 -0.025000 0.000000
0.250000 0.000000 0.000000
0.760210 0.032146 0.000000
0.745036 0.022576 0.000000
0.696552 0.022097 0.000000
0.728283 0.035780 0.000000
0.718312 0.045995 0.000000
0.674923 0.051592 0.000000
0.660784 0.072922 0.000000
0.649977 0.058953 0.000000
0.609745 0.097405 0.000000
0.585790 0.062793 0.000000
0.561202 0.086694 0.000000
0.546372 0.078101 0.000000
0.520484 0.086485 0.000000
0.495794 0.088665 0.000000
0.468669 0.113308 0.000000
0.446070 0.123243 0.000000
0.409582 0.145713 0.000000
0.385459 0.152421 0.000000
0.344396 0.172841 0.000000
0.314770 0.200321 0.000000
0.275000 -0.075000 0.000000
0.275000 -0.050000 0.000000
0.275000 -0.025000 0.000000
0.275000 0.000000 0.000000
0.300000 -0.075000 0.000000
0.300000 -0.050000 0.000000
0.300000 -0.025000 0.000000
0.300000 0.000000 0.000000
0.325000 -0.075000 0.000000
0.325000 -0.050000 0.000000
0.325000 -0.025000 0.000000
0.325000 0.000000 0.000000
0.350000 -0.075000 0.000000
0.350000 -0.050000 0.000000
0.350000 -0.025000 0.000000
0.350000 0.000000 0.000000
0.375000 -0.075000 0.000000
0.375000 -0.050000 0.000000
0.375000 -0.025000 0.000000
0.375000 0.000000 0.000000
0.400000 -0.075000 0.000000
0.400000 -0.050000 0.000000
0.400000 -0.025000 0.000000
0.400000 0.000000 0.000000
0.425000 -0.075000 0.000000
0.425000 -0.050000 0.000000
0.425000 -0.025000 0.000000
0.425000 0.000000 0.000000
0.450000 -0.075000 0.000000
0.450000 -0.050000 0.000000
0.450000 -0.025000 0.000000
0.450000 0.000000 0.000000
0.475000 -0.075000 0.000000
0.475000 -0.050000 0.000000
0.475000 -0.025000 0.000000
0.475000 0.000000 0.000000
0.500000 -0.075000 0.000000
0.500000 -0.050000 0.000000
0.500000 -0.025000 0.000000
0.500000 0.000000 0.000000
0.525000 -0.075000 0.000000
0.525000 -0.050000 0.000000
0.525000 -0.025000 0.000000
0.525000 0.000000 0.000000
0.550000 -0.075000 0.000000
0.550000 -0.050000 0.000000
0.550000 -0.025000 0.000000
0.550000 0.000000 0.000000
0.575000 -0.075000 0.000000
0.575000 -0.050000 0.000000
0.575000 -0.025000 0.000000
0.575000 0.000000 0.000000
0.600000 -0.075000 0.000000
0.600000 -0.050000 0.000000
0.600000 -0.025000 0.000000
0.600000 0.000000 0.000000
0.625000 -0.075000 0.000000
0.625000 -0.050000 0.000000
0.625000 -0.025000 0.000000
0.625000 0.000000 0.000000
0.650000 -0.075000 0.000000
0.650000 -0.050000 0.000000
0.650000 -0.025000 0.000000
0.650000 0.000000 0.000000
0.675000 -0.075000 0.000000
0.675000 -0.050000 0.000000
0.675000 -0.025000 0.000000
0.675000 0.000000 0.000000
0.700000 -0.075000 0.000000
0.700000 -0.050000 0.000000
0.700000 -0.025000 0.000000
0.700000 0.000000 0.000000
0.725000 -0.075000 0.000000
0.725000 -0.050000 0.000000
0.725000 -0.025000 0.000000
0.725000 0.000000 0.000000
0.750000 -0.075000 0.000000
0.750000 -0.050000 0.000000
0.750000 -0.025000 0.000000
0.750000 0.000000 0.000000
0.775000 -0.075000 0.000000
0.775000 -0.050000 0.000000
0.775000 -0.025000 0.000000
0.775000 0.000000 0.000000
0.800000 -0.075000 0.000000
0.800000 -0.050000 0.000000
0.800000 -0.025000 0.000000
0.800000 0.000000 0.000000
0.825000 -0.075000 0.000000
0.825000 -0.050000 0.000000
0.825000 -0.025000 0.000000
0.825000 0.000000 0.000000
0.850000 -0.075000 0.000000
0.850000 -0.050000 0.000000
0.850000 -0.025000 0.000000
0.850000 0.000000 0.000000
0.875000 -0.075000 0.000000
0.875000 -0.050000 0.000000
0.875000 -0.025000 0.000000
0.875000 0.000000 0.000000
0.900000 -0.075000 0.000000
0.900000 -0.050000 0.000000
0.900000 -0.025000 0.000000
0.900000 0.000000 0.000000
0.925000 -0.075000 0.000000
0.925000 -0.050000 0.000000
0.925000 -0.025000 0.000000
0.925000 0.000000 0.000000
0.950000 -0.075000 0.000000
0.950000 -0.050000 0.000000
0.950000 -0.025000 0.000000
0.950000 0.000000 0.000000
0.975000 -0.075000 0.000000
0.975000 -0.050000 0.000000
0.975000 -0.025000 0.000000
0.975000 0.000000 0.000000
1.000000 -0.075000 0.000000
1.000000 -0.050000 0.000000
1.000000 -0.025000 0.000000
1.000000 0.000000 0.000000
1.025000 -0.075000 0.000000
1.025000 -0.050000 0.000000
1.025000 -0.025000 0.000000
1.025000 0.000000 0.000000
1.025000 0.025000 0.000000
1.025000 0.050000 0.000000
1.025000 0.075000 0.000000
1.025000 0.100000 0.000000
1.025000 0.125000 0.000000
1.025000 0.150000 0.000000
1.025000 0.175000 0.000000
1.025000 0.200000 0.000000
1.025000 0.225000 0.000000
1.025000 0.250000 0.000000
1.025000 0.275000 0.000000
1.025000 0.300000 0.000000
1.025000 0.325000 0.000000
1.025000 0.350000 0.000000
1.025000 0.375000 0.000000
1.025000 0.400000 0.000000
1.025000 0.425000 0.000000
1.025000 0.450000 0.000000
1.025000 0.475000 0.000000
1.025000 0.500000 0.000000
1.025000 0.525000 0.000000
1.025000 0.550000 0.000000
1.025000 0.575000 0.000000
1.025000 0.600000 0.000000
1.050000 -0.075000 0.000000
1.050000 -0.050000 0.000000
1.050000 -0.025000 0.000000
1.050000 0.000000 0.000000
1.050000 0.025000 0.000000
1.050000 0.050000 0.000000
1.050000 0.075000 0.000000
1.050000 0.100000 0.000000
1.050000 0.125000 0.000000
1.050000 0.150000 0.000000
1.050000 0.175000 0.000000
1.050000 0.200000 0.000000
1.050000 0.225000 0.000000
1.050000 0.250000 0.000000
1.050000 0.275000 0.000000
1.050000 0.300000 0.000000
1.050000 0.325000 0.000000
1.050000 0.350000 0.000000
1.050000 0.375000 0.000000
1.050000 0.400000 0.000000
1.050000 0.425000 0.000000
1.050000 0.450000 0.000000
1.050000 0.475000 0.000000
1.050000 0.500000 0.000000
1.050000 0.525000 0.000000
1.050000 0.550000 0.000000
1.050000 0.575000 0.000000
1.050000 0.600000 0.000000
1.075000 -0.075000 0.000000
1.075000 -0.050000 0.000000
1.075000 -0.025000 0.000000
1.075000 0.000000 0.000000
1.075000 0.025000 0.000000
1.075000 0.050000 0.000000
1.075000 0.075000 0.000000
1.075000 0.100000 0.000000
1.075000 0.125000 0.000000
1.075000 0.150000 0.000000
1.075000 0.175000 0.000000
1.075000 0.200000 0.000000
1.075000 0.225000 0.000000
1.075000 0.250000 0.000000
1.075000 0.275000 0.000000
1.075000 0.300000 0.000000
1.075000 0.325000 0.000000
1.075000 0.350000 0.000000
1.075000 0.375000 0.000000
1.075000 0.400000 0.000000
1.075000 0.425000 0.000000
1.075000 0.450000 0.000000
1.075000 0.475000 0.000000
1.075000 0.500000 0.000000
1.075000 0.525000 0.000000
1.075000 0.550000 0.000000
1.075000 0.575000 0.000000
1.075000 0.600000 0.000000
1.100000 -0.075000 0.000000
1.100000 -0.050000 0.000000
1.100000 -0.025000 0.000000
1.100000 0.000000 0.000000
1.100000 0.025000 0.000000
1.100000 0.050000 0.000000
1.100000 0.075000 0.000000
1.100000 0.100000 0.000000
1.100000 0.125000 0.000000
1.100000 0.150000 0.000000
1.100000 0.175000 0.000000
1.100000 0.200000 0.000000
1.100000 0.225000 0.000000
1.100000 0.250000 0.000000
1.100000 0.275000 0.000000
1.100000 0.300000 0.000000
1.100000 0.325000 0.000000
1.100000 0.350000 0.000000
1.100000 0.375000 0.000000
1.100000 0.400000 0.000000
1.100000 0.425000 0.000000
1.100000 0.450000 0.000000
1.100000 0.475000 0.000000
1.100000 0.500000 0.000000
1.100000 0.525000 0.000000
1.100000 0.550000 0.000000
1.100000 0.575000 0.000000
1.100000 0.600000 0.000000
</DataArray>
</Points>
<PointData>
<DataArray NumberOfComponents='1' type='Int32' Name='ParticleType' format='ascii'>
3
3
3
3
3
3
3
3
3
3
3
3
3
3
3
3
3
3
3
3
3
3
3
3
3
3
2
2
3
3
3
3
3
3
3
3
3
3
3
3
3
3
3
3
3
3
3
3
3
3
3
3
3
3
2
2
3
3
2
2
2
2
2
2
2
2
2
2
2
2
2
2
2
2
2
2
2
2
2
2
2
2
2
2
3
3
2
2
2
2
2
2
2
2
2
2
2
2
2
2
2
2
2
2
2
2
2
2
2
2
2
2
3
3
2
2
0
0
0
0
0
0
0
0
0
0
0
0
0
0
0
0
0
0
0
0
3
3
2
2
0
0
0
0
0
0
0
0
0
0
0
0
0
0
0
0
0
0
0
0
3
3
2
2
0
0
0
0
0
0
0
0
0
0
0
0
0
0
0
0
0
0
0
0
3
3
2
2
0
0
0
0
0
0
0
0
0
0
0
0
0
0
0
0
0
0
0
0
3
3
2
2
0
0
0
0
0
0
0
0
0
0
0
0
0
0
0
0
0
0
0
0
3
3
2
2
0
0
0
0
0
0
0
0
0
0
0
0
0
0
0
0
0
0
0
0
3
3
2
2
0
0
0
0
0
0
0
0
0
0
0
0
0
0
0
0
0
0
0
0
3
3
2
2
0
0
0
0
0
0
0
0
0
0
0
0
0
0
0
0
0
0
0
0
3
3
2
2
0
0
0
0
0
0
0
0
0
0
0
0
0
0
0
0
0
0
0
0
3
3
2
2
0
0
0
0
0
0
0
0
0
0
0
0
0
0
0
0
0
0
0
0
3
3
2
2
3
3
2
2
3
3
2
2
3
3
2
2
3
3
2
2
3
3
2
2
3
3
2
2
3
3
2
2
3
3
2
2
3
3
2
2
3
3
2
2
3
3
2
2
3
3
2
2
3
3
2
2
3
3
2
2
3
3
2
2
3
3
2
2
3
3
2
2
3
3
2
2
3
3
2
2
3
3
2
2
3
3
2
2
3
3
2
2
3
3
2
2
3
3
2
2
3
3
2
2
3
3
2
2
3
3
2
2
3
3
2
2
3
3
2
2
3
3
2
2
2
2
2
2
2
2
2
2
2
2
2
2
2
2
2
2
2
2
2
2
2
2
2
2
3
3
2
2
2
2
2
2
2
2
2
2
2
2
2
2
2
2
2
2
2
2
2
2
2
2
2
2
3
3
3
3
3
3
3
3
3
3
3
3
3
3
3
3
3
3
3
3
3
3
3
3
3
3
2
2
3
3
3
3
3
3
3
3
3
3
3
3
3
3
3
3
3
3
3
3
3
3
3
3
3
3
2
2
</DataArray>
<DataArray NumberOfComponents='1' type='Float32' Name='Velocity' format='ascii'>
0.000000
0.000000
0.000000
0.000000
0.000000
0.000000
0.000000
0.000000
0.000000
0.000000
0.000000
0.000000
0.000000
0.000000
0.000000
0.000000
0.000000
0.000000
0.000000
0.000000
0.000000
0.000000
0.000000
0.000000
0.000000
0.000000
0.000000
0.000000
0.000000
0.000000
0.000000
0.000000
0.000000
0.000000
0.000000
0.000000
0.000000
0.000000
0.000000
0.000000
0.000000
0.000000
0.000000
0.000000
0.000000
0.000000
0.000000
0.000000
0.000000
0.000000
0.000000
0.000000
0.000000
0.000000
0.000000
0.000000
0.000000
0.000000
0.000000
0.000000
0.000000
0.000000
0.000000
0.000000
0.000000
0.000000
0.000000
0.000000
0.000000
0.000000
0.000000
0.000000
0.000000
0.000000
0.000000
0.000000
0.000000
0.000000
0.000000
0.000000
0.000000
0.000000
0.000000
0.000000
0.000000
0.000000
0.000000
0.000000
0.000000
0.000000
0.000000
0.000000
0.000000
0.000000
0.000000
0.000000
0.000000
0.000000
0.000000
0.000000
0.000000
0.000000
0.000000
0.000000
0.000000
0.000000
0.000000
0.000000
0.000000
0.000000
0.000000
0.000000
0.000000
0.000000
0.000000
0.000000
0.322444
0.414250
0.034444
0.211824
0.348198
0.216500
0.281957
0.341834
0.693479
0.355777
0.593038
0.917073
0.867834
0.788276
0.795524
0.708060
0.762328
0.825901
0.830584
0.864431
0.000000
0.000000
0.000000
0.000000
0.460897
0.286286
0.293319
0.641846
0.065837
0.507305
0.281135
0.569882
0.190814
0.511170
0.268714
0.290863
0.584483
0.568020
0.750107
0.853501
0.885123
0.759245
0.938055
0.871905
0.000000
0.000000
0.000000
0.000000
0.458276
0.450152
0.529534
0.089370
0.336717
0.851169
1.097588
0.475806
0.638510
0.552753
0.502443
0.707612
0.734582
0.539908
0.543803
0.519382
0.669645
0.744984
0.679310
1.047373
0.000000
0.000000
0.000000
0.000000
0.580424
0.529146
0.462063
0.838784
0.166612
1.289321
0.685607
0.880661
0.673619
0.723674
0.649413
0.913536
1.012769
0.775211
0.789615
0.835293
0.810214
0.862440
0.899871
0.817966
0.000000
0.000000
0.000000
0.000000
0.748637
0.808313
1.555187
1.099647
1.103098
0.588206
0.970938
1.253669
0.709716
0.835768
1.302966
0.992350
0.481955
0.378016
0.298063
0.653690
0.872149
0.874514
0.907596
1.159920
0.000000
0.000000
0.000000
0.000000
1.380672
1.469376
1.648105
1.099612
1.811575
2.113712
1.230824
1.545324
1.222435
1.253213
1.232859
1.205209
1.273226
0.760873
0.573536
0.682519
1.068461
1.012424
0.961487
1.210325
0.000000
0.000000
0.000000
0.000000
2.449169
1.755707
1.672546
2.442456
1.906617
1.835699
2.229112
2.193843
1.650147
1.632100
1.555784
1.393005
1.301192
1.322288
0.973567
1.599941
1.443742
1.138675
1.235164
1.320505
0.000000
0.000000
0.000000
0.000000
2.828303
2.419030
3.057857
1.892277
2.617850
3.019646
2.392838
2.258574
2.201802
1.879971
1.672122
1.234851
1.863694
2.039079
1.136978
1.719716
1.410080
1.406959
1.508213
1.556388
0.000000
0.000000
0.000000
0.000000
2.767472
2.936523
2.796811
2.436156
2.803163
2.808097
3.201200
2.674655
2.613022
2.740758
2.742553
2.475033
2.405206
2.659116
1.892763
1.771110
1.979538
1.768746
1.607592
1.434034
0.000000
0.000000
0.000000
0.000000
2.771870
3.175729
2.828808
2.801882
2.712804
2.739438
2.684743
2.777049
2.621789
2.555781
2.874992
2.952614
2.578004
2.807365
2.579586
2.741485
2.242051
2.198938
1.724495
1.769285
0.000000
0.000000
0.000000
0.000000
0.000000
0.000000
0.000000
0.000000
0.000000
0.000000
0.000000
0.000000
0.000000
0.000000
0.000000
0.000000
0.000000
0.000000
0.000000
0.000000
0.000000
0.000000
0.000000
0.000000
0.000000
0.000000
0.000000
0.000000
0.000000
0.000000
0.000000
0.000000
0.000000
0.000000
0.000000
0.000000
0.000000
0.000000
0.000000
0.000000
0.000000
0.000000
0.000000
0.000000
0.000000
0.000000
0.000000
0.000000
0.000000
0.000000
0.000000
0.000000
0.000000
0.000000
0.000000
0.000000
0.000000
0.000000
0.000000
0.000000
0.000000
0.000000
0.000000
0.000000
0.000000
0.000000
0.000000
0.000000
0.000000
0.000000
0.000000
0.000000
0.000000
0.000000
0.000000
0.000000
0.000000
0.000000
0.000000
0.000000
0.000000
0.000000
0.000000
0.000000
0.000000
0.000000
0.000000
0.000000
0.000000
0.000000
0.000000
0.000000
0.000000
0.000000
0.000000
0.000000
0.000000
0.000000
0.000000
0.000000
0.000000
0.000000
0.000000
0.000000
0.000000
0.000000
0.000000
0.000000
0.000000
0.000000
0.000000
0.000000
0.000000
0.000000
0.000000
0.000000
0.000000
0.000000
0.000000
0.000000
0.000000
0.000000
0.000000
0.000000
0.000000
0.000000
0.000000
0.000000
0.000000
0.000000
0.000000
0.000000
0.000000
0.000000
0.000000
0.000000
0.000000
0.000000
0.000000
0.000000
0.000000
0.000000
0.000000
0.000000
0.000000
0.000000
0.000000
0.000000
0.000000
0.000000
0.000000
0.000000
0.000000
0.000000
0.000000
0.000000
0.000000
0.000000
0.000000
0.000000
0.000000
0.000000
0.000000
0.000000
0.000000
0.000000
0.000000
0.000000
0.000000
0.000000
0.000000
0.000000
0.000000
0.000000
0.000000
0.000000
0.000000
0.000000
0.000000
0.000000
0.000000
0.000000
0.000000
0.000000
0.000000
0.000000
0.000000
0.000000
0.000000
0.000000
0.000000
0.000000
0.000000
0.000000
0.000000
0.000000
0.000000
0.000000
0.000000
0.000000
0.000000
0.000000
0.000000
0.000000
0.000000
0.000000
0.000000
0.000000
0.000000
0.000000
0.000000
0.000000
0.000000
0.000000
0.000000
0.000000
0.000000
0.000000
0.000000
0.000000
0.000000
0.000000
0.000000
0.000000
0.000000
0.000000
0.000000
0.000000
0.000000
0.000000
0.000000
0.000000
</DataArray>
<DataArray NumberOfComponents='1' type='Float32' Name='pressure' format='ascii'>
0.000000
0.000000
0.000000
0.000000
0.000000
0.000000
0.000000
0.000000
0.000000
0.000000
0.000000
0.000000
0.000000
0.000000
0.000000
0.000000
0.000000
0.000000
0.000000
0.000000
0.000000
0.000000
0.000000
0.000000
0.000000
0.000000
0.000000
0.000000
0.000000
0.000000
0.000000
0.000000
0.000000
0.000000
0.000000
0.000000
0.000000
0.000000
0.000000
0.000000
0.000000
0.000000
0.000000
0.000000
0.000000
0.000000
0.000000
0.000000
0.000000
0.000000
0.000000
0.000000
0.000000
0.000000
0.000000
0.000000
0.000000
0.000000
1686.309814
1705.535767
1834.639526
908.075989
858.723145
1711.439087
2235.873047
2423.889648
26.650782
378.548401
32.172520
0.000000
0.000000
0.000000
0.000000
0.000000
0.000000
0.000000
0.000000
0.000000
0.000000
0.000000
0.000000
0.000000
0.000000
0.000000
0.000000
0.000000
1813.183594
1238.769775
2100.268799
1583.690552
1906.453247
1678.884644
2083.764893
2098.278564
0.000000
1196.995483
1504.751709
170.675552
0.000000
0.000000
0.000000
0.000000
0.000000
0.000000
0.000000
0.000000
0.000000
0.000000
0.000000
0.000000
0.000000
0.000000
0.000000
0.000000
1633.985474
1351.870239
3686.429443
3725.538330
1761.592285
2039.949951
1815.674194
2706.157227
2656.753662
2318.279297
1079.713989
3066.113770
2119.166992
0.000000
1147.750488
453.257599
1077.524902
568.215393
582.075073
1131.696167
0.000000
0.000000
0.000000
0.000000
3236.864746
3402.380371
1602.961792
2726.134766
3339.914307
2357.758545
1768.788818
2539.305908
1966.516357
2282.606201
2545.004395
426.730347
1600.188232
1624.291504
1428.845947
1835.643921
775.339600
515.524109
616.445190
496.751160
235.441284
0.000000
0.000000
0.000000
3187.720947
2541.095459
2642.259277
2751.018311
3311.890137
2019.143311
1601.649536
1630.806641
3746.595703
2111.731934
1499.770264
2544.637207
1609.605469
2170.849609
954.959229
1112.972046
514.887817
668.267212
0.000000
565.563232
0.000000
0.000000
0.000000
0.000000
2210.868896
1252.400513
2802.345703
2620.099609
3096.529541
34.101337
1625.613159
1941.712158
1909.508301
890.052063
1274.021240
1319.760254
1584.775757
3111.060791
1703.254028
1975.497070
1580.216675
1872.583984
638.722412
495.117798
829.650391
0.000000
0.000000
0.000000
3242.661621
2039.322021
1873.175415
2244.664551
0.000000
2899.222168
2313.146729
852.487000
1195.570435
2622.201416
624.937622
1978.830811
2077.788330
1674.815186
1901.487305
478.788422
1318.649902
0.000000
891.939270
1725.682373
1167.634888
0.000000
0.000000
0.000000
4626.803711
2686.489502
1581.823242
2888.841553
4388.216797
1682.542236
1955.187500
1652.902222
863.694763
3611.610840
136.921677
2735.856689
1633.473877
1038.959229
296.868958
2035.210449
1582.479614
2106.653809
628.281433
1273.596191
582.931885
0.000000
0.000000
0.000000
4657.554199
3029.167236
1471.605591
3975.800537
0.000000
3487.187744
0.000000
3621.386963
2244.072266
3391.265137
1453.623169
623.215820
1759.796875
1552.476807
2678.014160
2366.650146
1328.820190
2475.439209
2242.388184
1511.138794
0.000000
0.000000
0.000000
0.000000
2885.099609
0.000000
1340.688232
0.000000
0.000000
420.489441
246.269363
483.267761
372.258362
2991.544434
1215.074829
807.492676
1365.189575
983.833008
1292.260376
1968.975830
269.959930
719.731506
2153.158691
1165.323608
0.000000
0.000000
0.000000
0.000000
3392.450195
4509.567383
816.062256
0.000000
1707.763428
1799.929810
0.000000
0.000000
1005.125977
0.000000
0.000000
0.000000
2558.847412
716.646179
750.855774
103.583817
452.881348
0.000000
582.312866
465.440613
0.000000
551.529846
0.000000
0.000000
2388.865967
1957.511108
0.000000
0.000000
0.000000
88.061600
0.000000
0.000000
0.000000
0.000000
0.000000
0.000000
0.000000
0.000000
0.000000
0.000000
0.000000
0.000000
0.000000
0.000000
0.000000
0.000000
0.000000
0.000000
2618.201904
730.511780
0.000000
0.000000
5131.339355
5137.512695
0.000000
0.000000
3884.094727
3412.731445
0.000000
0.000000
3324.461914
1430.552124
0.000000
0.000000
4079.621582
3292.681152
0.000000
0.000000
3478.941650
3521.613525
0.000000
0.000000
2842.010010
2903.763916
0.000000
0.000000
1057.143311
0.000000
0.000000
0.000000
1589.409180
750.180420
0.000000
0.000000
0.000000
0.000000
0.000000
0.000000
30.389336
0.000000
0.000000
0.000000
0.000000
0.000000
0.000000
0.000000
1740.556519
2228.208008
0.000000
0.000000
699.481995
14.886450
0.000000
0.000000
1438.387817
1536.664185
0.000000
0.000000
440.949188
0.000000
0.000000
0.000000
1618.566650
1980.665894
0.000000
0.000000
1421.382568
0.000000
0.000000
0.000000
0.000000
0.000000
0.000000
0.000000
351.545105
0.000000
0.000000
0.000000
0.000000
0.000000
0.000000
0.000000
0.000000
0.000000
0.000000
0.000000
0.000000
0.000000
0.000000
0.000000
0.000000
0.000000
0.000000
0.000000
0.000000
0.000000
0.000000
0.000000
0.000000
0.000000
0.000000
0.000000
0.000000
0.000000
0.000000
0.000000
0.000000
0.000000
0.000000
0.000000
0.000000
0.000000
0.000000
0.000000
0.000000
0.000000
0.000000
0.000000
0.000000
0.000000
0.000000
0.000000
0.000000
0.000000
0.000000
0.000000
0.000000
0.000000
0.000000
0.000000
0.000000
0.000000
0.000000
0.000000
0.000000
0.000000
0.000000
0.000000
0.000000
0.000000
0.000000
0.000000
0.000000
0.000000
0.000000
0.000000
0.000000
0.000000
0.000000
0.000000
0.000000
0.000000
0.000000
0.000000
0.000000
0.000000
0.000000
0.000000
0.000000
0.000000
0.000000
0.000000
0.000000
0.000000
0.000000
0.000000
0.000000
0.000000
0.000000
0.000000
0.000000
0.000000
0.000000
0.000000
0.000000
0.000000
0.000000
0.000000
0.000000
0.000000
0.000000
0.000000
0.000000
0.000000
0.000000
0.000000
0.000000
0.000000
0.000000
0.000000
0.000000
0.000000
0.000000
0.000000
0.000000
0.000000
0.000000
0.000000
0.000000
0.000000
0.000000
0.000000
0.000000
0.000000
0.000000
0.000000
0.000000
0.000000
0.000000
0.000000
0.000000
0.000000
0.000000
0.000000
0.000000
0.000000
0.000000
0.000000
0.000000
0.000000
0.000000
0.000000
0.000000
0.000000
0.000000
0.000000
0.000000
0.000000
</DataArray>
</PointData>
<Cells>
<DataArray type='Int32' Name='connectivity' format='ascii'>
0
1
2
3
4
5
6
7
8
9
10
11
12
13
14
15
16
17
18
19
20
21
22
23
24
25
26
27
28
29
30
31
32
33
34
35
36
37
38
39
40
41
42
43
44
45
46
47
48
49
50
51
52
53
54
55
56
57
58
59
60
61
62
63
64
65
66
67
68
69
70
71
72
73
74
75
76
77
78
79
80
81
82
83
84
85
86
87
88
89
90
91
92
93
94
95
96
97
98
99
100
101
102
103
104
105
106
107
108
109
110
111
112
113
114
115
116
117
118
119
120
121
122
123
124
125
126
127
128
129
130
131
132
133
134
135
136
137
138
139
140
141
142
143
144
145
146
147
148
149
150
151
152
153
154
155
156
157
158
159
160
161
162
163
164
165
166
167
168
169
170
171
172
173
174
175
176
177
178
179
180
181
182
183
184
185
186
187
188
189
190
191
192
193
194
195
196
197
198
199
200
201
202
203
204
205
206
207
208
209
210
211
212
213
214
215
216
217
218
219
220
221
222
223
224
225
226
227
228
229
230
231
232
233
234
235
236
237
238
239
240
241
242
243
244
245
246
247
248
249
250
251
252
253
254
255
256
257
258
259
260
261
262
263
264
265
266
267
268
269
270
271
272
273
274
275
276
277
278
279
280
281
282
283
284
285