<?xml version='1.0' encoding='UTF-8'?>
<VTKFile xmlns='VTK' byte_order='LittleEndian' version='0.1' type='UnstructuredGrid'>
<UnstructuredGrid>
<Piece NumberOfCells='584' NumberOfPoints='584'>
<Points>
<DataArray NumberOfComponents='3' type='Float32' Name='Position' format='ascii'>
-0.075000 -0.075000 0.000000
-0.075000 -0.050000 0.000000
-0.075000 -0.025000 0.000000
-0.075000 0.000000 0.000000
-0.075000 0.025000 0.000000
-0.075000 0.050000 0.000000
-0.075000 0.075000 0.000000
-0.075000 0.100000 0.000000
-0.075000 0.125000 0.000000
-0.075000 0.150000 0.000000
-0.075000 0.175000 0.000000
-0.075000 0.200000 0.000000
-0.075000 0.225000 0.000000
-0.075000 0.250000 0.000000
-0.075000 0.275000 0.000000
-0.075000 0.300000 0.000000
-0.075000 0.325000 0.000000
-0.075000 0.350000 0.000000
-0.075000 0.375000 0.000000
-0.075000 0.400000 0.000000
-0.075000 0.425000 0.000000
-0.075000 0.450000 0.000000
-0.075000 0.475000 0.000000
-0.075000 0.500000 0.000000
-0.075000 0.525000 0.000000
-0.075000 0.550000 0.000000
-0.075000 0.575000 0.000000
-0.075000 0.600000 0.000000
-0.050000 -0.075000 0.000000
-0.050000 -0.050000 0.000000
-0.050000 -0.025000 0.000000
-0.050000 0.000000 0.000000
-0.050000 0.025000 0.000000
-0.050000 0.050000 0.000000
-0.050000 0.075000 0.000000
-0.050000 0.100000 0.000000
-0.050000 0.125000 0.000000
-0.050000 0.150000 0.000000
-0.050000 0.175000 0.000000
-0.050000 0.200000 0.000000
-0.050000 0.225000 0.000000
-0.050000 0.250000 0.000000
-0.050000 0.275000 0.000000
-0.050000 0.300000 0.000000
-0.050000 0.325000 0.000000
-0.050000 0.350000 0.000000
-0.050000 0.375000 0.000000
-0.050000 0.400000 0.000000
-0.050000 0.425000 0.000000
-0.050000 0.450000 0.000000
-0.050000 0.475000 0.000000
-0.050000 0.500000 0.000000
-0.050000 0.525000 0.000000
-0.050000 0.550000 0.000000
-0.050000 0.575000 0.000000
-0.050000 0.600000 0.000000
-0.025000 -0.075000 0.000000
-0.025000 -0.050000 0.000000
-0.025000 -0.025000 0.000000
-0.025000 0.000000 0.000000
-0.025000 0.025000 0.000000
-0.025000 0.050000 0.000000
-0.025000 0.075000 0.000000
-0.025000 0.100000 0.000000
-0.025000 0.125000 0.000000
-0.025000 0.150000 0.000000
-0.025000 0.175000 0.000000
-0.025000 0.200000 0.000000
-0.025000 0.225000 0.000000
-0.025000 0.250000 0.000000
-0.025000 0.275000 0.000000
-0.025000 0.300000 0.000000
-0.025000 0.325000 0.000000
-0.025000 0.350000 0.000000
-0.025000 0.375000 0.000000
-0.025000 0.400000 0.000000
-0.025000 0.425000 0.000000
-0.025000 0.450000 0.000000
-0.025000 0.475000 0.000000
-0.025000 0.500000 0.000000
-0.025000 0.525000 0.000000
-0.025000 0.550000 0.000000
-0.025000 0.575000 0.000000
-0.025000 0.600000 0.000000
0.000000 -0.075000 0.000000
0.000000 -0.050000 0.000000
0.000000 -0.025000 0.000000
0.000000 0.000000 0.000000
0.000000 0.025000 0.000000
0.000000 0.050000 0.000000
0.000000 0.075000 0.000000
0.000000 0.100000 0.000000
0.000000 0.125000 0.000000
0.000000 0.150000 0.000000
0.000000 0.175000 0.000000
0.000000 0.200000 0.000000
0.000000 0.225000 0.000000
0.000000 0.250000 0.000000
0.000000 0.275000 0.000000
0.000000 0.300000 0.000000
0.000000 0.325000 0.000000
0.000000 0.350000 0.000000
0.000000 0.375000 0.000000
0.000000 0.400000 0.000000
0.000000 0.425000 0.000000
0.000000 0.450000 0.000000
0.000000 0.475000 0.000000
0.000000 0.500000 0.000000
0.000000 0.525000 0.000000
0.000000 0.550000 0.000000
0.000000 0.575000 0.000000
0.000000 0.600000 0.000000
0.025000 -0.075000 0.000000
0.025000 -0.050000 0.000000
0.025000 -0.025000 0.000000
0.025000 0.000000 0.000000
0.242890 0.026475 0.000000
0.212245 0.021423 0.000000
0.188521 0.027860 0.000000
0.131366 0.029036 0.000000
0.327731 0.037335 0.000000
0.062590 0.020731 0.000000
0.410417 0.022823 0.000000
0.264915 0.024764 0.000000
0.158873 0.022179 0.000000
0.133827 0.048339 0.000000
0.207381 0.046497 0.000000
0.168614 0.041135 0.000000
0.108141 0.023167 0.000000
0.031938 0.024105 0.000000
0.020148 0.040898 0.000000
0.028952 0.074403 0.000000
0.088307 0.031923 0.000000
0.075179 0.053758 0.000000
0.051667 0.063780 0.000000
0.094248 0.058985 0.000000
0.050000 -0.075000 0.000000
0.050000 -0.050000 0.000000
0.050000 -0.025000 0.000000
0.050000 0.000000 0.000000
0.285406 0.033930 0.000000
0.411376 0.076696 0.000000
0.536352 0.049939 0.000000
0.498033 0.053326 0.000000
0.517406 0.079072 0.000000
0.567422 0.056776 0.000000
0.433834 0.038133 0.000000
0.664289 0.075928 0.000000
0.343937 0.024807 0.000000
0.345682 0.060078 0.000000
0.467049 0.067372 0.000000
0.381505 0.076367 0.000000
0.052776 0.045453 0.000000
0.382892 0.033143 0.000000
0.203582 0.067651 0.000000
0.241120 0.046379 0.000000
0.152452 0.066715 0.000000
0.232573 0.076949 0.000000
0.105884 0.074009 0.000000
0.120442 0.063729 0.000000
0.075000 -0.075000 0.000000
0.075000 -0.050000 0.000000
0.075000 -0.025000 0.000000
0.075000 0.000000 0.000000
0.310789 0.022532 0.000000
0.465514 0.038373 0.000000
0.482871 0.024457 0.000000
0.450038 0.023381 0.000000
0.714525 0.067010 0.000000
0.765839 0.025790 0.000000
0.791129 0.023207 0.000000
0.577590 0.066942 0.000000
0.729272 0.039872 0.000000
0.696642 0.022409 0.000000
0.528365 0.024045 0.000000
0.398064 0.091187 0.000000
0.396400 0.048412 0.000000
0.323402 0.070874 0.000000
0.285352 0.060154 0.000000
0.249402 0.066647 0.000000
0.268993 0.062783 0.000000
0.416517 0.047635 0.000000
0.348778 0.072409 0.000000
0.187542 0.058467 0.000000
0.100000 -0.075000 0.000000
0.100000 -0.050000 0.000000
0.100000 -0.025000 0.000000
0.100000 0.000000 0.000000
0.550523 0.024040 0.000000
0.505837 0.031516 0.000000
0.735797 0.022477 0.000000
0.908451 0.024277 0.000000
0.367373 0.024687 0.000000
0.854068 0.022104 0.000000
0.894724 0.062499 0.000000
0.819511 0.081998 0.000000
0.813941 0.026451 0.000000
0.833195 0.031676 0.000000
0.573490 0.035836 0.000000
0.599748 0.023405 0.000000
0.691961 0.070762 0.000000
0.750219 0.048690 0.000000
0.614834 0.071204 0.000000
0.301662 0.052580 0.000000
0.648757 0.045629 0.000000
0.678637 0.078838 0.000000
0.487781 0.067683 0.000000
0.451959 0.080511 0.000000
0.125000 -0.075000 0.000000
0.125000 -0.050000 0.000000
0.125000 -0.025000 0.000000
0.125000 0.000000 0.000000
0.914410 0.046266 0.000000
0.853123 0.061265 0.000000
1.003051 0.133816 0.000000
0.958152 0.025129 0.000000
0.986387 0.200688 0.000000
0.627612 0.023683 0.000000
0.914713 0.105621 0.000000
0.955317 0.160890 0.000000
0.924914 0.081373 0.000000
0.874456 0.070220 0.000000
0.928017 0.118490 0.000000
0.897481 0.143247 0.000000
0.812190 0.102254 0.000000
0.667686 0.050579 0.000000
0.594998 0.039137 0.000000
0.684759 0.031124 0.000000
0.901273 0.082399 0.000000
0.570616 0.103187 0.000000
0.784751 0.069552 0.000000
0.530390 0.065611 0.000000
0.150000 -0.075000 0.000000
0.150000 -0.050000 0.000000
0.150000 -0.025000 0.000000
0.150000 0.000000 0.000000
0.933086 0.208784 0.000000
0.999272 0.108134 0.000000
0.975428 0.325594 0.000000
0.877129 0.325219 0.000000
1.003568 0.075931 0.000000
0.876369 0.370739 0.000000
0.958843 0.115249 0.000000
0.889723 0.174730 0.000000
0.980806 0.105821 0.000000
0.961057 0.196221 0.000000
0.976682 0.046723 0.000000
0.888803 0.031070 0.000000
0.933758 0.026068 0.000000
0.949469 0.046745 0.000000
0.869269 0.044046 0.000000
0.798099 0.072010 0.000000
0.763660 0.055605 0.000000
0.836259 0.054388 0.000000
0.789982 0.048221 0.000000
0.651613 0.026691 0.000000
0.175000 -0.075000 0.000000
0.175000 -0.050000 0.000000
0.175000 -0.025000 0.000000
0.175000 0.000000 0.000000
0.620905 0.258766 0.000000
1.002538 0.170080 0.000000
1.000425 0.271066 0.000000
1.004046 0.206186 0.000000
0.982009 0.163103 0.000000
0.915468 0.336750 0.000000
0.987734 0.022475 0.000000
0.951482 0.231309 0.000000
0.895632 0.239062 0.000000
1.004174 0.035659 0.000000
0.952578 0.251253 0.000000
0.987930 0.240287 0.000000
0.848930 0.164854 0.000000
0.980296 0.139470 0.000000
0.945035 0.101293 0.000000
0.918571 0.231619 0.000000
0.964089 0.073943 0.000000
0.928891 0.147533 0.000000
0.891152 0.109424 0.000000
0.917205 0.161732 0.000000
0.200000 -0.075000 0.000000
0.200000 -0.050000 0.000000
0.200000 -0.025000 0.000000
0.200000 0.000000 0.000000
0.845077 0.758286 0.000000
0.922956 0.283529 0.000000
0.909442 0.434839 0.000000
0.993071 0.338762 0.000000
0.902871 0.370653 0.000000
0.922613 0.400465 0.000000
0.959324 0.440321 0.000000
0.980573 0.386725 0.000000
0.947001 0.327186 0.000000
0.863137 0.256282 0.000000
0.996601 0.371577 0.000000
0.984255 0.070312 0.000000
0.797791 0.247167 0.000000
0.893468 0.217784 0.000000
0.947672 0.193777 0.000000
0.924085 0.268565 0.000000
0.978781 0.288236 0.000000
0.907520 0.203536 0.000000
0.957287 0.140427 0.000000
0.943751 0.069187 0.000000
0.225000 -0.075000 0.000000
0.225000 -0.050000 0.000000
0.225000 -0.025000 0.000000
0.225000 0.000000 0.000000
0.915474 0.422064 0.000000
0.958989 1.288828 0.000000
0.944761 0.361387 0.000000
0.824561 0.286288 0.000000
0.638119 0.259370 0.000000
0.819591 0.362598 0.000000
0.930619 0.451034 0.000000
0.995481 0.447802 0.000000
0.964107 0.395891 0.000000
0.890522 0.388821 0.000000
0.985706 0.399431 0.000000
0.857611 0.367272 0.000000
0.650587 0.208821 0.000000
0.806375 0.181532 0.000000
0.905762 0.345769 0.000000
0.939893 0.343401 0.000000
0.833753 0.247402 0.000000
0.872141 0.236792 0.000000
0.883643 0.193280 0.000000
0.891445 0.156783 0.000000
0.250000 -0.075000 0.000000
0.250000 -0.050000 0.000000
0.250000 -0.025000 0.000000
0.250000 0.000000 0.000000
0.965489 1.045356 0.000000
0.822242 0.967600 0.000000
0.820575 0.476094 0.000000
0.889610 0.513822 0.000000
0.705082 1.083624 0.000000
0.920077 0.596777 0.000000
0.721609 0.924231 0.000000
0.799564 0.776740 0.000000
0.666624 0.386397 0.000000
0.941294 0.426790 0.000000
0.774618 0.215123 0.000000
0.832117 0.357846 0.000000
0.887691 0.404155 0.000000
0.628289 0.071413 0.000000
0.844812 0.313834 0.000000
0.847144 0.091630 0.000000
0.731959 0.315245 0.000000
0.978226 0.228961 0.000000
0.848974 0.249098 0.000000
0.987650 0.265839 0.000000
0.275000 -0.075000 0.000000
0.275000 -0.050000 0.000000
0.275000 -0.025000 0.000000
0.275000 0.000000 0.000000
0.300000 -0.075000 0.000000
0.300000 -0.050000 0.000000
0.300000 -0.025000 0.000000
0.300000 0.000000 0.000000
0.325000 -0.075000 0.000000
0.325000 -0.050000 0.000000
0.325000 -0.025000 0.000000
0.325000 0.000000 0.000000
0.350000 -0.075000 0.000000
0.350000 -0.050000 0.000000
0.350000 -0.025000 0.000000
0.350000 0.000000 0.000000
0.375000 -0.075000 0.000000
0.375000 -0.050000 0.000000
0.375000 -0.025000 0.000000
0.375000 0.000000 0.000000
0.400000 -0.075000 0.000000
0.400000 -0.050000 0.000000
0.400000 -0.025000 0.000000
0.400000 0.000000 0.000000
0.425000 -0.075000 0.000000
0.425000 -0.050000 0.000000
0.425000 -0.025000 0.000000
0.425000 0.000000 0.000000
0.450000 -0.075000 0.000000
0.450000 -0.050000 0.000000
0.450000 -0.025000 0.000000
0.450000 0.000000 0.000000
0.475000 -0.075000 0.000000
0.475000 -0.050000 0.000000
0.475000 -0.025000 0.000000
0.475000 0.000000 0.000000
0.500000 -0.075000 0.000000
0.500000 -0.050000 0.000000
0.500000 -0.025000 0.000000
0.500000 0.000000 0.000000
0.525000 -0.075000 0.000000
0.525000 -0.050000 0.000000
0.525000 -0.025000 0.000000
0.525000 0.000000 0.000000
0.550000 -0.075000 0.000000
0.550000 -0.050000 0.000000
0.550000 -0.025000 0.000000
0.550000 0.000000 0.000000
0.575000 -0.075000 0.000000
0.575000 -0.050000 0.000000
0.575000 -0.025000 0.000000
0.575000 0.000000 0.000000
0.600000 -0.075000 0.000000
0.600000 -0.050000 0.000000
0.600000 -0.025000 0.000000
0.600000 0.000000 0.000000
0.625000 -0.075000 0.000000
0.625000 -0.050000 0.000000
0.625000 -0.025000 0.000000
0.625000 0.000000 0.000000
0.650000 -0.075000 0.000000
0.650000 -0.050000 0.000000
0.650000 -0.025000 0.000000
0.650000 0.000000 0.000000
0.675000 -0.075000 0.000000
0.675000 -0.050000 0.000000
0.675000 -0.025000 0.000000
0.675000 0.000000 0.000000
0.700000 -0.075000 0.000000
0.700000 -0.050000 0.000000
0.700000 -0.025000 0.000000
0.700000 0.000000 0.000000
0.725000 -0.075000 0.000000
0.725000 -0.050000 0.000000
0.725000 -0.025000 0.000000
0.725000 0.000000 0.000000
0.750000 -0.075000 0.000000
0.750000 -0.050000 0.000000
0.750000 -0.025000 0.000000
0.750000 0.000000 0.000000
0.775000 -0.075000 0.000000
0.775000 -0.050000 0.000000
0.775000 -0.025000 0.000000
0.775000 0.000000 0.000000
0.800000 -0.075000 0.000000
0.800000 -0.050000 0.000000
0.800000 -0.025000 0.000000
0.800000 0.000000 0.000000
0.825000 -0.075000 0.000000
0.825000 -0.050000 0.000000
0.825000 -0.025000 0.000000
0.825000 0.000000 0.000000
0.850000 -0.075000 0.000000
0.850000 -0.050000 0.000000
0.850000 -0.025000 0.000000
0.850000 0.000000 0.000000
0.875000 -0.075000 0.000000
0.875000 -0.050000 0.000000
0.875000 -0.025000 0.000000
0.875000 0.000000 0.000000
0.900000 -0.075000 0.000000
0.900000 -0.050000 0.000000
0.900000 -0.025000 0.000000
0.900000 0.000000 0.000000
0.925000 -0.075000 0.000000
0.925000 -0.050000 0.000000
0.925000 -0.025000 0.000000
0.925000 0.000000 0.000000
0.950000 -0.075000 0.000000
0.950000 -0.050000 0.000000
0.950000 -0.025000 0.000000
0.950000 0.000000 0.000000
0.975000 -0.075000 0.000000
0.975000 -0.050000 0.000000
0.975000 -0.025000 0.000000
0.975000 0.000000 0.000000
1.000000 -0.075000 0.000000
1.000000 -0.050000 0.000000
1.000000 -0.025000 0.000000
1.000000 0.000000 0.000000
1.025000 -0.075000 0.000000
1.025000 -0.050000 0.000000
1.025000 -0.025000 0.000000
1.025000 0.000000 0.000000
1.025000 0.025000 0.000000
1.025000 0.050000 0.000000
1.025000 0.075000 0.000000
1.025000 0.100000 0.000000
1.025000 0.125000 0.000000
1.025000 0.150000 0.000000
1.025000 0.175000 0.000000
1.025000 0.200000 0.000000
1.025000 0.225000 0.000000
1.025000 0.250000 0.000000
1.025000 0.275000 0.000000
1.025000 0.300000 0.000000
1.025000 0.325000 0.000000
1.025000 0.350000 0.000000
1.025000 0.375000 0.000000
1.025000 0.400000 0.000000
1.025000 0.425000 0.000000
1.025000 0.450000 0.000000
1.025000 0.475000 0.000000
1.025000 0.500000 0.000000
1.025000 0.525000 0.000000
1.025000 0.550000 0.000000
1.025000 0.575000 0.000000
1.025000 0.600000 0.000000
1.050000 -0.075000 0.000000
1.050000 -0.050000 0.000000
1.050000 -0.025000 0.000000
1.050000 0.000000 0.000000
1.050000 0.025000 0.000000
1.050000 0.050000 0.000000
1.050000 0.075000 0.000000
1.050000 0.100000 0.000000
1.050000 0.125000 0.000000
1.050000 0.150000 0.000000
1.050000 0.175000 0.000000
1.050000 0.200000 0.000000
1.050000 0.225000 0.000000
1.050000 0.250000 0.000000
1.050000 0.275000 0.000000
1.050000 0.300000 0.000000
1.050000 0.325000 0.000000
1.050000 0.350000 0.000000
1.050000 0.375000 0.000000
1.050000 0.400000 0.000000
1.050000 0.425000 0.000000
1.050000 0.450000 0.000000
1.050000 0.475000 0.000000
1.050000 0.500000 0.000000
1.050000 0.525000 0.000000
1.050000 0.550000 0.000000
1.050000 0.575000 0.000000
1.050000 0.600000 0.000000
1.075000 -0.075000 0.000000
1.075000 -0.050000 0.000000
1.075000 -0.025000 0.000000
1.075000 0.000000 0.000000
1.075000 0.025000 0.000000
1.075000 0.050000 0.000000
1.075000 0.075000 0.000000
1.075000 0.100000 0.000000
1.075000 0.125000 0.000000
1.075000 0.150000 0.000000
1.075000 0.175000 0.000000
1.075000 0.200000 0.000000
1.075000 0.225000 0.000000
1.075000 0.250000 0.000000
1.075000 0.275000 0.000000
1.075000 0.300000 0.000000
1.075000 0.325000 0.000000
1.075000 0.350000 0.000000
1.075000 0.375000 0.000000
1.075000 0.400000 0.000000
1.075000 0.425000 0.000000
1.075000 0.450000 0.000000
1.075000 0.475000 0.000000
1.075000 0.500000 0.000000
1.075000 0.525000 0.000000
1.075000 0.550000 0.000000
1.075000 0.575000 0.000000
1.075000 0.600000 0.000000
1.100000 -0.075000 0.000000
1.100000 -0.050000 0.000000
1.100000 -0.025000 0.000000
1.100000 0.000000 0.000000
1.100000 0.025000 0.000000
1.100000 0.050000 0.000000
1.100000 0.075000 0.000000
1.100000 0.100000 0.000000
1.100000 0.125000 0.000000
1.100000 0.150000 0.000000
1.100000 0.175000 0.000000
1.100000 0.200000 0.000000
1.100000 0.225000 0.000000
1.100000 0.250000 0.000000
1.100000 0.275000 0.000000
1.100000 0.300000 0.000000
1.100000 0.325000 0.000000
1.100000 0.350000 0.000000
1.100000 0.375000 0.000000
1.100000 0.400000 0.000000
1.100000 0.425000 0.000000
1.100000 0.450000 0.000000
1.100000 0.475000 0.000000
1.100000 0.500000 0.000000
1.100000 0.525000 0.000000
1.100000 0.550000 0.000000
1.100000 0.575000 0.000000
1.100000 0.600000 0.000000
</DataArray>
</Points>
<PointData>
<DataArray NumberOfComponents='1' type='Int32' Name='ParticleType' format='ascii'>
3
3
3
3
3
3
3
3
3
3
3
3
3
3
3
3
3
3
3
3
3
3
3
3
3
3
2
2
3
3
3
3
3
3
3
3
3
3
3
3
3
3
3
3
3
3
3
3
3
3
3
3
3
3
2
2
3
3
2
2
2
2
2
2
2
2
2
2
2
2
2
2
2
2
2
2
2
2
2
2
2
2
2
2
3
3
2
2
2
2
2
2
2
2
2
2
2
2
2
2
2
2
2
2
2
2
2
2
2
2
2
2
3
3
2
2
0
0
0
0
0
0
0
0
0
0
0
0
0
0
0
0
0
0
0
0
3
3
2
2
0
0
0
0
0
0
0
0
0
0
0
0
0
0
0
0
0
0
0
0
3
3
2
2
0
0
0
0
0
0
0
0
0
0
0
0
0
0
0
0
0
0
0
0
3
3
2
2
0
0
0
0
0
0
0
0
0
0
0
0
0
0
0
0
0
0
0
0
3
3
2
2
0
0
0
0
0
0
0
0
0
0
0
0
0
0
0
0
0
0
0
0
3
3
2
2
0
0
0
0
0
0
0
0
0
0
0
0
0
0
0
0
0
0
0
0
3
3
2
2
0
0
0
0
0
0
0
0
0
0
0
0
0
0
0
0
0
0
0
0
3
3
2
2
0
0
0
0
0
0
0
0
0
0
0
0
0
0
0
0
0
0
0
0
3
3
2
2
0
0
0
0
0
0
0
0
0
0
0
0
0
0
0
0
0
0
0
0
3
3
2
2
0
0
0
0
0
0
0
0
0
0
0
0
0
0
0
0
0
0
0
0
3
3
2
2
3
3
2
2
3
3
2
2
3
3
2
2
3
3
2
2
3
3
2
2
3
3
2
2
3
3
2
2
3
3
2
2
3
3
2
2
3
3
2
2
3
3
2
2
3
3
2
2
3
3
2
2
3
3
2
2
3
3
2
2
3
3
2
2
3
3
2
2
3
3
2
2
3
3
2
2
3
3
2
2
3
3
2
2
3
3
2
2
3
3
2
2
3
3
2
2
3
3
2
2
3
3
2
2
3
3
2
2
3
3
2
2
3
3
2
2
3
3
2
2
2
2
2
2
2
2
2
2
2
2
2
2
2
2
2
2
2
2
2
2
2
2
2
2
3
3
2
2
2
2
2
2
2
2
2
2
2
2
2
2
2
2
2
2
2
2
2
2
2
2
2
2
3
3
3
3
3
3
3
3
3
3
3
3
3
3
3
3
3
3
3
3
3
3
3
3
3
3
2
2
3
3
3
3
3
3
3
3
3
3
3
3
3
3
3
3
3
3
3
3
3
3
3
3
3
3
2
2
</DataArray>
<DataArray NumberOfComponents='1' type='Float32' Name='Velocity' format='ascii'>
0.000000
0.000000
0.000000
0.000000
0.000000
0.000000
0.000000
0.000000
0.000000
0.000000
0.000000
0.000000
0.000000
0.000000
0.000000
0.000000
0.000000
0.000000
0.000000
0.000000
0.000000
0.000000
0.000000
0.000000
0.000000
0.000000
0.000000
0.000000
0.000000
0.000000
0.000000
0.000000
0.000000
0.000000
0.000000
0.000000
0.000000
0.000000
0.000000
0.000000
0.000000
0.000000
0.000000
0.000000
0.000000
0.000000
0.000000
0.000000
0.000000
0.000000
0.000000
0.000000
0.000000
0.000000
0.000000
0.000000
0.000000
0.000000
0.000000
0.000000
0.000000
0.000000
0.000000
0.000000
0.000000
0.000000
0.000000
0.000000
0.000000
0.000000
0.000000
0.000000
0.000000
0.000000
0.000000
0.000000
0.000000
0.000000
0.000000
0.000000
0.000000
0.000000
0.000000
0.000000
0.000000
0.000000
0.000000
0.000000
0.000000
0.000000
0.000000
0.000000
0.000000
0.000000
0.000000
0.000000
0.000000
0.000000
0.000000
0.000000
0.000000
0.000000
0.000000
0.000000
0.000000
0.000000
0.000000
0.000000
0.000000
0.000000
0.000000
0.000000
0.000000
0.000000
0.000000
0.000000
0.285903
0.068720
0.515001
0.329027
0.444089
0.188138
0.435311
0.254439
0.148766
0.367229
0.227016
0.158519
0.252365
0.100147
0.181177
0.080884
0.263242
0.160832
0.167449
0.366229
0.000000
0.000000
0.000000
0.000000
0.454693
0.995543
1.080164
0.856003
1.227723
1.186118
0.734076
1.465938
0.799325
0.306109
0.770496
0.930784
0.044710
0.470057
0.254389
0.417145
0.151311
0.634510
0.061529
0.076088
0.000000
0.000000
0.000000
0.000000
0.133163
0.617596
0.501216
0.495637
1.548530
1.081951
1.120141
0.962676
0.974793
0.657517
0.779967
1.076622
0.557165
0.139201
0.631938
0.451896
0.478473
0.575329
0.569426
0.157507
0.000000
0.000000
0.000000
0.000000
0.760962
0.827553
1.054483
0.254686
0.355928
0.781363
0.812233
0.879127
0.968395
1.027904
0.701956
1.120979
1.651549
1.057784
1.052812
0.872645
1.355764
1.304423
0.615404
0.610593
0.000000
0.000000
0.000000
0.000000
0.629715
1.351450
0.784728
0.146530
0.369151
0.764040
0.604229
0.559164
0.711345
0.826356
0.598628
0.859343
1.109350
0.921325
1.000659
0.887463
1.017070
0.588435
0.715321
0.945914
0.000000
0.000000
0.000000
0.000000
0.514368
0.275945
0.424939
0.848053
0.192080
0.734906
0.217501
0.376435
0.717562
0.481346
0.455266
0.724087
0.124172
0.171532
0.856198
0.638827
0.972188
1.018204
1.358288
1.033558
0.000000
0.000000
0.000000
0.000000
1.732159
0.153349
0.175102
0.235294
0.855396
0.535156
0.168746
0.516804
0.496254
0.140318
0.375371
0.140906
0.635210
0.144543
0.673767
0.291970
0.050536
0.361233
0.511164
0.893228
0.000000
0.000000
0.000000
0.000000
0.614176
0.698267
0.695792
0.437289
0.688700
0.783551
0.401250
0.421373
0.501253
1.339177
0.376360
0.131190
1.453643
0.624741
0.514497
0.360596
0.116307
0.702903
0.671872
0.274776
0.000000
0.000000
0.000000
0.000000
0.556327
0.529549
0.475402
1.611559
1.549332
1.433902
0.967074
0.445743
0.550236
0.915777
0.599402
1.059603
1.726003
1.656630
0.571491
0.717210
1.071110
0.697938
0.367739
0.448170
0.000000
0.000000
0.000000
0.000000
0.232367
0.423535
1.154595
0.950210
0.685235
0.866394
0.666075
0.768825
1.567657
1.004471
1.594169
1.222147
0.863096
1.159537
1.191893
0.511216
1.301654
0.411310
1.065776
0.156178
0.000000
0.000000
0.000000
0.000000
0.000000
0.000000
0.000000
0.000000
0.000000
0.000000
0.000000
0.000000
0.000000
0.000000
0.000000
0.000000
0.000000
0.000000
0.000000
0.000000
0.000000
0.000000
0.000000
0.000000
0.000000
0.000000
0.000000
0.000000
0.000000
0.000000
0.000000
0.000000
0.000000
0.000000
0.000000
0.000000
0.000000
0.000000
0.000000
0.000000
0.000000
0.000000
0.000000
0.000000
0.000000
0.000000
0.000000
0.000000
0.000000
0.000000
0.000000
0.000000
0.000000
0.000000
0.000000
0.000000
0.000000
0.000000
0.000000
0.000000
0.000000
0.000000
0.000000
0.000000
0.000000
0.000000
0.000000
0.000000
0.000000
0.000000
0.000000
0.000000
0.000000
0.000000
0.000000
0.000000
0.000000
0.000000
0.000000
0.000000
0.000000
0.000000
0.000000
0.000000
0.000000
0.000000
0.000000
0.000000
0.000000
0.000000
0.000000
0.000000
0.000000
0.000000
0.000000
0.000000
0.000000
0.000000
0.000000
0.000000
0.000000
0.000000
0.000000
0.000000
0.000000
0.000000
0.000000
0.000000
0.000000
0.000000
0.000000
0.000000
0.000000
0.000000
0.000000
0.000000
0.000000
0.000000
0.000000
0.000000
0.000000
0.000000
0.000000
0.000000
0.000000
0.000000
0.000000
0.000000
0.000000
0.000000
0.000000
0.000000
0.000000
0.000000
0.000000
0.000000
0.000000
0.000000
0.000000
0.000000
0.000000
0.000000
0.000000
0.000000
0.000000
0.000000
0.000000
0.000000
0.000000
0.000000
0.000000
0.000000
0.000000
0.000000
0.000000
0.000000
0.000000
0.000000
0.000000
0.000000
0.000000
0.000000
0.000000
0.000000
0.000000
0.000000
0.000000
0.000000
0.000000
0.000000
0.000000
0.000000
0.000000
0.000000
0.000000
0.000000
0.000000
0.000000
0.000000
0.000000
0.000000
0.000000
0.000000
0.000000
0.000000
0.000000
0.000000
0.000000
0.000000
0.000000
0.000000
0.000000
0.000000
0.000000
0.000000
0.000000
0.000000
0.000000
0.000000
0.000000
0.000000
0.000000
0.000000
0.000000
0.000000
0.000000
0.000000
0.000000
0.000000
0.000000
0.000000
0.000000
0.000000
0.000000
0.000000
0.000000
0.000000
0.000000
0.000000
0.000000
0.000000
0.000000
0.000000
0.000000
0.000000
0.000000
0.000000
0.000000
0.000000
0.000000
0.000000
0.000000
</DataArray>
<DataArray NumberOfComponents='1' type='Float32' Name='pressure' format='ascii'>
0.000000
0.000000
0.000000
0.000000
0.000000
0.000000
0.000000
0.000000
0.000000
0.000000
0.000000
0.000000
0.000000
0.000000
0.000000
0.000000
0.000000
0.000000
0.000000
0.000000
0.000000
0.000000
0.000000
0.000000
0.000000
0.000000
0.000000
0.000000
0.000000
0.000000
0.000000
0.000000
0.000000
0.000000
0.000000
0.000000
0.000000
0.000000
0.000000
0.000000
0.000000
0.000000
0.000000
0.000000
0.000000
0.000000
0.000000
0.000000
0.000000
0.000000
0.000000
0.000000
0.000000
0.000000
0.000000
0.000000
0.000000
0.000000
1010.479309
1039.886230
1718.733887
1914.819580
0.000000
0.000000
0.000000
0.000000
0.000000
0.000000
0.000000
0.000000
0.000000
0.000000
0.000000
0.000000
0.000000
0.000000
0.000000
0.000000
0.000000
0.000000
0.000000
0.000000
0.000000
0.000000
0.000000
0.000000
984.152588
656.834229
1366.707764
0.000000
0.000000
0.000000
0.000000
0.000000
0.000000
0.000000
0.000000
0.000000
0.000000
0.000000
0.000000
0.000000
0.000000
0.000000
0.000000
0.000000
0.000000
0.000000
0.000000
0.000000
0.000000
0.000000
0.000000
0.000000
1231.161621
345.495850
591.670044
617.270752
2550.336914
1058.621582
897.898254
666.353149
494.457123
1067.331909
593.004272
27.216948
847.571472
0.000000
450.395905
0.000000
854.128357
0.000000
176.233444
0.000000
0.000000
0.000000
0.000000
0.000000
2226.079834
1268.223755
422.771942
0.000000
0.000000
745.633545
0.000000
0.000000
0.000000
0.000000
37.132080
0.000000
0.000000
0.000000
506.165466
0.000000
0.000000
250.768188
0.000000
0.000000
0.000000
0.000000
0.000000
0.000000
2197.656494
647.241882
0.000000
0.000000
0.000000
0.000000
0.000000
852.711304
2072.465576
0.000000
0.000000
0.000000
50.248524
0.000000
0.000000
0.000000
0.000000
0.000000
0.000000
0.000000
0.000000
0.000000
0.000000
0.000000
1505.864502
1020.899170
0.000000
0.000000
435.095062
4100.319336
187.701035
0.000000
1580.122925
0.000000
0.000000
1740.271240
1084.085449
1175.955200
0.000000
0.000000
0.000000
0.000000
0.000000
0.000000
0.000000
0.000000
0.000000
0.000000
658.565369
0.000000
0.000000
1446.957153
1603.670654
1796.895142
0.000000
0.000000
702.865479
0.000000
1486.410645
0.000000
0.000000
0.000000
0.000000
939.609680
0.000000
20.288931
0.000000
0.000000
55.259960
0.000000
0.000000
0.000000
1771.562256
867.645996
0.000000
694.640259
0.000000
0.000000
0.000000
0.000000
1466.721313
0.000000
0.000000
279.846527
0.000000
446.156250
1159.481934
1587.624512
2046.180786
151.435226
0.000000
0.000000
814.242676
0.000000
0.000000
0.000000
1438.552734
951.091064
0.000000
0.000000
920.879150
0.000000
0.000000
0.000000
2915.930664
0.000000
0.000000
2208.594482
0.000000
0.000000
0.000000
1496.293945
1558.081543
0.000000
1894.306152
0.000000
0.000000
0.000000
0.000000
0.000000
2112.775146
1819.459961
0.000000
0.000000
0.000000
0.000000
0.000000
0.000000
0.000000
0.000000
0.000000
0.000000
0.000000
1155.013550
0.000000
0.000000
0.000000
0.000000
0.000000
0.000000
504.744934
1644.685791
0.000000
0.000000
1648.111450
1121.727417
827.584900
0.000000
0.000000
0.000000
0.000000
0.000000
0.000000
0.000000
0.000000
0.000000
0.000000
0.000000
0.000000
0.000000
0.000000
0.000000
0.000000
0.000000
0.000000
1354.435303
0.000000
0.000000
0.000000
378.828644
0.000000
0.000000
0.000000
0.000000
0.000000
0.000000
0.000000
0.000000
0.000000
0.000000
0.000000
0.000000
0.000000
0.000000
0.000000
0.000000
0.000000
227.858490
0.000000
644.265259
0.000000
0.000000
0.000000
0.000000
0.000000
0.000000
538.779480
0.000000
0.000000
0.000000
614.656860
574.950623
0.000000
0.000000
569.205383
2400.019043
0.000000
0.000000
228.407379
413.976196
0.000000
0.000000
336.049164
0.000000
0.000000
0.000000
131.107544
0.000000
0.000000
0.000000
754.172607
1176.731812
0.000000
0.000000
0.000000
0.000000
0.000000
0.000000
0.000000
0.000000
0.000000
0.000000
10.678703
369.399170
0.000000
0.000000
98.181366
0.000000
0.000000
0.000000
0.000000
0.000000
0.000000
0.000000
1110.925903
1468.019287
0.000000
0.000000
987.930237
1513.564087
0.000000
0.000000
0.000000
0.000000
0.000000
0.000000
0.000000
0.000000
0.000000
0.000000
874.719604
110.886002
0.000000
0.000000
598.370178
0.000000
0.000000
0.000000
675.885132
0.000000
0.000000
0.000000
1068.964966
742.498962
0.000000
0.000000
1738.947388
3422.713135
0.000000
0.000000
541.763245
1577.669189
0.000000
0.000000
1787.509033
864.629333
0.000000
0.000000
167.055069
0.000000
0.000000
0.000000
637.290466
0.000000
0.000000
0.000000
623.834106
1735.628296
0.000000
0.000000
1164.058594
1334.039062
0.000000
0.000000
2045.547119
1634.523315
0.000000
0.000000
2387.182861
1627.852539
0.000000
0.000000
2266.554932
2187.031250
2336.390137
564.691101
1911.774048
1143.913696
2000.045654
398.327972
884.110168
1129.866211
0.000000
0.000000
0.000000
0.000000
0.000000
0.000000
0.000000
0.000000
0.000000
0.000000
0.000000
0.000000
0.000000
0.000000
0.000000
0.000000
0.000000
0.000000
2378.816895
2461.263672
3464.227539
2932.989990
3257.551758
1472.402588
2445.231934
1976.137207
2171.632324
2322.063721
598.457703
0.000000
0.000000
0.000000
0.000000
0.000000
0.000000
0.000000
0.000000
0.000000
0.000000
0.000000
0.000000
0.000000
0.000000
0.000000
0.000000
0.000000
0.000000
0.000000
0.000000
0.000000
0.000000
0.000000
0.000000
0.000000
0.000000
0.000000
0.000000
0.000000
0.000000
0.000000
0.000000
0.000000
0.000000
0.000000
0.000000
0.000000
0.000000
0.000000
0.000000
0.000000
0.000000
0.000000
0.000000
0.000000
0.000000
0.000000
0.000000
0.000000
0.000000
0.000000
0.000000
0.000000
0.000000
0.000000
0.000000
0.000000
0.000000
0.000000
0.000000
0.000000
0.000000
0.000000
0.000000
0.000000
0.000000
0.000000
0.000000
0.000000
0.000000
0.000000
</DataArray>
</PointData>
<Cells>
<DataArray type='Int32' Name='connectivity' format='ascii'>
0
1
2
3
4
5
6
7
8
9
10
11
12
13
14
15
16
17
18
19
20
21
22
23
24
25
26
27
28
29
30
31
32
33
34
35
36
37
38
39
40
41
42
43
44
45
46
47
48
49
50
51
52
53
54
55
56
57
58
59
60
61
62
63
64
65
66
67
68
69
70
71
72
73
74
75
76
77
78
79
80
81
82
83
84
85
86
87
88
89
90
91
92
93
94
95
96
97
98
99
100
101
102
103
104
105
106
107
108
109
110
111
112
113
114
115
116
117
118
119
120
121
122
123
124
125
126
127
128
129
130
131
132
133
134
135
136
137
138
139
140
141
142
143
144
145
146
147
148
149
150
151
152
153
154
155
156
157
158
159
160
161
162
163
164
165
166
167
168
169
170
171
172
173
174
175
176
177
178
179
180
181
182
183
184
185
186
187
188
189
190
191
192
193
194
195
196
197
198
199
200
201
202
203
204
205
206
207
208
209
210
211
212
213
214
215
216
217
218
219
220
221
222
223
224
225
226
227
228
229
230
231
232
233
234
235
236
237
238
239
240
241
242
243
244
245
246
247
248
249
250
251
252
253
254
255
256
257
258
259
260
261
262
263
264
265
266
267
268
269
270
271
272
273
274
275
276
277
278
279
280
281
282
283
284
285
286
287
288
289
290
291
292
293
294
295
296
297
298
299
300
301
302
303
304
305
306
307
308
309
310
311
312
313
314
315
316
317
318
319
320
321
322
323
324
325
326
327
328
329
330
331
332
333
334
335
336
337
338
339
340
341
342
343
344
345
346
347