<?xml version='1.0' encoding='UTF-8'?>
<VTKFile xmlns='VTK' byte_order='LittleEndian' version='0.1' type='UnstructuredGrid'>
<UnstructuredGrid>
<Piece NumberOfCells='1344' NumberOfPoints='1344'>
<Points>
<DataArray NumberOfComponents='3' type='Float32' Name='Position' format='ascii'>
-0.075000 -0.075000 0.000000
-0.075000 -0.050000 0.000000
-0.075000 -0.025000 0.000000
-0.075000 0.000000 0.000000
-0.075000 0.025000 0.000000
-0.075000 0.050000 0.000000
-0.075000 0.075000 0.000000
-0.075000 0.100000 0.000000
-0.075000 0.125000 0.000000
-0.075000 0.150000 0.000000
-0.075000 0.175000 0.000000
-0.075000 0.200000 0.000000
-0.075000 0.225000 0.000000
-0.075000 0.250000 0.000000
-0.075000 0.275000 0.000000
-0.075000 0.300000 0.000000
-0.075000 0.325000 0.000000
-0.075000 0.350000 0.000000
-0.075000 0.375000 0.000000
-0.075000 0.400000 0.000000
-0.075000 0.425000 0.000000
-0.075000 0.450000 0.000000
-0.075000 0.475000 0.000000
-0.075000 0.500000 0.000000
-0.075000 0.525000 0.000000
-0.075000 0.550000 0.000000
-0.075000 0.575000 0.000000
-0.075000 0.600000 0.000000
-0.050000 -0.075000 0.000000
-0.050000 -0.050000 0.000000
-0.050000 -0.025000 0.000000
-0.050000 0.000000 0.000000
-0.050000 0.025000 0.000000
-0.050000 0.050000 0.000000
-0.050000 0.075000 0.000000
-0.050000 0.100000 0.000000
-0.050000 0.125000 0.000000
-0.050000 0.150000 0.000000
-0.050000 0.175000 0.000000
-0.050000 0.200000 0.000000
-0.050000 0.225000 0.000000
-0.050000 0.250000 0.000000
-0.050000 0.275000 0.000000
-0.050000 0.300000 0.000000
-0.050000 0.325000 0.000000
-0.050000 0.350000 0.000000
-0.050000 0.375000 0.000000
-0.050000 0.400000 0.000000
-0.050000 0.425000 0.000000
-0.050000 0.450000 0.000000
-0.050000 0.475000 0.000000
-0.050000 0.500000 0.000000
-0.050000 0.525000 0.000000
-0.050000 0.550000 0.000000
-0.050000 0.575000 0.000000
-0.050000 0.600000 0.000000
-0.025000 -0.075000 0.000000
-0.025000 -0.050000 0.000000
-0.025000 -0.025000 0.000000
-0.025000 0.000000 0.000000
-0.025000 0.025000 0.000000
-0.025000 0.050000 0.000000
-0.025000 0.075000 0.000000
-0.025000 0.100000 0.000000
-0.025000 0.125000 0.000000
-0.025000 0.150000 0.000000
-0.025000 0.175000 0.000000
-0.025000 0.200000 0.000000
-0.025000 0.225000 0.000000
-0.025000 0.250000 0.000000
-0.025000 0.275000 0.000000
-0.025000 0.300000 0.000000
-0.025000 0.325000 0.000000
-0.025000 0.350000 0.000000
-0.025000 0.375000 0.000000
-0.025000 0.400000 0.000000
-0.025000 0.425000 0.000000
-0.025000 0.450000 0.000000
-0.025000 0.475000 0.000000
-0.025000 0.500000 0.000000
-0.025000 0.525000 0.000000
-0.025000 0.550000 0.000000
-0.025000 0.575000 0.000000
-0.025000 0.600000 0.000000
0.000000 -0.075000 0.000000
0.000000 -0.050000 0.000000
0.000000 -0.025000 0.000000
0.000000 0.000000 0.000000
0.000000 0.025000 0.000000
0.000000 0.050000 0.000000
0.000000 0.075000 0.000000
0.000000 0.100000 0.000000
0.000000 0.125000 0.000000
0.000000 0.150000 0.000000
0.000000 0.175000 0.000000
0.000000 0.200000 0.000000
0.000000 0.225000 0.000000
0.000000 0.250000 0.000000
0.000000 0.275000 0.000000
0.000000 0.300000 0.000000
0.000000 0.325000 0.000000
0.000000 0.350000 0.000000
0.000000 0.375000 0.000000
0.000000 0.400000 0.000000
0.000000 0.425000 0.000000
0.000000 0.450000 0.000000
0.000000 0.475000 0.000000
0.000000 0.500000 0.000000
0.000000 0.525000 0.000000
0.000000 0.550000 0.000000
0.000000 0.575000 0.000000
0.000000 0.600000 0.000000
0.025000 -0.075000 0.000000
0.025000 -0.050000 0.000000
0.025000 -0.025000 0.000000
0.025000 0.000000 0.000000
0.043146 0.022386 0.000000
0.067619 0.027716 0.000000
0.022338 0.032254 0.000000
0.027640 0.112556 0.000000
0.048635 0.182210 0.000000
0.072385 0.276226 0.000000
0.021432 0.188954 0.000000
0.046473 0.227821 0.000000
0.024872 0.240185 0.000000
0.025428 0.263741 0.000000
0.031840 0.371925 0.000000
0.024090 0.415923 0.000000
0.022903 0.456077 0.000000
0.025059 0.480310 0.000000
0.028059 0.502840 0.000000
0.024412 0.552566 0.000000
0.049593 0.574801 0.000000
0.075291 0.577242 0.000000
0.101681 0.577276 0.000000
0.055654 0.600000 0.000000
0.037414 0.600000 0.000000
0.014954 0.600000 0.000000
0.153220 0.600000 0.000000
0.172903 0.600000 0.000000
0.050000 -0.075000 0.000000
0.050000 -0.050000 0.000000
0.050000 -0.025000 0.000000
0.050000 0.000000 0.000000
0.091794 0.023153 0.000000
0.085993 0.046484 0.000000
0.028295 0.056002 0.000000
0.021945 0.081214 0.000000
0.024889 0.135264 0.000000
0.025228 0.159301 0.000000
0.066177 0.249840 0.000000
0.048767 0.264510 0.000000
0.025933 0.289662 0.000000
0.048447 0.348378 0.000000
0.024361 0.350046 0.000000
0.024048 0.392932 0.000000
0.036527 0.435759 0.000000
0.049398 0.465994 0.000000
0.055365 0.489836 0.000000
0.023514 0.525635 0.000000
0.045556 0.542188 0.000000
0.100408 0.528605 0.000000
0.025837 0.578781 0.000000
0.095089 0.600000 0.000000
0.114408 0.600000 0.000000
0.075309 0.600000 0.000000
0.184862 0.580270 0.000000
0.193028 0.600000 0.000000
0.075000 -0.075000 0.000000
0.075000 -0.050000 0.000000
0.075000 -0.025000 0.000000
0.075000 0.000000 0.000000
0.118296 0.049501 0.000000
0.056355 0.050435 0.000000
0.049068 0.071226 0.000000
0.048983 0.123623 0.000000
0.074738 0.224222 0.000000
0.052625 0.204759 0.000000
0.121920 0.245354 0.000000
0.026841 0.214501 0.000000
0.046086 0.294594 0.000000
0.021816 0.318058 0.000000
0.081858 0.345717 0.000000
0.068397 0.327450 0.000000
0.052936 0.394044 0.000000
0.054603 0.422497 0.000000
0.063188 0.444806 0.000000
0.074894 0.473081 0.000000
0.127973 0.531428 0.000000
0.117369 0.552898 0.000000
0.067607 0.551938 0.000000
0.092349 0.551184 0.000000
0.128513 0.577585 0.000000
0.133758 0.600000 0.000000
0.212847 0.600000 0.000000
0.232444 0.600000 0.000000
0.100000 -0.075000 0.000000
0.100000 -0.050000 0.000000
0.100000 -0.025000 0.000000
0.100000 0.000000 0.000000
0.134269 0.077600 0.000000
0.068014 0.130784 0.000000
0.070364 0.168508 0.000000
0.043191 0.094640 0.000000
0.078354 0.200695 0.000000
0.046946 0.159943 0.000000
0.092474 0.287650 0.000000
0.107033 0.267981 0.000000
0.089981 0.250084 0.000000
0.043333 0.323606 0.000000
0.080883 0.377467 0.000000
0.060351 0.368195 0.000000
0.084327 0.430071 0.000000
0.091342 0.457086 0.000000
0.099102 0.483915 0.000000
0.077112 0.501942 0.000000
0.051764 0.516714 0.000000
0.072442 0.526490 0.000000
0.157603 0.532161 0.000000
0.181946 0.533573 0.000000
0.143123 0.551770 0.000000
0.155366 0.576720 0.000000
0.244170 0.577988 0.000000
0.251071 0.600000 0.000000
0.125000 -0.075000 0.000000
0.125000 -0.050000 0.000000
0.125000 -0.025000 0.000000
0.125000 0.000000 0.000000
0.118826 0.100097 0.000000
0.104132 0.066541 0.000000
0.082656 0.150394 0.000000
0.137003 0.226473 0.000000
0.101214 0.229486 0.000000
0.157857 0.211104 0.000000
0.139575 0.261461 0.000000
0.091250 0.317197 0.000000
0.069889 0.300420 0.000000
0.100452 0.362023 0.000000
0.097238 0.405402 0.000000
0.072544 0.403103 0.000000
0.132340 0.436453 0.000000
0.114968 0.456231 0.000000
0.151772 0.456776 0.000000
0.125728 0.477276 0.000000
0.104518 0.506405 0.000000
0.128352 0.504281 0.000000
0.149773 0.509650 0.000000
0.197849 0.556542 0.000000
0.215148 0.577584 0.000000
0.171205 0.557083 0.000000
0.272562 0.577020 0.000000
0.271009 0.600000 0.000000
0.150000 -0.075000 0.000000
0.150000 -0.050000 0.000000
0.150000 -0.025000 0.000000
0.150000 0.000000 0.000000
0.119721 0.026028 0.000000
0.144649 0.101145 0.000000
0.096388 0.087496 0.000000
0.076190 0.071011 0.000000
0.094636 0.184270 0.000000
0.103723 0.207042 0.000000
0.129051 0.202062 0.000000
0.156226 0.239931 0.000000
0.126253 0.282996 0.000000
0.113032 0.305563 0.000000
0.142411 0.340467 0.000000
0.107211 0.429654 0.000000
0.110899 0.387072 0.000000
0.128412 0.411680 0.000000
0.134222 0.388749 0.000000
0.154986 0.428521 0.000000
0.176674 0.470701 0.000000
0.147973 0.477715 0.000000
0.188195 0.510514 0.000000
0.213108 0.513488 0.000000
0.211227 0.536488 0.000000
0.228071 0.555699 0.000000
0.290433 0.600000 0.000000
0.309742 0.600000 0.000000
0.175000 -0.075000 0.000000
0.175000 -0.050000 0.000000
0.175000 -0.025000 0.000000
0.175000 0.000000 0.000000
0.142709 0.023816 0.000000
0.159007 0.081635 0.000000
0.119339 0.121592 0.000000
0.083857 0.114393 0.000000
0.102613 0.135393 0.000000
0.106025 0.162573 0.000000
0.153682 0.182162 0.000000
0.157508 0.156097 0.000000
0.173290 0.194102 0.000000
0.179263 0.224536 0.000000
0.161563 0.266402 0.000000
0.108125 0.340157 0.000000
0.149344 0.368460 0.000000
0.190551 0.392149 0.000000
0.157374 0.406102 0.000000
0.176028 0.444978 0.000000
0.224517 0.463146 0.000000
0.200620 0.458574 0.000000
0.170011 0.495076 0.000000
0.197168 0.486473 0.000000
0.238862 0.509567 0.000000
0.241484 0.533474 0.000000
0.329179 0.575555 0.000000
0.328950 0.600000 0.000000
0.200000 -0.075000 0.000000
0.200000 -0.050000 0.000000
0.200000 -0.025000 0.000000
0.200000 0.000000 0.000000
0.160345 0.037807 0.000000
0.141534 0.055201 0.000000
0.190702 0.108250 0.000000
0.073170 0.096437 0.000000
0.172688 0.135377 0.000000
0.128359 0.181041 0.000000
0.257384 0.129887 0.000000
0.262640 0.107281 0.000000
0.178252 0.167068 0.000000
0.184888 0.248039 0.000000
0.168805 0.291373 0.000000
0.145022 0.298208 0.000000
0.127713 0.322514 0.000000
0.157322 0.317555 0.000000
0.127865 0.361112 0.000000
0.181281 0.417904 0.000000
0.201768 0.434039 0.000000
0.221910 0.488421 0.000000
0.261225 0.501313 0.000000
0.282557 0.510333 0.000000
0.266029 0.529661 0.000000
0.257264 0.553936 0.000000
0.357699 0.577320 0.000000
0.347936 0.600000 0.000000
0.225000 -0.075000 0.000000
0.225000 -0.050000 0.000000
0.225000 -0.025000 0.000000
0.225000 0.000000 0.000000
0.182106 0.022814 0.000000
0.171889 0.061910 0.000000
0.140164 0.135752 0.000000
0.128838 0.156717 0.000000
0.204055 0.076850 0.000000
0.219108 0.097750 0.000000
0.243008 0.151600 0.000000
0.198536 0.130642 0.000000
0.195421 0.154890 0.000000
0.208200 0.183858 0.000000
0.187630 0.271679 0.000000
0.192231 0.332868 0.000000
0.168032 0.342037 0.000000
0.180485 0.360600 0.000000
0.169459 0.383809 0.000000
[...]
<PointData>
<DataArray NumberOfComponents='1' type='Int32' Name='ParticleType' format='ascii'>
3
3
3
3
3
3
3
3
3
3
3
3
3
3
3
3
3
3
3
3
3
3
3
3
3
3
3
3
3
3
3
3
3
3
3
3
3
3
3
3
3
3
3
3
3
3
3
3
3
3
3
3
3
3
3
3
3
3
2
2
2
2
2
2
2
2
2
2
2
2
2
2
2
2
2
2
2
2
2
2
2
2
2
2
3
3
2
2
2
2
2
2
2
2
2
2
2
2
2
2
2
2
2
2
2
2
2
2
2
2
2
2
3
3
2
2
0
0
0
0
0
0
0
0
0
0
0
0
0
0
0
0
0
0
0
0
0
0
0
0
3
3
2
2
0
0
0
0
0
0
0
0
0
0
0
0
0
0
0
0
0
0
0
0
0
0
0
0
3
3
2
2
0
0
0
0
0
0
0
0
0
0
0
0
0
0
0
0
0
0
0
0
0
0
0
0
3
3
2
2
0
0
0
0
0
0
0
0
0
0
0
0
0
0
0
0
0
0
0
0
0
0
0
0
3
3
2
2
0
0
0
0
0
0
0
0
0
0
0
0
0
0
0
0
0
0
0
0
0
0
0
0
3
3
2
2
0
0
0
0
0
0
0
0
0
0
0
0
0
0
0
0
0
0
0
0
0
0
0
0
3
3
2
2
0
0
0
0
0
0
0
0
0
0
0
0
0
0
0
0
0
0
0
0
0
0
0
0
3
3
2
2
0
0
0
0
0
0
0
0
0
0
0
0
0
0
0
0
0
0
0
0
0
0
0
0
3
3
2
2
0
0
0
0
0
0
0
0
0
0
0
0
0
0
0
0
0
0
0
0
0
0
0
0
3
3
2
2
0
0
0
0
0
0
0
0
0
0
0
0
0
0
0
0
0
0
0
0
0
0
0
0
3
3
2
2
0
0
0
0
0
0
0
0
0
0
0
0
0
0
0
0
0
0
0
0
0
0
0
0
3
3
2
2
0
0
0
0
0
0
0
0
0
0
0
0
0
0
0
0
0
0
0
0
0
0
0
0
3
3
2
2
0
0
0
0
0
0
0
0
0
0
0
0
0
0
0
0
0
0
0
0
0
0
0
0
3
3
2
2
0
0
0
0
0
0
0
0
0
0
0
0
0
0
0
0
0
0
0
0
0
0
0
0
3
3
2
2
0
0
0
0
0
0
0
0
0
0
0
0
0
0
0
0
0
0
0
0
0
0
0
0
3
3
2
2
0
0
0
0
0
0
0
0
0
0
0
0
0
0
0
0
0
0
0
0
0
0
0
0
3
3
2
2
0
0
0
0
0
0
0
0
0
0
0
0
0
0
0
0
0
0
0
0
0
0
0
0
3
3
2
2
0
0
0
0
0
0
0
0
0
0
0
0
0
0
0
0
0
0
0
0
0
0
0
0
3
3
2
2
0
0
0
0
0
0
0
0
0
0
0
0
0
0
0
0
0
0
0
0
0
0
0
0
3
3
2
2
0
0
0
0
0
0
0
0
0
0
0
0
0
0
0
0
0
0
0
0
0
0
0
0
3
3
2
2
0
0
0
0
0
0
0
0
0
0
0
0
0
0
0
0
0
0
0
0
0
0
0
0
3
3
2
2
0
0
0
0
0
0
0
0
0
0
0
0
0
0
0
0
0
0
0
0
0
0
0
0
3
3
2
2
0
0
0
0
0
0
0
0
0
0
0
0
0
0
0
0
0
0
0
0
0
0
0
0
3
3
2
2
0
0
0
0
0
0
0
0
0
0
0
0
0
0
0
0
0
0
0
0
0
0
0
0
3
3
2
2
0
0
0
0
0
0
0
0
0
0
0
0
0
0
0
0
0
0
0
0
0
0
0
0
3
3
2
2
0
0
0
0
0
0
0
0
0
0
0
0
0
0
0
0
0
0
0
0
0
0
0
0
3
3
2
2
0
0
0
0
0
0
0
0
0
0
0
0
0
0
0
0
0
0
0
0
0
0
0
0
3
3
2
2
0
0
0
0
0
0
0
0
0
0
0
0
0
0
0
0
0
0
0
0
0
0
0
0
3
3
2
2
0
0
0
0
0
0
0
0
0
0
0
0
0
0
0
0
0
0
0
0
0
0
0
0
3
3
2
2
0
0
0
0
0
0
0
0
0
0
0
0
0
0
0
0
0
0
0
0
0
0
0
0
3
3
2
2
0
0
0
0
0
0
0
0
0
0
0
0
0
0
0
0
0
0
0
0
0
0
0
0
3
3
2
2
0
0
0
0
0
0
0
0
0
0
0
0
0
0
0
0
0
0
0
0
0
0
0
0
3
3
2
2
0
0
0
0
0
0
0
0
0
0
0
0
0
0
0
0
0
0
0
0
0
0
0
0
3
3
2
2
0
0
0
0
0
0
0
0
0
0
0
0
0
0
0
0
0
0
0
0
0
0
0
0
3
3
2
2
0
0
0
0
0
0
0
0
0
0
0
0
0
0
0
0
0
0
0
0
0
0
0
0
3
3
2
2
0
0
0
0
0
0
0
0
0
0
0
0
0
0
0
0
0
0
0
0
0
0
0
0
3
3
2
2
0
0
0
0
0
0
0
0
0
0
0
0
0
0
0
0
0
0
0
0
0
0
0
0
3
3
2
2
0
0
0
0
0
0
0
0
0
0
0
0
0
0
0
0
0
0
0
0
0
0
0
0
3
3
2
2
0
0
0
0
0
0
0
0
0
0
0
0
0
0
0
0
0
0
0
0
0
0
0
0
3
3
2
2
0
0
0
0
0
0
0
0
0
0
0
0
0
0
0
0
0
0
0
0
0
0
0
0
3
3
2
2
2
2
2
2
2
2
2
2
2
2
2
2
2
2
2
2
2
2
2
2
2
2
2
2
3
3
2
2
2
2
2
2
2
2
2
2
2
2
2
2
2
2
2
2
2
2
2
2
2
2
2
2
3
3
3
3
3
3
3
3
3
3
3
3
3
3
3
3
3
3
3
3
3
3
3
3
3
3
3
3
3
3
3
3
3
3
3
3
3
3
3
3
3
3
3
3
3
3
3
3
3
3
3
3
3
3
3
3
</DataArray>
<DataArray NumberOfComponents='1' type='Float32' Name='Velocity' format='ascii'>
0.000000
0.000000
0.000000
0.000000
0.000000
0.000000
0.000000
0.000000
0.000000
0.000000
0.000000
0.000000
0.000000
0.000000
0.000000
0.000000
0.000000
0.000000
0.000000
0.000000
0.000000
0.000000
0.000000
0.000000
0.000000
0.000000
0.000000
0.000000
0.000000
0.000000
0.000000
0.000000
0.000000
0.000000
0.000000
0.000000
0.000000
0.000000
0.000000
0.000000
0.000000
0.000000
0.000000
0.000000
0.000000
0.000000
0.000000
0.000000
0.000000
0.000000
0.000000
0.000000
0.000000
0.000000
0.000000
0.000000
0.000000
0.000000
0.000000
0.000000
0.000000
0.000000
0.000000
0.000000
0.000000
0.000000
0.000000
0.000000
0.000000
0.000000
0.000000
0.000000
0.000000
0.000000
0.000000
0.000000
0.000000
0.000000
0.000000
0.000000
0.000000
0.000000
0.000000
0.000000
0.000000
0.000000
0.000000
0.000000
0.000000
0.000000
0.000000
0.000000
0.000000
0.000000
0.000000
0.000000
0.000000
0.000000
0.000000
0.000000
0.000000
0.000000
0.000000
0.000000
0.000000
0.000000
0.000000
0.000000
0.000000
0.000000
0.000000
0.000000
0.000000
0.000000
0.000000
0.000000
0.034577
0.212668
0.060660
0.092732
0.100588
0.176488
0.120926
0.234717
0.101671
0.255108
0.101207
0.012408
0.194447
0.288197
0.199888
0.142085
0.373562
0.100000
0.100000
0.100000
0.100000
0.100000
0.100000
0.100000
0.000000
0.000000
0.000000
0.000000
0.073441
0.114958
0.220260
0.023036
0.223172
0.439964
0.193670
0.126083
0.062595
0.187181
0.053536
0.129754
0.235250
0.168602
0.094140
0.232162
0.226201
0.401307
0.100000
0.100000
0.100000
0.100000
0.100000
0.100000
0.000000
0.000000
0.000000
0.000000
0.095900
0.272203
0.270713
0.269279
0.084101
0.097400
0.275270
0.261126
0.211494
0.065224
0.322859
0.374396
0.308507
0.307079
0.223818
0.212017
0.685135
0.208743
0.367222
0.369198
0.100000
0.100000
0.100000
0.100000
0.000000
0.000000
0.000000
0.000000
0.141826
0.269295
0.162903
0.135679
0.188362
0.030988
0.293106
0.140992
0.288359
0.159681
0.400460
0.088805
0.154431
0.549857
0.508577
0.365629
0.178973
0.393101
0.507001
0.221878
0.458551
0.100000
0.100000
0.100000
0.000000
0.000000
0.000000
0.000000
0.115107
0.069349
0.117148
0.172101
0.106620
0.046732
0.241997
0.266633
0.317119
0.313599
0.311364
0.153884
0.268877
0.243243
0.133048
0.138545
0.335690
0.327636
0.211752
0.041375
0.100000
0.131067
0.100000
0.100000
0.000000
0.000000
0.000000
0.000000
0.210333
0.143377
0.086116
0.289195
0.249229
0.191379
0.231321
0.142197
0.238967
0.125279
0.114107
0.268729
0.148628
0.199082
0.035946
0.190083
0.275918
0.059784
0.235854
0.081142
0.062839
0.178292
0.100000
0.100000
0.000000
0.000000
0.000000
0.000000
0.145027
0.163820
0.090986
0.154224
0.113058
0.067600
0.066502
0.092578
0.146897
0.138899
0.333766
0.118692
0.444061
0.260557
0.287064
0.188037
0.298381
0.081397
0.085007
0.020223
0.028031
0.129339
0.100000
0.100000
0.000000
0.000000
0.000000
0.000000
0.145738
0.173649
0.237685
0.352105
0.219203
0.176736
0.286479
0.233633
0.079376
0.168089
0.124197
0.132275
0.176749
0.142728
0.273764
0.281819
0.095892
0.237339
0.219798
0.091940
0.060158
0.066842
0.100000
0.100000
0.000000
0.000000
0.000000
0.000000
0.142077
0.133617
0.071211
0.143600
0.191738
0.128058
0.101120
0.172985
0.149186
0.079845
0.044125
0.219129
0.181386
0.274001
0.127072
0.202058
0.284943
0.076016
0.059434
0.112294
0.188626
0.372085
0.100000
0.100000
0.000000
0.000000
0.000000
0.000000
0.147059
0.115396
0.086286
0.041558
0.028473
0.073869
0.033244
0.267049
0.227886
0.220177
0.176955
0.162071
0.262267
0.098750
0.051528
0.147556
0.259675
0.197797
0.117136
0.166867
0.104267
0.195474
0.100000
0.100000
0.000000
0.000000
0.000000
0.000000
0.122654
0.051741
0.273243
0.167010
0.115730
0.119175
0.321823
0.061948
0.175724
0.107419
0.251490
0.112561
0.139717
0.119050
0.136534
0.053095
0.026684
0.131448
0.304290
0.337010
0.205091
0.100000
0.100000
0.100000
0.000000
0.000000
0.000000
0.000000
0.120267
0.076410
0.052077
0.077960
0.050384
0.316140
0.084354
0.225891
0.081502
0.166874
0.120886
0.161784
0.218447
0.312838
0.076360
0.214405
0.283624
0.116549
0.142999
0.132776
0.260321
0.332342
0.301951
0.100000
0.000000
0.000000
0.000000
0.000000
0.105885
0.112456
0.163911
0.153348
0.304830
0.141858
0.167243
0.171243
0.086962
0.163854
0.251160
0.322545
0.139340
0.168080
0.220729
0.155752
0.109958
0.157693
0.373472
0.206708
0.402300
0.420301
0.100000
0.100000
0.000000
0.000000
0.000000
0.000000
0.076707
0.137837
0.090349
0.210258
0.235096
0.174991
0.124195
0.371674
0.087929
0.128315
0.355128
0.246665
0.113793
0.022205
0.094611
0.197982
0.043687
0.054442
0.092019
0.108626
0.258094
0.100000
0.330150
0.100000
0.000000
0.000000
0.000000
0.000000
0.081523
0.038172
0.128923
0.030603
0.197861
0.213272
0.252221
0.121395
0.242794
0.086123
0.136485
0.220583
0.230448
0.225772
0.099620
0.202069
0.276042
0.008888
0.236739
0.397166
0.219816
0.254044
0.100000
0.100000
0.000000
0.000000
0.000000
0.000000
0.145624
0.102591
0.081758
0.077130
0.238732
0.057775
0.072896
0.160414
0.135777
0.383321
0.377555
0.222099
0.365992
0.080779
0.063406
0.235312
0.416861
0.309551
0.356557
0.120609
0.181995
0.280728
0.100000
0.100000
0.000000
0.000000
0.000000
0.000000
0.083304
0.092500
0.169428
0.140169
0.195052
0.135094
0.071658
0.116770
0.148296
0.109175
0.124837
0.160011
0.142128
0.242895
0.259268
0.141495
0.024217
0.126528
0.130107
0.144096
0.200939
0.100000
0.209503
0.100000
0.000000
0.000000
0.000000
0.000000
0.071821
0.204583
0.038702
0.144409
0.141091
0.224033
0.116766
0.156604
0.160298
0.093664
0.198844
0.131858
0.151597
0.021483
0.080063
0.041334
0.304018
0.139351
0.184330
0.268475
0.330785
0.429914
0.113176
0.100000
0.000000
0.000000
0.000000
0.000000
0.015266
0.186204
0.132788
0.048337
0.082244
0.132542
0.287331
0.090806
0.296309
0.116335
0.136997
0.137937
0.211765
0.325676
0.035926
0.176439
0.109676
0.378883
0.309827
0.375222
0.406953
0.077167
0.285585
0.100000
0.000000
0.000000
0.000000
0.000000
0.062555
0.143932
0.125749
0.173289
0.055185
0.122294
0.211788
0.336090
0.190587
0.184570
0.123724
0.176768
0.180369
0.170947
0.099612
0.270689
0.255983
0.242375
0.057782
0.343371
0.362236
0.261737
0.100000
0.100000
0.000000
0.000000
0.000000
0.000000
0.069451
0.061209
0.113723
0.151932
0.164435
0.045574
0.180165
0.132659
0.423178
0.165442
0.026994
0.135587
0.069723
0.057456
0.025939
0.221142
0.097934
0.121026
0.189197
0.248488
0.260993
0.133521
0.268202
0.100000
0.000000
0.000000
0.000000
0.000000
0.048800
0.098669
0.115536
0.102790
0.116838
0.186761
0.279836
0.156680
0.292216
0.155501
0.096691
0.162790
0.173103
0.040438
0.114153
0.360925
0.117104
0.051968
0.084796
0.435330
0.158347
0.426007
0.373909
0.100000
0.000000
0.000000
0.000000
0.000000
0.037655
0.168695
0.204813
0.048039
0.066475
0.104442
0.121052
0.029006
0.190331
0.121050
0.161451
0.115217
0.220194
0.030702
0.301124
0.204016
0.353677
0.118139
0.217816
0.165898
0.168234
0.210490
0.238181
0.100000
0.000000
0.000000
0.000000
0.000000
0.066652
0.139309
0.236005
0.092515
0.087097
0.165385
0.056539
0.192711
0.099112
0.182092
0.067192
0.118593
0.117845
0.064021
0.055481
0.116542
0.271703
0.158955
0.140696
0.153592
0.319521
0.276457
0.637333
0.100000
0.000000
0.000000
0.000000
0.000000
0.095786
0.037901
0.091143
0.172510
0.445417
0.188862
0.142446
0.038734
0.045754
0.122132
0.228733
0.141919
0.117669
0.134348
0.251181
0.141324
0.055594
0.098926
0.247273
0.101435
0.209096
0.442297
0.295342
0.100000
0.000000
0.000000
0.000000
0.000000
0.065165
0.025312
0.113837
0.264631
0.022648
0.040485
0.281168
0.139393
0.070495
0.144024
0.129798
0.173145
0.221339
0.153299
0.047773
0.291729
0.157308
0.177812
0.100538
0.106058
0.151064
0.120365
0.100000
0.100000
0.000000
0.000000
0.000000
0.000000
0.091557
0.082815
0.128602
0.242645
0.299148
0.019956
0.131295
0.022295
0.111071
0.182809
0.080997
0.101640
0.142650
0.265091
0.106164
0.131494
0.107090
0.169027
0.293747
0.415225
0.407128
0.073905
0.252795
0.100000
0.000000
0.000000
0.000000
0.000000
0.046057
0.101382
0.335599
0.227384
0.489090
0.242672
0.347759
0.066382
0.126478
0.174555
0.202482
0.284089
0.163632
0.366109
0.118971
0.092694
0.055691
0.377166
0.158363
0.270813
0.315934
0.172349
0.583564
0.100000
0.000000
0.000000
0.000000
0.000000
0.135385
0.124032
0.212630
0.146697
0.019247
0.081554
0.041095
0.068916
0.168693
0.134446
0.079837
0.297087
0.042535
0.085353
0.116739
0.161349
0.059505
0.196816
0.299693
0.700460
0.211877
0.380460
0.100000
0.100000
0.000000
0.000000
0.000000
0.000000
0.159570
0.119786
0.269708
0.073732
0.076658
0.056541
0.184539
0.031170
0.226422
0.121162
0.363277
0.128001
0.267723
0.327270
0.069662
0.247194
0.137260
0.151823
0.404370
0.337572
0.416504
0.369230
0.409385
0.100000
0.000000
0.000000
0.000000
0.000000
0.106760
0.162587
0.097670
0.180559
0.024269
0.033786
0.257923
0.285775
0.267930
0.152424
0.226858
0.146000
0.032231
0.169800
0.295545
0.012452
0.117905
0.069457
0.261801
0.086689
0.404854
0.315311
0.132564
0.100000
0.000000
0.000000
0.000000
0.000000
0.200803
0.086658
0.132185
0.039178
0.072655
0.134713
0.150793
0.204187
0.041116
0.171782
0.047872
0.205988
0.227075
0.225864
0.185219
0.075954
0.158270
0.193031
0.150992
0.360440
0.351876
0.300060
0.392187
0.100000
0.000000
0.000000
0.000000
0.000000
0.083881
0.082340
0.030308
0.153446
0.097290
0.060199
0.320443
0.122253
0.038152
0.083588
0.232754
0.345975
0.229488
0.149341
0.192034
0.084693
0.076854
0.167392
0.090522
0.099918
0.232481
0.584841
0.274840
0.100000
0.000000
0.000000
0.000000
0.000000
0.173162
0.076817
0.142623
0.301213
0.251360
0.158004
0.110921
0.051325
0.044679
0.112094
0.343010
0.146608
0.110670
0.346273
0.157069
0.212917
0.150303
0.129947
0.202940
0.289850
0.328810
0.399079
0.184935
0.100000
0.000000
0.000000
0.000000
0.000000
0.118497
0.224319
0.059295
0.078032
0.166238
0.060248
0.231405
0.062690
0.160283
0.315912
0.095679
0.413220
0.173473
0.052427
0.197476
0.108574
0.385823
0.144125
0.198966
0.055449
0.420137
0.339186
0.286371
0.100000
0.000000
0.000000
0.000000
0.000000
0.050874
0.120956
0.166857
0.102786
0.086734
0.381925
0.122506
0.142463
0.166688
0.151689
0.078086
0.211312
0.074332
0.117832
0.137718
0.153294
0.299625
0.223916
0.144775
0.178866
0.061730
0.207766
0.401789
0.100000
0.000000
0.000000
0.000000
0.000000
0.067991
0.075811
0.215718
0.070293
0.210771
0.141381
0.235575
0.072193
0.189812
0.031542
0.152300
0.075993
0.244423
0.077250
0.060028
0.134456
0.290093
0.318737
0.302862
0.196514
0.053281
0.458045
0.091445
0.100000
0.000000
0.000000
0.000000
0.000000
0.202157
0.040213
0.131615
0.217928
0.158959
0.075314
0.163804
0.180753
0.011943
0.222486
0.115016
0.094234
0.130638
0.119141
0.197197
0.262131
0.081558
0.428020
0.305057
0.476526
0.121397
0.321910
0.181855
0.100000
0.000000
0.000000
0.000000
0.000000
0.057851
0.380578
0.156105
0.197554
0.154053
0.147055
0.119990
0.233268
0.169936
0.122791
0.088876
0.087956
0.133397
0.274226
0.152449
0.178866
0.127601
0.392466
0.170177
0.286975
0.102530
0.045021
0.680827
0.100000
0.000000
0.000000
0.000000
0.000000
0.109596
0.213605
0.164598
0.116773
0.082764
0.053794
0.127968
0.270880
0.203898
0.091934
0.203175
0.029009
0.114864
0.220539
0.115437
0.093392
0.160062
0.311366
0.258621
0.167532
0.218373
0.388473
0.373748
0.100000
0.000000
0.000000
0.000000
0.000000
0.000000
0.000000
0.000000
0.000000
0.000000
0.000000
0.000000
0.000000
0.000000
0.000000
0.000000
0.000000
0.000000
0.000000
0.000000
0.000000
0.000000
0.000000
0.000000
0.000000
0.000000
0.000000
0.000000
0.000000
0.000000
0.000000
0.000000
0.000000
0.000000
0.000000
0.000000
0.000000
0.000000
0.000000
0.000000
0.000000
0.000000
0.000000
0.000000
0.000000
0.000000
0.000000
0.000000
0.000000
0.000000
0.000000
0.000000
0.000000
0.000000
0.000000
0.000000
0.000000
0.000000
0.000000
0.000000
0.000000
0.000000
0.000000
0.000000
0.000000
0.000000
0.000000
0.000000
0.000000
0.000000
0.000000
0.000000
0.000000
0.000000
0.000000
0.000000
0.000000
0.000000
0.000000
0.000000
0.000000
0.000000
0.000000
0.000000
0.000000
0.000000
0.000000
0.000000
0.000000
0.000000
0.000000
0.000000
0.000000
0.000000
0.000000
0.000000
0.000000
0.000000
0.000000
0.000000
0.000000
0.000000
0.000000
0.000000
0.000000
0.000000
0.000000
0.000000
0.000000
0.000000
0.000000
0.000000
0.000000
</DataArray>
<DataArray NumberOfComponents='1' type='Float32' Name='pressure' format='ascii'>
0.000000
0.000000
0.000000
0.000000
0.000000
0.000000
0.000000
0.000000
0.000000
0.000000
0.000000
0.000000
0.000000
0.000000
0.000000
0.000000
0.000000
0.000000
0.000000
0.000000
0.000000
0.000000
0.000000
0.000000
0.000000
0.000000
0.000000
0.000000
0.000000
0.000000
0.000000
0.000000
0.000000
0.000000
0.000000
0.000000
0.000000
0.000000
0.000000
0.000000
0.000000
0.000000
0.000000
0.000000
0.000000
0.000000
0.000000
0.000000
0.000000
0.000000
0.000000
0.000000
0.000000
0.000000
0.000000
0.000000
0.000000
0.000000
23385.585938
23574.210938
24548.734375
23766.619141
24638.810547
23181.701172
23017.869141
23468.162109
24470.937500
24675.921875
23062.476562
23393.244141
23337.246094
24452.074219
25579.861328
24874.839844
24219.457031
25962.451172
26301.542969
27252.974609
26853.892578
25490.355469
26062.609375
24033.113281
21371.701172
0.000000
0.000000
0.000000
23355.046875
22698.183594
24504.921875
23157.134766
24862.890625
21715.080078
22629.734375
24166.654297
24408.652344
23804.406250
23835.742188
23675.037109
23320.941406
24281.078125
25486.267578
23808.406250
23511.308594
26168.580078
25840.419922
27081.726562
27454.439453
25894.150391
27041.291016
25172.751953
27450.691406
19448.873047
0.000000
0.000000
23323.472656
21878.189453
24299.058594
23931.955078
24608.726562
24008.085938
23693.714844
23715.736328
23271.363281
24041.341797
23759.617188
24298.798828
24544.220703
25947.609375
27016.970703
26832.464844
26664.345703
23361.222656
20551.439453
21623.564453
21929.005859
0.000000
0.000000
24477.152344
21185.621094
28855.673828
0.000000
0.000000
24661.404297
24933.390625
24114.228516
23439.408203
23082.343750
23605.029297
23597.978516
23575.017578
22939.775391
23293.769531
24487.914062
23723.068359
24015.451172
26330.576172
26336.224609
24730.574219
25512.960938
26132.390625
23460.773438
26267.046875
27320.281250
0.000000
0.000000
8443.570312
37217.296875
29736.484375
0.000000
0.000000
23854.769531
24214.796875
23584.912109
23722.509766
23949.595703
22577.992188
22467.673828
23969.423828
22996.839844
22949.710938
24163.076172
24613.771484
23723.166016
24343.951172
23267.412109
24928.091797
24397.857422
25102.861328
26694.251953
24464.359375
21153.039062
22119.457031
25539.380859
0.000000
21232.736328
0.000000
0.000000
0.000000
24465.417969
24183.302734
23113.046875
23819.746094
22246.800781
23604.843750
23288.525391
23007.134766
24177.289062
22882.242188
23725.923828
23969.320312
22951.619141
25299.017578
24714.482422
25503.763672
24918.259766
24585.410156
24911.779297
24190.228516
27863.244141
26361.966797
26967.589844
32060.431641
20500.085938
0.000000
0.000000
0.000000
23778.761719
23777.582031
22856.119141
23907.128906
23938.263672
22526.833984
23769.863281
23133.802734
23029.865234
22893.138672
24065.144531
24849.955078
23759.574219
25520.710938
24573.746094
24787.806641
23293.734375
25531.310547
27424.121094
27371.701172
26089.734375
26844.562500
29009.394531
28612.496094
18812.066406
9559.340820
0.000000
0.000000
24210.564453
23581.433594
23820.226562
23647.394531
23402.455078
23955.470703
23477.253906
22977.197266
22431.513672
22823.832031
22507.169922
23314.451172
23162.691406
24082.414062
23693.460938
23234.216797
24076.203125
24275.667969
24317.730469
26298.357422
25529.128906
23432.597656
23279.480469
20738.412109
10456.916992
10888.003906
0.000000
0.000000
24634.142578
24001.416016
23787.091797
22626.275391
23209.425781
23583.267578
22391.099609
22646.320312
22164.156250
23257.156250
22248.337891
22560.656250
22600.546875
22868.863281
22596.730469
23335.857422
22454.025391
23233.517578
21857.750000
22609.683594
25588.484375
22547.482422
22112.353516
20454.451172
16445.642578
11236.049805
0.000000
0.000000
24163.875000
23795.828125
23216.933594
23498.058594
22598.015625
23035.136719
22275.464844
23052.734375
22132.533203
22475.007812
22485.166016
21706.259766
22511.447266
22989.816406
23992.648438
22554.802734
22910.693359
21265.763672
22585.658203
22365.074219
20209.632812
19018.146484
18586.470703
16136.652344
15420.589844
10436.888672
0.000000
0.000000
24893.638672
24422.597656
23604.626953
23464.025391
22989.273438
23115.228516
22637.580078
21890.892578
22163.421875
23257.998047
22613.548828
22583.822266
23171.072266
21893.312500
23452.281250
22143.917969
23151.853516
21777.468750
20272.333984
20652.841797
18806.263672
17071.382812
14797.713867
14991.701172
12888.793945
9056.810547
0.000000
0.000000
24507.035156
22806.832031
22848.265625
23387.947266
23212.912109
22650.388672
22962.005859
22489.316406
21975.699219
22311.416016
21505.636719
21796.308594
22249.400391
22567.542969
20833.287109
21997.005859
21749.585938
20484.634766
19714.835938
18669.480469
13960.455078
16392.537109
14579.911133
16326.967773
8050.604492
8041.426270
0.000000
0.000000
24113.515625
23534.052734
23572.021484
22683.316406
23561.597656
23115.914062
22204.542969
23026.835938
22008.871094
21917.337891
22106.164062
21587.472656
21432.662109