<?xml version='1.0' encoding='UTF-8'?>
<VTKFile xmlns='VTK' byte_order='LittleEndian' version='0.1' type='UnstructuredGrid'>
<UnstructuredGrid>
<Piece NumberOfCells='1344' NumberOfPoints='1344'>
<Points>
<DataArray NumberOfComponents='3' type='Float32' Name='Position' format='ascii'>
-0.075000 -0.075000 0.000000
-0.075000 -0.050000 0.000000
-0.075000 -0.025000 0.000000
-0.075000 0.000000 0.000000
-0.075000 0.025000 0.000000
-0.075000 0.050000 0.000000
-0.075000 0.075000 0.000000
-0.075000 0.100000 0.000000
-0.075000 0.125000 0.000000
-0.075000 0.150000 0.000000
-0.075000 0.175000 0.000000
-0.075000 0.200000 0.000000
-0.075000 0.225000 0.000000
-0.075000 0.250000 0.000000
-0.075000 0.275000 0.000000
-0.075000 0.300000 0.000000
-0.075000 0.325000 0.000000
-0.075000 0.350000 0.000000
-0.075000 0.375000 0.000000
-0.075000 0.400000 0.000000
-0.075000 0.425000 0.000000
-0.075000 0.450000 0.000000
-0.075000 0.475000 0.000000
-0.075000 0.500000 0.000000
-0.075000 0.525000 0.000000
-0.075000 0.550000 0.000000
-0.075000 0.575000 0.000000
-0.075000 0.600000 0.000000
-0.050000 -0.075000 0.000000
-0.050000 -0.050000 0.000000
-0.050000 -0.025000 0.000000
-0.050000 0.000000 0.000000
-0.050000 0.025000 0.000000
-0.050000 0.050000 0.000000
-0.050000 0.075000 0.000000
-0.050000 0.100000 0.000000
-0.050000 0.125000 0.000000
-0.050000 0.150000 0.000000
-0.050000 0.175000 0.000000
-0.050000 0.200000 0.000000
-0.050000 0.225000 0.000000
-0.050000 0.250000 0.000000
-0.050000 0.275000 0.000000
-0.050000 0.300000 0.000000
-0.050000 0.325000 0.000000
-0.050000 0.350000 0.000000
-0.050000 0.375000 0.000000
-0.050000 0.400000 0.000000
-0.050000 0.425000 0.000000
-0.050000 0.450000 0.000000
-0.050000 0.475000 0.000000
-0.050000 0.500000 0.000000
-0.050000 0.525000 0.000000
-0.050000 0.550000 0.000000
-0.050000 0.575000 0.000000
-0.050000 0.600000 0.000000
-0.025000 -0.075000 0.000000
-0.025000 -0.050000 0.000000
-0.025000 -0.025000 0.000000
-0.025000 0.000000 0.000000
-0.025000 0.025000 0.000000
-0.025000 0.050000 0.000000
-0.025000 0.075000 0.000000
-0.025000 0.100000 0.000000
-0.025000 0.125000 0.000000
-0.025000 0.150000 0.000000
-0.025000 0.175000 0.000000
-0.025000 0.200000 0.000000
-0.025000 0.225000 0.000000
-0.025000 0.250000 0.000000
-0.025000 0.275000 0.000000
-0.025000 0.300000 0.000000
-0.025000 0.325000 0.000000
-0.025000 0.350000 0.000000
-0.025000 0.375000 0.000000
-0.025000 0.400000 0.000000
-0.025000 0.425000 0.000000
-0.025000 0.450000 0.000000
-0.025000 0.475000 0.000000
-0.025000 0.500000 0.000000
-0.025000 0.525000 0.000000
-0.025000 0.550000 0.000000
-0.025000 0.575000 0.000000
-0.025000 0.600000 0.000000
0.000000 -0.075000 0.000000
0.000000 -0.050000 0.000000
0.000000 -0.025000 0.000000
0.000000 0.000000 0.000000
0.000000 0.025000 0.000000
0.000000 0.050000 0.000000
0.000000 0.075000 0.000000
0.000000 0.100000 0.000000
0.000000 0.125000 0.000000
0.000000 0.150000 0.000000
0.000000 0.175000 0.000000
0.000000 0.200000 0.000000
0.000000 0.225000 0.000000
0.000000 0.250000 0.000000
0.000000 0.275000 0.000000
0.000000 0.300000 0.000000
0.000000 0.325000 0.000000
0.000000 0.350000 0.000000
0.000000 0.375000 0.000000
0.000000 0.400000 0.000000
0.000000 0.425000 0.000000
0.000000 0.450000 0.000000
0.000000 0.475000 0.000000
0.000000 0.500000 0.000000
0.000000 0.525000 0.000000
0.000000 0.550000 0.000000
0.000000 0.575000 0.000000
0.000000 0.600000 0.000000
0.025000 -0.075000 0.000000
0.025000 -0.050000 0.000000
0.025000 -0.025000 0.000000
0.025000 0.000000 0.000000
0.023296 0.028728 0.000000
0.043617 0.055811 0.000000
0.023258 0.059704 0.000000
0.024295 0.113494 0.000000
0.024632 0.156115 0.000000
0.024753 0.181726 0.000000
0.026032 0.206935 0.000000
0.024411 0.232561 0.000000
0.024203 0.259862 0.000000
0.025952 0.281755 0.000000
0.025527 0.307736 0.000000
0.024445 0.330823 0.000000
0.026188 0.356284 0.000000
0.023474 0.379994 0.000000
0.023483 0.412357 0.000000
0.025105 0.436214 0.000000
0.023622 0.465279 0.000000
0.023699 0.490989 0.000000
0.022274 0.532012 0.000000
0.025853 0.556121 0.000000
0.027412 0.582528 0.000000
0.017124 0.600000 0.000000
0.078038 0.600000 0.000000
0.095063 0.600000 0.000000
0.050000 -0.075000 0.000000
0.050000 -0.050000 0.000000
0.050000 -0.025000 0.000000
0.050000 0.000000 0.000000
0.043651 0.023321 0.000000
0.065643 0.049375 0.000000
0.046709 0.082466 0.000000
0.023828 0.089960 0.000000
0.032744 0.139137 0.000000
0.058760 0.159038 0.000000
0.046850 0.185396 0.000000
0.044364 0.223651 0.000000
0.051923 0.251360 0.000000
0.052483 0.273994 0.000000
0.051189 0.298462 0.000000
0.051281 0.322212 0.000000
0.051246 0.347291 0.000000
0.052251 0.371515 0.000000
0.043384 0.394224 0.000000
0.049017 0.421373 0.000000
0.047260 0.447945 0.000000
0.048327 0.475082 0.000000
0.036852 0.507269 0.000000
0.046065 0.539453 0.000000
0.051236 0.569151 0.000000
0.040852 0.600000 0.000000
0.109662 0.581483 0.000000
0.117911 0.600000 0.000000
0.075000 -0.075000 0.000000
0.075000 -0.050000 0.000000
0.075000 -0.025000 0.000000
0.075000 0.000000 0.000000
0.070492 0.025030 0.000000
0.090253 0.050219 0.000000
0.071734 0.075116 0.000000
0.048433 0.121450 0.000000
0.071081 0.123625 0.000000
0.069218 0.179401 0.000000
0.063253 0.206747 0.000000
0.070657 0.234880 0.000000
0.078954 0.259368 0.000000
0.078296 0.282899 0.000000
0.077227 0.307104 0.000000
0.076735 0.331701 0.000000
0.075527 0.354624 0.000000
0.077925 0.380681 0.000000
0.068413 0.401915 0.000000
0.073484 0.426856 0.000000
0.066934 0.456569 0.000000
0.077252 0.480647 0.000000
0.060133 0.498507 0.000000
0.061896 0.520520 0.000000
0.069649 0.547804 0.000000
0.057991 0.596586 0.000000
0.136310 0.600000 0.000000
0.155695 0.600000 0.000000
0.100000 -0.075000 0.000000
0.100000 -0.050000 0.000000
0.100000 -0.025000 0.000000
0.100000 0.000000 0.000000
0.094599 0.024690 0.000000
0.102258 0.068448 0.000000
0.086924 0.092647 0.000000
0.062164 0.101704 0.000000
0.094843 0.134873 0.000000
0.077359 0.150542 0.000000
0.094361 0.181014 0.000000
0.086022 0.209301 0.000000
0.095696 0.235731 0.000000
0.104464 0.256872 0.000000
0.103399 0.287233 0.000000
0.103217 0.310924 0.000000
0.103773 0.334679 0.000000
0.102960 0.358794 0.000000
0.101000 0.385867 0.000000
0.096236 0.410856 0.000000
0.094139 0.435551 0.000000
0.095046 0.465029 0.000000
0.096326 0.492994 0.000000
0.102921 0.515369 0.000000
0.085502 0.530881 0.000000
0.077665 0.575775 0.000000
0.160341 0.579684 0.000000
0.177180 0.600000 0.000000
0.125000 -0.075000 0.000000
0.125000 -0.050000 0.000000
0.125000 -0.025000 0.000000
0.125000 0.000000 0.000000
0.116251 0.036412 0.000000
0.131342 0.056255 0.000000
0.115349 0.087134 0.000000
0.103841 0.111313 0.000000
0.120211 0.135221 0.000000
0.106493 0.158797 0.000000
0.116840 0.181487 0.000000
0.108372 0.208747 0.000000
0.122451 0.231985 0.000000
0.126724 0.264366 0.000000
0.126261 0.289637 0.000000
0.128736 0.316411 0.000000
0.127928 0.342974 0.000000
0.123316 0.370758 0.000000
0.124278 0.397709 0.000000
0.117989 0.427185 0.000000
0.115473 0.452888 0.000000
0.120064 0.481591 0.000000
0.123909 0.510218 0.000000
0.113138 0.546191 0.000000
0.134383 0.572248 0.000000
0.094794 0.557371 0.000000
0.188057 0.582157 0.000000
0.198559 0.600000 0.000000
0.150000 -0.075000 0.000000
0.150000 -0.050000 0.000000
0.150000 -0.025000 0.000000
0.150000 0.000000 0.000000
0.132763 0.023238 0.000000
0.152514 0.048693 0.000000
0.140108 0.079004 0.000000
0.129248 0.106810 0.000000
0.145171 0.130949 0.000000
0.135024 0.155195 0.000000
0.147442 0.178046 0.000000
0.133990 0.199831 0.000000
0.142897 0.222018 0.000000
0.143872 0.244528 0.000000
0.149198 0.276593 0.000000
0.153418 0.300139 0.000000
0.152002 0.325394 0.000000
0.149272 0.351579 0.000000
0.147921 0.378585 0.000000
0.142083 0.407608 0.000000
0.139992 0.436774 0.000000
0.138645 0.465512 0.000000
0.143781 0.490413 0.000000
0.148249 0.514717 0.000000
0.132928 0.538406 0.000000
0.150811 0.551278 0.000000
0.214279 0.584451 0.000000
0.224536 0.600000 0.000000
0.175000 -0.075000 0.000000
0.175000 -0.050000 0.000000
0.175000 -0.025000 0.000000
0.175000 0.000000 0.000000
0.159578 0.025067 0.000000
0.176848 0.050076 0.000000
0.164069 0.077113 0.000000
0.154287 0.101599 0.000000
0.167256 0.129114 0.000000
0.160940 0.156514 0.000000
0.179369 0.176077 0.000000
0.162446 0.195278 0.000000
0.175196 0.215931 0.000000
0.170544 0.240804 0.000000
0.170368 0.264379 0.000000
0.179456 0.287973 0.000000
0.176466 0.312697 0.000000
0.175877 0.338485 0.000000
0.172193 0.363799 0.000000
0.169154 0.390936 0.000000
0.168082 0.412685 0.000000
0.162020 0.437468 0.000000
0.163686 0.463954 0.000000
0.172111 0.482625 0.000000
0.176730 0.505458 0.000000
0.166266 0.530542 0.000000
0.239368 0.579530 0.000000
0.245043 0.600000 0.000000
0.200000 -0.075000 0.000000
0.200000 -0.050000 0.000000
0.200000 -0.025000 0.000000
0.200000 0.000000 0.000000
0.185163 0.024043 0.000000
0.200278 0.048498 0.000000
0.190748 0.073201 0.000000
0.178131 0.099623 0.000000
0.192530 0.126650 0.000000
0.186627 0.148656 0.000000
0.204816 0.171854 0.000000
0.193828 0.197857 0.000000
0.198110 0.221560 0.000000
0.192558 0.249695 0.000000
0.199822 0.274935 0.000000
0.202561 0.306814 0.000000
0.201194 0.330698 0.000000
0.198438 0.354622 0.000000
0.192042 0.378839 0.000000
0.196538 0.410927 0.000000
0.185436 0.434631 0.000000
0.196870 0.454708 0.000000
0.198622 0.475250 0.000000
0.197733 0.501975 0.000000
0.191182 0.534612 0.000000
0.176673 0.555402 0.000000
0.266070 0.579122 0.000000
0.265975 0.600000 0.000000
0.225000 -0.075000 0.000000
0.225000 -0.050000 0.000000
0.225000 -0.025000 0.000000
0.225000 0.000000 0.000000
0.211386 0.024590 0.000000
0.226883 0.047734 0.000000
0.215340 0.075479 0.000000
0.200332 0.099396 0.000000
0.222114 0.123431 0.000000
0.212071 0.145715 0.000000
0.230266 0.165260 0.000000
0.218982 0.191948 0.000000
0.225390 0.218593 0.000000
0.217874 0.240636 0.000000
0.220996 0.266160 0.000000
0.222267 0.292908 0.000000
0.226977 0.321923 0.000000
0.227578 0.346693 0.000000
0.219185 0.373779 0.000000
[...]
<PointData>
<DataArray NumberOfComponents='1' type='Int32' Name='ParticleType' format='ascii'>
3
3
3
3
3
3
3
3
3
3
3
3
3
3
3
3
3
3
3
3
3
3
3
3
3
3
3
3
3
3
3
3
3
3
3
3
3
3
3
3
3
3
3
3
3
3
3
3
3
3
3
3
3
3
3
3
3
3
2
2
2
2
2
2
2
2
2
2
2
2
2
2
2
2
2
2
2
2
2
2
2
2
2
2
3
3
2
2
2
2
2
2
2
2
2
2
2
2
2
2
2
2
2
2
2
2
2
2
2
2
2
2
3
3
2
2
0
0
0
0
0
0
0
0
0
0
0
0
0
0
0
0
0
0
0
0
0
0
0
0
3
3
2
2
0
0
0
0
0
0
0
0
0
0
0
0
0
0
0
0
0
0
0
0
0
0
0
0
3
3
2
2
0
0
0
0
0
0
0
0
0
0
0
0
0
0
0
0
0
0
0
0
0
0
0
0
3
3
2
2
0
0
0
0
0
0
0
0
0
0
0
0
0
0
0
0
0
0
0
0
0
0
0
0
3
3
2
2
0
0
0
0
0
0
0
0
0
0
0
0
0
0
0
0
0
0
0
0
0
0
0
0
3
3
2
2
0
0
0
0
0
0
0
0
0
0
0
0
0
0
0
0
0
0
0
0
0
0
0
0
3
3
2
2
0
0
0
0
0
0
0
0
0
0
0
0
0
0
0
0
0
0
0
0
0
0
0
0
3
3
2
2
0
0
0
0
0
0
0
0
0
0
0
0
0
0
0
0
0
0
0
0
0
0
0
0
3
3
2
2
0
0
0
0
0
0
0
0
0
0
0
0
0
0
0
0
0
0
0
0
0
0
0
0
3
3
2
2
0
0
0
0
0
0
0
0
0
0
0
0
0
0
0
0
0
0
0
0
0
0
0
0
3
3
2
2
0
0
0
0
0
0
0
0
0
0
0
0
0
0
0
0
0
0
0
0
0
0
0
0
3
3
2
2
0
0
0
0
0
0
0
0
0
0
0
0
0
0
0
0
0
0
0
0
0
0
0
0
3
3
2
2
0
0
0
0
0
0
0
0
0
0
0
0
0
0
0
0
0
0
0
0
0
0
0
0
3
3
2
2
0
0
0
0
0
0
0
0
0
0
0
0
0
0
0
0
0
0
0
0
0
0
0
0
3
3
2
2
0
0
0
0
0
0
0
0
0
0
0
0
0
0
0
0
0
0
0
0
0
0
0
0
3
3
2
2
0
0
0
0
0
0
0
0
0
0
0
0
0
0
0
0
0
0
0
0
0
0
0
0
3
3
2
2
0
0
0
0
0
0
0
0
0
0
0
0
0
0
0
0
0
0
0
0
0
0
0
0
3
3
2
2
0
0
0
0
0
0
0
0
0
0
0
0
0
0
0
0
0
0
0
0
0
0
0
0
3
3
2
2
0
0
0
0
0
0
0
0
0
0
0
0
0
0
0
0
0
0
0
0
0
0
0
0
3
3
2
2
0
0
0
0
0
0
0
0
0
0
0
0
0
0
0
0
0
0
0
0
0
0
0
0
3
3
2
2
0
0
0
0
0
0
0
0
0
0
0
0
0
0
0
0
0
0
0
0
0
0
0
0
3
3
2
2
0
0
0
0
0
0
0
0
0
0
0
0
0
0
0
0
0
0
0
0
0
0
0
0
3
3
2
2
0
0
0
0
0
0
0
0
0
0
0
0
0
0
0
0
0
0
0
0
0
0
0
0
3
3
2
2
0
0
0
0
0
0
0
0
0
0
0
0
0
0
0
0
0
0
0
0
0
0
0
0
3
3
2
2
0
0
0
0
0
0
0
0
0
0
0
0
0
0
0
0
0
0
0
0
0
0
0
0
3
3
2
2
0
0
0
0
0
0
0
0
0
0
0
0
0
0
0
0
0
0
0
0
0
0
0
0
3
3
2
2
0
0
0
0
0
0
0
0
0
0
0
0
0
0
0
0
0
0
0
0
0
0
0
0
3
3
2
2
0
0
0
0
0
0
0
0
0
0
0
0
0
0
0
0
0
0
0
0
0
0
0
0
3
3
2
2
0
0
0
0
0
0
0
0
0
0
0
0
0
0
0
0
0
0
0
0
0
0
0
0
3
3
2
2
0
0
0
0
0
0
0
0
0
0
0
0
0
0
0
0
0
0
0
0
0
0
0
0
3
3
2
2
0
0
0
0
0
0
0
0
0
0
0
0
0
0
0
0
0
0
0
0
0
0
0
0
3
3
2
2
0
0
0
0
0
0
0
0
0
0
0
0
0
0
0
0
0
0
0
0
0
0
0
0
3
3
2
2
0
0
0
0
0
0
0
0
0
0
0
0
0
0
0
0
0
0
0
0
0
0
0
0
3
3
2
2
0
0
0
0
0
0
0
0
0
0
0
0
0
0
0
0
0
0
0
0
0
0
0
0
3
3
2
2
0
0
0
0
0
0
0
0
0
0
0
0
0
0
0
0
0
0
0
0
0
0
0
0
3
3
2
2
0
0
0
0
0
0
0
0
0
0
0
0
0
0
0
0
0
0
0
0
0
0
0
0
3
3
2
2
0
0
0
0
0
0
0
0
0
0
0
0
0
0
0
0
0
0
0
0
0
0
0
0
3
3
2
2
0
0
0
0
0
0
0
0
0
0
0
0
0
0
0
0
0
0
0
0
0
0
0
0
3
3
2
2
0
0
0
0
0
0
0
0
0
0
0
0
0
0
0
0
0
0
0
0
0
0
0
0
3
3
2
2
0
0
0
0
0
0
0
0
0
0
0
0
0
0
0
0
0
0
0
0
0
0
0
0
3
3
2
2
2
2
2
2
2
2
2
2
2
2
2
2
2
2
2
2
2
2
2
2
2
2
2
2
3
3
2
2
2
2
2
2
2
2
2
2
2
2
2
2
2
2
2
2
2
2
2
2
2
2
2
2
3
3
3
3
3
3
3
3
3
3
3
3
3
3
3
3
3
3
3
3
3
3
3
3
3
3
3
3
3
3
3
3
3
3
3
3
3
3
3
3
3
3
3
3
3
3
3
3
3
3
3
3
3
3
3
3
</DataArray>
<DataArray NumberOfComponents='1' type='Float32' Name='Velocity' format='ascii'>
0.000000
0.000000
0.000000
0.000000
0.000000
0.000000
0.000000
0.000000
0.000000
0.000000
0.000000
0.000000
0.000000
0.000000
0.000000
0.000000
0.000000
0.000000
0.000000
0.000000
0.000000
0.000000
0.000000
0.000000
0.000000
0.000000
0.000000
0.000000
0.000000
0.000000
0.000000
0.000000
0.000000
0.000000
0.000000
0.000000
0.000000
0.000000
0.000000
0.000000
0.000000
0.000000
0.000000
0.000000
0.000000
0.000000
0.000000
0.000000
0.000000
0.000000
0.000000
0.000000
0.000000
0.000000
0.000000
0.000000
0.000000
0.000000
0.000000
0.000000
0.000000
0.000000
0.000000
0.000000
0.000000
0.000000
0.000000
0.000000
0.000000
0.000000
0.000000
0.000000
0.000000
0.000000
0.000000
0.000000
0.000000
0.000000
0.000000
0.000000
0.000000
0.000000
0.000000
0.000000
0.000000
0.000000
0.000000
0.000000
0.000000
0.000000
0.000000
0.000000
0.000000
0.000000
0.000000
0.000000
0.000000
0.000000
0.000000
0.000000
0.000000
0.000000
0.000000
0.000000
0.000000
0.000000
0.000000
0.000000
0.000000
0.000000
0.000000
0.000000
0.000000
0.000000
0.000000
0.000000
0.042667
0.132789
0.026462
0.102082
0.178748
0.161645
0.059837
0.050888
0.180080
0.086191
0.200449
0.160349
0.159740
0.127150
0.140624
0.095929
0.070101
0.046689
0.070703
0.078891
0.100000
0.100000
0.100000
0.100000
0.000000
0.000000
0.000000
0.000000
0.056265
0.108971
0.109892
0.135673
0.118291
0.072342
0.255654
0.082205
0.073884
0.136107
0.092985
0.061076
0.179137
0.117278
0.119823
0.247104
0.111127
0.269015
0.155741
0.066170
0.199259
0.100000
0.100000
0.100000
0.000000
0.000000
0.000000
0.000000
0.096530
0.060601
0.108905
0.109334
0.119214
0.140152
0.188368
0.205758
0.112077
0.045885
0.033050
0.075847
0.114022
0.122282
0.138470
0.098682
0.262258
0.357325
0.116305
0.025520
0.145540
0.100000
0.100000
0.100000
0.000000
0.000000
0.000000
0.000000
0.053850
0.079839
0.285454
0.266101
0.103081
0.059931
0.064217
0.149506
0.109947
0.089659
0.100123
0.088046
0.117231
0.155313
0.065284
0.045459
0.090756
0.071509
0.258362
0.151095
0.120656
0.100000
0.100000
0.100000
0.000000
0.000000
0.000000
0.000000
0.001502
0.144525
0.056304
0.292727
0.144369
0.097560
0.077190
0.091635
0.063078
0.129412
0.076572
0.057625
0.082042
0.066973
0.051903
0.026954
0.037112
0.121434
0.039566
0.261400
0.061496
0.184857
0.100000
0.100000
0.000000
0.000000
0.000000
0.000000
0.131301
0.190897
0.096370
0.110374
0.053811
0.079065
0.061494
0.111690
0.131914
0.091272
0.078777
0.194360
0.119687
0.080072
0.036867
0.065619
0.079852
0.117518
0.273865
0.156128
0.097491
0.196125
0.100000
0.100000
0.000000
0.000000
0.000000
0.000000
0.047681
0.086437
0.052252
0.105510
0.088148
0.042103
0.085470
0.131027
0.064277
0.014518
0.058091
0.061408
0.039746
0.040729
0.016919
0.061273
0.139213
0.178514
0.248002
0.040037
0.249264
0.202824
0.100000
0.100000
0.000000
0.000000
0.000000
0.000000
0.090602
0.105407
0.031325
0.053678
0.098877
0.093309
0.037169
0.132896
0.144449
0.105715
0.114980
0.099100
0.018693
0.056870
0.218789
0.049247
0.124712
0.130386
0.078862
0.147687
0.031776
0.158794
0.100000
0.100000
0.000000
0.000000
0.000000
0.000000
0.059533
0.062769
0.053290
0.023960
0.139780
0.019657
0.193358
0.127038
0.059653
0.094459
0.066502
0.108402
0.046655
0.031926
0.062521
0.143867
0.147230
0.122812
0.063812
0.178843
0.060719
0.034373
0.100000
0.100000
0.000000
0.000000
0.000000
0.000000
0.066350
0.155802
0.050558
0.023144
0.052281
0.023240
0.055089
0.153608
0.079811
0.017335
0.034638
0.034860
0.052734
0.131148
0.083513
0.129288
0.093451
0.110140
0.239336
0.303825
0.342429
0.207822
0.100000
0.100000
0.000000
0.000000
0.000000
0.000000
0.036490
0.088578
0.065613
0.029470
0.025270
0.059142
0.029262
0.033076
0.123665
0.077411
0.160433
0.032293
0.080073
0.063913
0.158257
0.087875
0.051195
0.076347
0.209644
0.152373
0.338578
0.113575
0.100000
0.100000
0.000000
0.000000
0.000000
0.000000
0.051751
0.136218
0.116556
0.046958
0.017461
0.069286
0.066316
0.103307
0.102498
0.118908
0.091500
0.070222
0.110242
0.192440
0.008373
0.074450
0.105896
0.250391
0.026100
0.165917
0.078992
0.383719
0.100000
0.100000
0.000000
0.000000
0.000000
0.000000
0.086756
0.057750
0.013825
0.088299
0.064003
0.061915
0.087168
0.154542
0.170848
0.014419
0.051354
0.130423
0.053182
0.153468
0.093739
0.075178
0.226774
0.024302
0.382721
0.105946
0.086454
0.104176
0.100000
0.100000
0.000000
0.000000
0.000000
0.000000
0.072423
0.085146
0.065395
0.064936
0.047136
0.006575
0.122138
0.117812
0.096710
0.102636
0.069948
0.175125
0.155904
0.118412
0.050973
0.102282
0.104376
0.061984
0.304006
0.037110
0.226260
0.162038
0.100000
0.100000
0.000000
0.000000
0.000000
0.000000
0.091866
0.050937
0.087685
0.101901
0.031056
0.038202
0.058436
0.079097
0.086822
0.040474
0.105120
0.140869
0.103971
0.137334
0.140482
0.095539
0.174743
0.175063
0.356257
0.180204
0.190381
0.176602
0.100000
0.100000
0.000000
0.000000
0.000000
0.000000
0.081514
0.091786
0.044539
0.074319
0.128392
0.015857
0.100508
0.095713
0.011271
0.059698
0.118544
0.126126
0.055603
0.035084
0.086509
0.166826
0.117466
0.204868
0.255724
0.257510
0.254105
0.218908
0.100000
0.100000
0.000000
0.000000
0.000000
0.000000
0.130208
0.048330
0.097355
0.067527
0.022951
0.046609
0.038109
0.109083
0.068526
0.052320
0.035840
0.056842
0.106288
0.067310
0.173959
0.021463
0.354302
0.204400
0.093178
0.113736
0.157472
0.259450
0.100000
0.100000
0.000000
0.000000
0.000000
0.000000
0.074361
0.087031
0.047400
0.036912
0.114006
0.062106
0.040407
0.152823
0.042086
0.048893
0.003705
0.053347
0.058958
0.157974
0.158554
0.169945
0.219488
0.069507
0.249558
0.310760
0.355987
0.172886
0.100000
0.100000
0.000000
0.000000
0.000000
0.000000
0.100257
0.053686
0.079454
0.065160
0.063480
0.045443
0.049028
0.036051
0.049392
0.008730
0.079283
0.084854
0.087076
0.118212
0.110441
0.140480
0.117000
0.097068
0.069154
0.206109
0.205701
0.257298
0.100000
0.100000
0.000000
0.000000
0.000000
0.000000
0.121149
0.085151
0.051311
0.058469
0.079659
0.026781
0.075737
0.062813
0.058939
0.025668
0.008152
0.093943
0.074274
0.083318
0.051557
0.265505
0.140446
0.026443
0.154621
0.015345
0.230686
0.094062
0.100000
0.100000
0.000000
0.000000
0.000000
0.000000
0.049435
0.056941
0.068530
0.098005
0.085668
0.025999
0.031795
0.128746
0.009041
0.089626
0.009627
0.086215
0.092745
0.135749
0.114253
0.037642
0.212697
0.187548
0.157948
0.245653
0.088769
0.195922
0.100000
0.100000
0.000000
0.000000
0.000000
0.000000
0.122313
0.077686
0.069006
0.130283
0.036054
0.032292
0.082008
0.085451
0.120252
0.045214
0.139255
0.059055
0.094040
0.114527
0.189743
0.106522
0.117881
0.085714
0.034160
0.098447
0.191042
0.168058
0.100000
0.100000
0.000000
0.000000
0.000000
0.000000
0.031465
0.065776
0.006696
0.146264
0.050425
0.075662
0.033387
0.053961
0.087503
0.089262
0.041378
0.154652
0.043235
0.179977
0.072992
0.054636
0.201323
0.024979
0.116286
0.050933
0.131978
0.146551
0.100000
0.100000
0.000000
0.000000
0.000000
0.000000
0.066354
0.096825
0.138727
0.058495
0.137783
0.037317
0.218913
0.105482
0.082819
0.157714
0.261340
0.172556
0.073570
0.105266
0.051304
0.125101
0.105821
0.129265
0.065459
0.067627
0.090510
0.169443
0.100000
0.100000
0.000000
0.000000
0.000000
0.000000
0.081238
0.111330
0.013104
0.166758
0.066203
0.144231
0.124433
0.091993
0.025428
0.133623
0.173991
0.059884
0.174409
0.139926
0.113520
0.105035
0.113791
0.017931
0.099237
0.156381
0.067908
0.241924
0.100000
0.100000
0.000000
0.000000
0.000000
0.000000
0.078585
0.092744
0.214696
0.012091
0.094212
0.032193
0.160891
0.045372
0.121298
0.211434
0.058389
0.088594
0.133969
0.112898
0.078692
0.176080
0.081660
0.265366
0.165519
0.227136
0.074727
0.150477
0.100000
0.100000
0.000000
0.000000
0.000000
0.000000
0.041354
0.085857
0.025138
0.205175
0.076140
0.133915
0.067874
0.155877
0.062405
0.208143
0.107487
0.046555
0.104981
0.135348
0.055526
0.117622
0.219165
0.143171
0.401365
0.206293
0.261429
0.123785
0.100000
0.100000
0.000000
0.000000
0.000000
0.000000
0.070522
0.088780
0.088606
0.069576
0.138819
0.006717
0.241143
0.118489
0.206146
0.162313
0.027089
0.146502
0.083562
0.084963
0.039918
0.126967
0.142277
0.135372
0.107106
0.124351
0.183235
0.291438
0.100000
0.100000
0.000000
0.000000
0.000000
0.000000
0.102958
0.223056
0.102603
0.086690
0.130810
0.118991
0.052947
0.150548
0.064878
0.310833
0.091422
0.121763
0.168202
0.036289
0.022663
0.112321
0.085133
0.214768
0.223703
0.432735
0.148867
0.106006
0.100000
0.100000
0.000000
0.000000
0.000000
0.000000
0.036889
0.037442
0.128146
0.085239
0.125880
0.150685
0.201492
0.190120
0.141298
0.107431
0.179136
0.082912
0.097002
0.067173
0.055666
0.082518
0.085534
0.086693
0.222811
0.331882
0.280509
0.245237
0.100000
0.100000
0.000000
0.000000
0.000000
0.000000
0.046814
0.054932
0.134622
0.048027
0.167996
0.122881
0.221198
0.245091
0.095861
0.266618
0.045230
0.065352
0.042120
0.211644
0.022068
0.171827
0.128149
0.107870
0.265409
0.090759
0.265684
0.091609
0.100000
0.100000
0.000000
0.000000
0.000000
0.000000
0.077247
0.074772
0.051096
0.057326
0.035203
0.180014
0.103193
0.187783
0.087040
0.145674
0.042532
0.101754
0.036233
0.126111
0.296131
0.254021
0.112513
0.212453
0.063291
0.157837
0.133145
0.400114
0.100000
0.100000
0.000000
0.000000
0.000000
0.000000
0.056172
0.041104
0.102904
0.096560
0.082625
0.255653
0.152867
0.226669
0.147219
0.291642
0.172619
0.099605
0.111339
0.160732
0.095112
0.324037
0.117896
0.169174
0.388679
0.178386
0.182155
0.419590
0.100000
0.100000
0.000000
0.000000
0.000000
0.000000
0.068808
0.055746
0.093169
0.229152
0.199290
0.101591
0.167310
0.230798
0.313535
0.082898
0.232805
0.177590
0.101404
0.076015
0.066855
0.116791
0.066440
0.102744
0.329863
0.087493
0.040054
0.284568
0.211675
0.100000
0.000000
0.000000
0.000000
0.000000
0.090324
0.080646
0.080808
0.058177
0.173250
0.118332
0.439460
0.192068
0.182818
0.104890
0.233957
0.236575
0.163082
0.185836
0.168065
0.108992
0.127868
0.016432
0.203924
0.009577
0.070074
0.293240
0.266000
0.100000
0.000000
0.000000
0.000000
0.000000
0.115255
0.145509
0.214998
0.299400
0.235268
0.062628
0.275486
0.110519
0.091267
0.198620
0.125132
0.082740
0.274441
0.262873
0.134169
0.062773
0.124434
0.093574
0.151234
0.080064
0.197482
0.113901
0.216101
0.100000
0.000000
0.000000
0.000000
0.000000
0.088884
0.105151
0.102995
0.127216
0.055964
0.193193
0.108554
0.162195
0.281352
0.229860
0.174739
0.086812
0.113897
0.202802
0.133674
0.307458
0.030419
0.285385
0.377993
0.138475
0.329423
0.082677
0.230199
0.100000
0.000000
0.000000
0.000000
0.000000
0.052922
0.092983
0.079232
0.294148
0.147129
0.194919
0.199521
0.098041
0.163401
0.011344
0.132215
0.225443
0.147955
0.103575
0.025751
0.021238
0.235978
0.053147
0.079760
0.422973
0.051150
0.080826
0.013486
0.100000
0.000000
0.000000
0.000000
0.000000
0.006283
0.082096
0.107152
0.041784
0.278827
0.032978
0.079395
0.198598
0.070021
0.196791
0.068048
0.183964
0.144963
0.099374
0.128802
0.122236
0.301327
0.094530
0.049458
0.267065
0.179241
0.115462
0.111664
0.100000
0.000000
0.000000
0.000000
0.000000
0.056933
0.053942
0.098470
0.273946
0.111662
0.186406
0.182214
0.137460
0.067513
0.088459
0.140646
0.231780
0.207075
0.155388
0.137664
0.155006
0.287391
0.030668
0.138416
0.154449
0.019058
0.316281
0.219141
0.100000
0.000000
0.000000
0.000000
0.000000
0.000000
0.000000
0.000000
0.000000
0.000000
0.000000
0.000000
0.000000
0.000000
0.000000
0.000000
0.000000
0.000000
0.000000
0.000000
0.000000
0.000000
0.000000
0.000000
0.000000
0.000000
0.000000
0.000000
0.000000
0.000000
0.000000
0.000000
0.000000
0.000000
0.000000
0.000000
0.000000
0.000000
0.000000
0.000000
0.000000
0.000000
0.000000
0.000000
0.000000
0.000000
0.000000
0.000000
0.000000
0.000000
0.000000
0.000000
0.000000
0.000000
0.000000
0.000000
0.000000
0.000000
0.000000
0.000000
0.000000
0.000000
0.000000
0.000000
0.000000
0.000000
0.000000
0.000000
0.000000
0.000000
0.000000
0.000000
0.000000
0.000000
0.000000
0.000000
0.000000
0.000000
0.000000
0.000000
0.000000
0.000000
0.000000
0.000000
0.000000
0.000000
0.000000
0.000000
0.000000
0.000000
0.000000
0.000000
0.000000
0.000000
0.000000
0.000000
0.000000
0.000000
0.000000
0.000000
0.000000
0.000000
0.000000
0.000000
0.000000
0.000000
0.000000
0.000000
0.000000
0.000000
0.000000
0.000000
0.000000
</DataArray>
<DataArray NumberOfComponents='1' type='Float32' Name='pressure' format='ascii'>
0.000000
0.000000
0.000000
0.000000
0.000000
0.000000
0.000000
0.000000
0.000000
0.000000
0.000000
0.000000
0.000000
0.000000
0.000000
0.000000
0.000000
0.000000
0.000000
0.000000
0.000000
0.000000
0.000000
0.000000
0.000000
0.000000
0.000000
0.000000
0.000000
0.000000
0.000000
0.000000
0.000000
0.000000
0.000000
0.000000
0.000000
0.000000
0.000000
0.000000
0.000000
0.000000
0.000000
0.000000
0.000000
0.000000
0.000000
0.000000
0.000000
0.000000
0.000000
0.000000
0.000000
0.000000
0.000000
0.000000
0.000000
0.000000
18306.812500
18409.167969
18950.716797
18513.494141
18151.763672
17911.064453
16796.878906
16696.384766
16470.162109
15848.057617
16074.793945
15690.519531
15172.658203
14536.612305
14620.102539
13838.968750
14516.530273
13828.313477
13757.596680
12985.383789
13302.922852
12465.197266
12288.055664
10174.241211
7053.965332
0.000000
0.000000
0.000000
18229.484375
18260.640625
18853.199219
17841.529297
17884.955078
17448.714844
16354.979492
16419.730469
17358.392578
16200.399414
16837.091797
15703.269531
15542.801758
14790.929688
14885.472656
14167.621094
14490.646484
13556.175781
13214.450195
12785.190430
13355.723633
11579.695312
12300.792969
10816.943359
11186.413086
0.000000
0.000000
0.000000
17711.240234
17830.037109
18118.355469
18195.242188
17680.628906
16908.150391
16669.218750
17377.814453
15186.050781
16475.679688
15629.093750
15494.732422
14973.008789
14505.718750
14210.843750
13819.847656
13625.796875
13346.345703
11973.680664
12330.246094
11205.425781
10433.401367
16327.714844
6079.805664
0.000000
0.000000
0.000000
0.000000
18776.650391
18989.820312
18282.742188
18164.492188
17103.019531
17439.097656
16639.828125
16335.593750
16769.691406
16601.927734
15464.403320
15623.137695
15109.168945
14874.429688
15069.018555
13602.522461
14360.837891
12856.985352
12984.176758
12042.116211
11346.640625
11372.004883
9660.827148
0.000000
13893.396484
6850.301270
0.000000
0.000000
18360.849609
18364.812500
18246.501953
17975.007812
17164.630859
17462.273438
16317.476562
16310.356445
16777.345703
15822.298828
15737.263672
15647.672852
15019.306641
14777.728516
14636.549805
14427.040039
14069.775391
13673.415039
13262.633789
13271.869141
12339.394531
11755.317383
10247.435547
6813.121094
7946.553223
10780.448242
0.000000
0.000000
18472.888672
17988.074219
18357.671875
17619.183594
17735.445312
17505.357422
17382.765625
17244.283203
16653.511719
16345.163086
16088.324219
15901.455078
15348.630859
15139.596680
15084.807617
14189.467773
14115.316406
12919.396484
13568.343750
12113.935547
11881.784180
12754.547852
11033.786133
12166.771484
19061.390625
9900.034180
0.000000
0.000000
18947.019531
18417.539062
18353.978516
17774.052734
17875.765625
16583.009766
17125.330078
16408.183594
16626.423828
16357.208008
15997.038086
15768.298828
15682.418945
14883.217773
14971.089844
14656.013672
14381.177734
14034.517578
13494.411133
13564.313477
12635.458008
10938.725586
11901.479492
11127.850586
21523.753906
0.000000
0.000000
0.000000
18778.328125
18778.673828
18417.619141
18182.632812
17807.724609
17998.630859
17225.541016
17091.759766
16949.628906
16373.947266
16519.904297
15902.183594
15876.763672
15353.571289
15120.439453
14870.041992
14174.014648
13719.486328
13374.939453
13614.029297
12669.574219
12925.978516
13172.998047
12237.125977
20413.234375
0.000000
0.000000
0.000000
18774.052734
18749.103516
18215.625000
18132.691406
17691.136719
16911.673828
17254.875000
16713.955078
16786.791016
16474.822266
16596.849609
16417.078125
15644.829102
15892.751953
15602.303711
15025.735352
15064.277344
14666.992188
14488.869141
14387.134766
13364.721680
14323.002930
13480.743164
14318.177734
19557.003906
9843.101562
0.000000
0.000000
18888.642578
19062.150391
18537.074219
18387.835938
17735.794922
18164.941406
16981.728516
17325.482422
16744.382812
16515.371094
16070.796875
16142.277344
15935.165039
15205.652344
15375.014648
14935.647461
14416.227539
14169.120117
14155.843750
14392.508789
13492.808594
14101.095703
14877.117188
13783.954102
19338.109375
10363.509766
0.000000
0.000000
18701.828125
19114.216797
17960.537109
18384.386719
18000.181641
17462.789062
17331.529297
17482.896484
16721.656250
17220.039062
16655.226562
16251.141602
16428.927734
15903.270508
15430.910156
15443.321289
15018.002930
14952.115234
14461.290039
14187.093750
14474.553711
15038.033203
14659.211914
13051.314453
17563.777344
8675.866211
0.000000
0.000000
18645.531250
18515.927734
18512.654297
18483.648438
17580.068359
17896.722656
17267.343750
17570.859375
17173.376953
16715.474609
16302.073242
16345.146484
15646.568359
15862.354492
15442.961914
14834.416016
14424.675781
14619.016602
14551.241211
14374.802734
14196.240234
13316.266602
14149.508789
13409.965820
19276.595703
0.000000
0.000000
0.000000
18402.185547
19245.314453
18457.371094
18374.054688
18163.574219
18182.910156
17438.599609
17415.810547
16860.970703
16788.164062
16853.582031
16783.982422
16312.295898