<?xml version='1.0' encoding='UTF-8'?>
<VTKFile xmlns='VTK' byte_order='LittleEndian' version='0.1' type='UnstructuredGrid'>
<UnstructuredGrid>
<Piece NumberOfCells='1344' NumberOfPoints='1344'>
<Points>
<DataArray NumberOfComponents='3' type='Float32' Name='Position' format='ascii'>
-0.075000 -0.075000 0.000000
-0.075000 -0.050000 0.000000
-0.075000 -0.025000 0.000000
-0.075000 0.000000 0.000000
-0.075000 0.025000 0.000000
-0.075000 0.050000 0.000000
-0.075000 0.075000 0.000000
-0.075000 0.100000 0.000000
-0.075000 0.125000 0.000000
-0.075000 0.150000 0.000000
-0.075000 0.175000 0.000000
-0.075000 0.200000 0.000000
-0.075000 0.225000 0.000000
-0.075000 0.250000 0.000000
-0.075000 0.275000 0.000000
-0.075000 0.300000 0.000000
-0.075000 0.325000 0.000000
-0.075000 0.350000 0.000000
-0.075000 0.375000 0.000000
-0.075000 0.400000 0.000000
-0.075000 0.425000 0.000000
-0.075000 0.450000 0.000000
-0.075000 0.475000 0.000000
-0.075000 0.500000 0.000000
-0.075000 0.525000 0.000000
-0.075000 0.550000 0.000000
-0.075000 0.575000 0.000000
-0.075000 0.600000 0.000000
-0.050000 -0.075000 0.000000
-0.050000 -0.050000 0.000000
-0.050000 -0.025000 0.000000
-0.050000 0.000000 0.000000
-0.050000 0.025000 0.000000
-0.050000 0.050000 0.000000
-0.050000 0.075000 0.000000
-0.050000 0.100000 0.000000
-0.050000 0.125000 0.000000
-0.050000 0.150000 0.000000
-0.050000 0.175000 0.000000
-0.050000 0.200000 0.000000
-0.050000 0.225000 0.000000
-0.050000 0.250000 0.000000
-0.050000 0.275000 0.000000
-0.050000 0.300000 0.000000
-0.050000 0.325000 0.000000
-0.050000 0.350000 0.000000
-0.050000 0.375000 0.000000
-0.050000 0.400000 0.000000
-0.050000 0.425000 0.000000
-0.050000 0.450000 0.000000
-0.050000 0.475000 0.000000
-0.050000 0.500000 0.000000
-0.050000 0.525000 0.000000
-0.050000 0.550000 0.000000
-0.050000 0.575000 0.000000
-0.050000 0.600000 0.000000
-0.025000 -0.075000 0.000000
-0.025000 -0.050000 0.000000
-0.025000 -0.025000 0.000000
-0.025000 0.000000 0.000000
-0.025000 0.025000 0.000000
-0.025000 0.050000 0.000000
-0.025000 0.075000 0.000000
-0.025000 0.100000 0.000000
-0.025000 0.125000 0.000000
-0.025000 0.150000 0.000000
-0.025000 0.175000 0.000000
-0.025000 0.200000 0.000000
-0.025000 0.225000 0.000000
-0.025000 0.250000 0.000000
-0.025000 0.275000 0.000000
-0.025000 0.300000 0.000000
-0.025000 0.325000 0.000000
-0.025000 0.350000 0.000000
-0.025000 0.375000 0.000000
-0.025000 0.400000 0.000000
-0.025000 0.425000 0.000000
-0.025000 0.450000 0.000000
-0.025000 0.475000 0.000000
-0.025000 0.500000 0.000000
-0.025000 0.525000 0.000000
-0.025000 0.550000 0.000000
-0.025000 0.575000 0.000000
-0.025000 0.600000 0.000000
0.000000 -0.075000 0.000000
0.000000 -0.050000 0.000000
0.000000 -0.025000 0.000000
0.000000 0.000000 0.000000
0.000000 0.025000 0.000000
0.000000 0.050000 0.000000
0.000000 0.075000 0.000000
0.000000 0.100000 0.000000
0.000000 0.125000 0.000000
0.000000 0.150000 0.000000
0.000000 0.175000 0.000000
0.000000 0.200000 0.000000
0.000000 0.225000 0.000000
0.000000 0.250000 0.000000
0.000000 0.275000 0.000000
0.000000 0.300000 0.000000
0.000000 0.325000 0.000000
0.000000 0.350000 0.000000
0.000000 0.375000 0.000000
0.000000 0.400000 0.000000
0.000000 0.425000 0.000000
0.000000 0.450000 0.000000
0.000000 0.475000 0.000000
0.000000 0.500000 0.000000
0.000000 0.525000 0.000000
0.000000 0.550000 0.000000
0.000000 0.575000 0.000000
0.000000 0.600000 0.000000
0.025000 -0.075000 0.000000
0.025000 -0.050000 0.000000
0.025000 -0.025000 0.000000
0.025000 0.000000 0.000000
0.024912 0.024887 0.000000
0.025026 0.050025 0.000000
0.024972 0.074962 0.000000
0.025009 0.100012 0.000000
0.024983 0.125042 0.000000
0.025023 0.149997 0.000000
0.024956 0.175117 0.000000
0.025051 0.199986 0.000000
0.024926 0.225191 0.000000
0.025080 0.249986 0.000000
0.024901 0.275256 0.000000
0.025095 0.300009 0.000000
0.024895 0.325310 0.000000
0.025089 0.350059 0.000000
0.024896 0.375372 0.000000
0.025070 0.400133 0.000000
0.024924 0.425511 0.000000
0.025007 0.450166 0.000000
0.024884 0.475871 0.000000
0.025042 0.500252 0.000000
0.024733 0.526209 0.000000
0.024172 0.550576 0.000000
0.031996 0.575019 0.000000
0.032000 0.600000 0.000000
0.050000 -0.075000 0.000000
0.050000 -0.050000 0.000000
0.050000 -0.025000 0.000000
0.050000 0.000000 0.000000
0.049987 0.024974 0.000000
0.049942 0.049969 0.000000
0.049996 0.075010 0.000000
0.049960 0.099986 0.000000
0.049968 0.125057 0.000000
0.049987 0.149989 0.000000
0.049947 0.175142 0.000000
0.050005 0.199973 0.000000
0.049933 0.225207 0.000000
0.050001 0.250006 0.000000
0.049944 0.275231 0.000000
0.049972 0.300068 0.000000
0.049962 0.325247 0.000000
0.049935 0.350135 0.000000
0.049966 0.375277 0.000000
0.049885 0.400164 0.000000
0.049951 0.425351 0.000000
0.049786 0.450218 0.000000
0.049930 0.475370 0.000000
0.049671 0.500232 0.000000
0.049871 0.525665 0.000000
0.049381 0.549764 0.000000
0.056995 0.575039 0.000000
0.057000 0.600000 0.000000
0.075000 -0.075000 0.000000
0.075000 -0.050000 0.000000
0.075000 -0.025000 0.000000
0.075000 0.000000 0.000000
0.074917 0.024948 0.000000
0.075001 0.050040 0.000000
0.074933 0.074996 0.000000
0.074986 0.100025 0.000000
0.074942 0.125080 0.000000
0.074985 0.149982 0.000000
0.074938 0.175155 0.000000
0.074985 0.199988 0.000000
0.074944 0.225177 0.000000
0.074969 0.250039 0.000000
0.074955 0.275172 0.000000
0.074956 0.300088 0.000000
0.074946 0.325183 0.000000
0.074959 0.350124 0.000000
0.074920 0.375195 0.000000
0.074960 0.400163 0.000000
0.074872 0.425257 0.000000
0.074949 0.450099 0.000000
0.074780 0.475429 0.000000
0.074887 0.500053 0.000000
0.074664 0.525532 0.000000
0.074734 0.549949 0.000000
0.081994 0.575059 0.000000
0.082000 0.600000 0.000000
0.100000 -0.075000 0.000000
0.100000 -0.050000 0.000000
0.100000 -0.025000 0.000000
0.100000 0.000000 0.000000
0.099934 0.024948 0.000000
0.099936 0.049984 0.000000
0.099959 0.075014 0.000000
0.099945 0.099982 0.000000
0.099941 0.125073 0.000000
0.099957 0.149978 0.000000
0.099930 0.175141 0.000000
0.099958 0.199989 0.000000
0.099926 0.225173 0.000000
0.099964 0.250041 0.000000
0.099906 0.275192 0.000000
0.099983 0.300083 0.000000
0.099870 0.325229 0.000000
0.099996 0.350128 0.000000
0.099829 0.375275 0.000000
0.099982 0.400157 0.000000
0.099781 0.425347 0.000000
0.099919 0.450181 0.000000
0.099778 0.475362 0.000000
0.099755 0.500179 0.000000
0.099792 0.525361 0.000000
0.099665 0.549955 0.000000
0.106999 0.575079 0.000000
0.107000 0.600000 0.000000
0.125000 -0.075000 0.000000
0.125000 -0.050000 0.000000
0.125000 -0.025000 0.000000
0.125000 0.000000 0.000000
0.124924 0.024962 0.000000
0.124939 0.050011 0.000000
0.124929 0.075009 0.000000
0.124932 0.100000 0.000000
0.124939 0.125098 0.000000
0.124926 0.149964 0.000000
0.124936 0.175164 0.000000
0.124930 0.199978 0.000000
0.124920 0.225189 0.000000
0.124944 0.250019 0.000000
0.124897 0.275209 0.000000
0.124949 0.300066 0.000000
0.124885 0.325219 0.000000
0.124923 0.350126 0.000000
0.124887 0.375208 0.000000
0.124883 0.400193 0.000000
0.124892 0.425203 0.000000
0.124829 0.450185 0.000000
0.124857 0.475289 0.000000
0.124792 0.500131 0.000000
0.124869 0.525305 0.000000
0.124767 0.549931 0.000000
0.132001 0.575087 0.000000
0.132000 0.600000 0.000000
0.150000 -0.075000 0.000000
0.150000 -0.050000 0.000000
0.150000 -0.025000 0.000000
0.150000 0.000000 0.000000
0.149897 0.024956 0.000000
0.149933 0.050001 0.000000
0.149909 0.075014 0.000000
0.149938 0.099991 0.000000
0.149899 0.125072 0.000000
0.149939 0.149980 0.000000
0.149902 0.175148 0.000000
0.149928 0.199974 0.000000
0.149902 0.225194 0.000000
0.149920 0.250014 0.000000
0.149902 0.275202 0.000000
0.149905 0.300080 0.000000
0.149904 0.325193 0.000000
0.149893 0.350144 0.000000
0.149877 0.375202 0.000000
0.149900 0.400165 0.000000
0.149812 0.425255 0.000000
0.149882 0.450173 0.000000
0.149797 0.475252 0.000000
0.149808 0.500156 0.000000
0.149815 0.525279 0.000000
0.149823 0.549979 0.000000
0.157001 0.575094 0.000000
0.157000 0.600000 0.000000
0.175000 -0.075000 0.000000
0.175000 -0.050000 0.000000
0.175000 -0.025000 0.000000
0.175000 0.000000 0.000000
0.174901 0.024952 0.000000
0.174910 0.050004 0.000000
0.174905 0.075011 0.000000
0.174903 0.099991 0.000000
0.174910 0.125097 0.000000
0.174903 0.149963 0.000000
0.174894 0.175157 0.000000
0.174915 0.199980 0.000000
0.174886 0.225179 0.000000
0.174904 0.250025 0.000000
0.174892 0.275183 0.000000
0.174892 0.300073 0.000000
0.174871 0.325204 0.000000
0.174902 0.350099 0.000000
0.174832 0.375230 0.000000
0.174888 0.400159 0.000000
0.174840 0.425196 0.000000
0.174839 0.450205 0.000000
0.174837 0.475221 0.000000
0.174831 0.500165 0.000000
0.174875 0.525246 0.000000
0.174818 0.550010 0.000000
0.182001 0.575102 0.000000
0.182000 0.600000 0.000000
0.200000 -0.075000 0.000000
0.200000 -0.050000 0.000000
0.200000 -0.025000 0.000000
0.200000 0.000000 0.000000
0.199880 0.024955 0.000000
0.199896 0.050004 0.000000
0.199892 0.075013 0.000000
0.199900 0.099990 0.000000
0.199887 0.125079 0.000000
0.199894 0.149965 0.000000
0.199894 0.175160 0.000000
0.199882 0.199964 0.000000
0.199888 0.225183 0.000000
0.199885 0.250022 0.000000
0.199870 0.275191 0.000000
0.199890 0.300062 0.000000
0.199854 0.325216 0.000000
0.199873 0.350112 0.000000
0.199867 0.375196 0.000000
0.199842 0.400178 0.000000
0.199846 0.425194 0.000000
0.199835 0.450188 0.000000
0.199836 0.475203 0.000000
0.199819 0.500163 0.000000
0.199864 0.525234 0.000000
0.199828 0.550043 0.000000
0.207002 0.575109 0.000000
0.207000 0.600000 0.000000
0.225000 -0.075000 0.000000
0.225000 -0.050000 0.000000
0.225000 -0.025000 0.000000
0.225000 0.000000 0.000000
0.224874 0.024957 0.000000
0.224886 0.050003 0.000000
0.224876 0.075010 0.000000
0.224883 0.099988 0.000000
0.224876 0.125089 0.000000
0.224885 0.149967 0.000000
0.224867 0.175146 0.000000
0.224879 0.199975 0.000000
0.224871 0.225182 0.000000
0.224869 0.250006 0.000000
0.224861 0.275195 0.000000
0.224862 0.300059 0.000000
0.224861 0.325187 0.000000
0.224843 0.350113 0.000000
0.224844 0.375194 0.000000
[...]
<PointData>
<DataArray NumberOfComponents='1' type='Int32' Name='ParticleType' format='ascii'>
3
3
3
3
3
3
3
3
3
3
3
3
3
3
3
3
3
3
3
3
3
3
3
3
3
3
3
3
3
3
3
3
3
3
3
3
3
3
3
3
3
3
3
3
3
3
3
3
3
3
3
3
3
3
3
3
3
3
2
2
2
2
2
2
2
2
2
2
2
2
2
2
2
2
2
2
2
2
2
2
2
2
2
2
3
3
2
2
2
2
2
2
2
2
2
2
2
2
2
2
2
2
2
2
2
2
2
2
2
2
2
2
3
3
2
2
0
0
0
0
0
0
0
0
0
0
0
0
0
0
0
0
0
0
0
0
0
0
0
0
3
3
2
2
0
0
0
0
0
0
0
0
0
0
0
0
0
0
0
0
0
0
0
0
0
0
0
0
3
3
2
2
0
0
0
0
0
0
0
0
0
0
0
0
0
0
0
0
0
0
0
0
0
0
0
0
3
3
2
2
0
0
0
0
0
0
0
0
0
0
0
0
0
0
0
0
0
0
0
0
0
0
0
0
3
3
2
2
0
0
0
0
0
0
0
0
0
0
0
0
0
0
0
0
0
0
0
0
0
0
0
0
3
3
2
2
0
0
0
0
0
0
0
0
0
0
0
0
0
0
0
0
0
0
0
0
0
0
0
0
3
3
2
2
0
0
0
0
0
0
0
0
0
0
0
0
0
0
0
0
0
0
0
0
0
0
0
0
3
3
2
2
0
0
0
0
0
0
0
0
0
0
0
0
0
0
0
0
0
0
0
0
0
0
0
0
3
3
2
2
0
0
0
0
0
0
0
0
0
0
0
0
0
0
0
0
0
0
0
0
0
0
0
0
3
3
2
2
0
0
0
0
0
0
0
0
0
0
0
0
0
0
0
0
0
0
0
0
0
0
0
0
3
3
2
2
0
0
0
0
0
0
0
0
0
0
0
0
0
0
0
0
0
0
0
0
0
0
0
0
3
3
2
2
0
0
0
0
0
0
0
0
0
0
0
0
0
0
0
0
0
0
0
0
0
0
0
0
3
3
2
2
0
0
0
0
0
0
0
0
0
0
0
0
0
0
0
0
0
0
0
0
0
0
0
0
3
3
2
2
0
0
0
0
0
0
0
0
0
0
0
0
0
0
0
0
0
0
0
0
0
0
0
0
3
3
2
2
0
0
0
0
0
0
0
0
0
0
0
0
0
0
0
0
0
0
0
0
0
0
0
0
3
3
2
2
0
0
0
0
0
0
0
0
0
0
0
0
0
0
0
0
0
0
0
0
0
0
0
0
3
3
2
2
0
0
0
0
0
0
0
0
0
0
0
0
0
0
0
0
0
0
0
0
0
0
0
0
3
3
2
2
0
0
0
0
0
0
0
0
0
0
0
0
0
0
0
0
0
0
0
0
0
0
0
0
3
3
2
2
0
0
0
0
0
0
0
0
0
0
0
0
0
0
0
0
0
0
0
0
0
0
0
0
3
3
2
2
0
0
0
0
0
0
0
0
0
0
0
0
0
0
0
0
0
0
0
0
0
0
0
0
3
3
2
2
0
0
0
0
0
0
0
0
0
0
0
0
0
0
0
0
0
0
0
0
0
0
0
0
3
3
2
2
0
0
0
0
0
0
0
0
0
0
0
0
0
0
0
0
0
0
0
0
0
0
0
0
3
3
2
2
0
0
0
0
0
0
0
0
0
0
0
0
0
0
0
0
0
0
0
0
0
0
0
0
3
3
2
2
0
0
0
0
0
0
0
0
0
0
0
0
0
0
0
0
0
0
0
0
0
0
0
0
3
3
2
2
0
0
0
0
0
0
0
0
0
0
0
0
0
0
0
0
0
0
0
0
0
0
0
0
3
3
2
2
0
0
0
0
0
0
0
0
0
0
0
0
0
0
0
0
0
0
0
0
0
0
0
0
3
3
2
2
0
0
0
0
0
0
0
0
0
0
0
0
0
0
0
0
0
0
0
0
0
0
0
0
3
3
2
2
0
0
0
0
0
0
0
0
0
0
0
0
0
0
0
0
0
0
0
0
0
0
0
0
3
3
2
2
0
0
0
0
0
0
0
0
0
0
0
0
0
0
0
0
0
0
0
0
0
0
0
0
3
3
2
2
0
0
0
0
0
0
0
0
0
0
0
0
0
0
0
0
0
0
0
0
0
0
0
0
3
3
2
2
0
0
0
0
0
0
0
0
0
0
0
0
0
0
0
0
0
0
0
0
0
0
0
0
3
3
2
2
0
0
0
0
0
0
0
0
0
0
0
0
0
0
0
0
0
0
0
0
0
0
0
0
3
3
2
2
0
0
0
0
0
0
0
0
0
0
0
0
0
0
0
0
0
0
0
0
0
0
0
0
3
3
2
2
0
0
0
0
0
0
0
0
0
0
0
0
0
0
0
0
0
0
0
0
0
0
0
0
3
3
2
2
0
0
0
0
0
0
0
0
0
0
0
0
0
0
0
0
0
0
0
0
0
0
0
0
3
3
2
2
0
0
0
0
0
0
0
0
0
0
0
0
0
0
0
0
0
0
0
0
0
0
0
0
3
3
2
2
0
0
0
0
0
0
0
0
0
0
0
0
0
0
0
0
0
0
0
0
0
0
0
0
3
3
2
2
0
0
0
0
0
0
0
0
0
0
0
0
0
0
0
0
0
0
0
0
0
0
0
0
3
3
2
2
0
0
0
0
0
0
0
0
0
0
0
0
0
0
0
0
0
0
0
0
0
0
0
0
3
3
2
2
0
0
0
0
0
0
0
0
0
0
0
0
0
0
0
0
0
0
0
0
0
0
0
0
3
3
2
2
2
2
2
2
2
2
2
2
2
2
2
2
2
2
2
2
2
2
2
2
2
2
2
2
3
3
2
2
2
2
2
2
2
2
2
2
2
2
2
2
2
2
2
2
2
2
2
2
2
2
2
2
3
3
3
3
3
3
3
3
3
3
3
3
3
3
3
3
3
3
3
3
3
3
3
3
3
3
3
3
3
3
3
3
3
3
3
3
3
3
3
3
3
3
3
3
3
3
3
3
3
3
3
3
3
3
3
3
</DataArray>
<DataArray NumberOfComponents='1' type='Float32' Name='Velocity' format='ascii'>
0.000000
0.000000
0.000000
0.000000
0.000000
0.000000
0.000000
0.000000
0.000000
0.000000
0.000000
0.000000
0.000000
0.000000
0.000000
0.000000
0.000000
0.000000
0.000000
0.000000
0.000000
0.000000
0.000000
0.000000
0.000000
0.000000
0.000000
0.000000
0.000000
0.000000
0.000000
0.000000
0.000000
0.000000
0.000000
0.000000
0.000000
0.000000
0.000000
0.000000
0.000000
0.000000
0.000000
0.000000
0.000000
0.000000
0.000000
0.000000
0.000000
0.000000
0.000000
0.000000
0.000000
0.000000
0.000000
0.000000
0.000000
0.000000
0.000000
0.000000
0.000000
0.000000
0.000000
0.000000
0.000000
0.000000
0.000000
0.000000
0.000000
0.000000
0.000000
0.000000
0.000000
0.000000
0.000000
0.000000
0.000000
0.000000
0.000000
0.000000
0.000000
0.000000
0.000000
0.000000
0.000000
0.000000
0.000000
0.000000
0.000000
0.000000
0.000000
0.000000
0.000000
0.000000
0.000000
0.000000
0.000000
0.000000
0.000000
0.000000
0.000000
0.000000
0.000000
0.000000
0.000000
0.000000
0.000000
0.000000
0.000000
0.000000
0.000000
0.000000
0.000000
0.000000
0.000000
0.000000
0.000802
0.000150
0.003029
0.001787
0.006704
0.003522
0.009999
0.004038
0.008431
0.006097
0.005434
0.012604
0.005946
0.019484
0.007794
0.024152
0.014475
0.027136
0.021591
0.037531
0.029003
0.060487
0.100000
0.100000
0.000000
0.000000
0.000000
0.000000
0.001563
0.000621
0.003510
0.001646
0.008499
0.002697
0.008328
0.004452
0.001916
0.013261
0.003296
0.017827
0.003212
0.019568
0.003085
0.016490
0.009464
0.018614
0.011139
0.023553
0.022248
0.047072
0.100000
0.100000
0.000000
0.000000
0.000000
0.000000
0.001415
0.001744
0.005097
0.002568
0.008580
0.001330
0.005683
0.008553
0.002901
0.015131
0.003567
0.014341
0.004195
0.015139
0.005480
0.013127
0.012753
0.011634
0.011145
0.026303
0.006724
0.046032
0.100000
0.100000
0.000000
0.000000
0.000000
0.000000
0.002870
0.002133
0.005151
0.004140
0.008720
0.002643
0.004059
0.008857
0.003325
0.012145
0.006179
0.013407
0.006825
0.017440
0.006736
0.015967
0.008895
0.022537
0.004795
0.030353
0.006848
0.035374
0.100000
0.100000
0.000000
0.000000
0.000000
0.000000
0.002934
0.002342
0.005970
0.003056
0.008183
0.002025
0.005263
0.007846
0.004431
0.011426
0.004163
0.015685
0.004143
0.019813
0.004904
0.019957
0.003985
0.018573
0.002815
0.026516
0.005410
0.017322
0.100000
0.100000
0.000000
0.000000
0.000000
0.000000
0.003954
0.002820
0.006095
0.004789
0.008841
0.002597
0.006017
0.007968
0.005441
0.014016
0.005244
0.017173
0.005639
0.016800
0.008938
0.016536
0.008872
0.020812
0.008719
0.020712
0.010890
0.023396
0.100000
0.100000
0.000000
0.000000
0.000000
0.000000
0.003731
0.003928
0.006071
0.004582
0.008665
0.004594
0.006225
0.008464
0.004912
0.015014
0.006847
0.013892
0.008592
0.014863
0.008108
0.022180
0.007465
0.019862
0.007227
0.020329
0.007142
0.022258
0.100000
0.100000
0.000000
0.000000
0.000000
0.000000
0.004893
0.003989
0.006719
0.005549
0.009080
0.003604
0.005674
0.009045
0.004245
0.012679
0.006934
0.013499
0.006888
0.019714
0.008520
0.020491
0.008810
0.019295
0.008683
0.021048
0.007958
0.021997
0.100000
0.100000
0.000000
0.000000
0.000000
0.000000
0.004873
0.004608
0.006841
0.005353
0.009153
0.005277
0.006212
0.008990
0.006754
0.012252
0.006012
0.015801
0.006688
0.016894
0.009859
0.020450
0.009247
0.019400
0.008177
0.022802
0.008217
0.021188
0.100000
0.100000
0.000000
0.000000
0.000000
0.000000
0.005698
0.005065
0.007199
0.006483
0.008970
0.005252
0.006481
0.008575
0.006537
0.014011
0.007266
0.014545
0.008124
0.015910
0.009285
0.021380
0.010310
0.021191
0.008265
0.019762
0.009046
0.024058
0.100000
0.100000
0.000000
0.000000
0.000000
0.000000
0.005758
0.005536
0.007272
0.006341
0.009359
0.005738
0.007019
0.009356
0.006099
0.013483
0.007955
0.013500
0.008179
0.018244
0.009779
0.020340
0.009904
0.020221
0.009397
0.023321
0.008522
0.022469
0.100000
0.100000
0.000000
0.000000
0.000000
0.000000
0.006459
0.005959
0.007645
0.006954
0.009421
0.006541
0.006848
0.009444
0.007649
0.012901
0.007780
0.014902
0.008121
0.016623
0.010758
0.021860
0.010859
0.020027
0.009058
0.021843
0.009306
0.025526
0.100000
0.100000
0.000000
0.000000
0.000000
0.000000
0.006581
0.006350
0.007897
0.007545
0.009517
0.006488
0.007248
0.009572
0.007812
0.013468
0.008533
0.014432
0.009022
0.016820
0.010702
0.020984
0.011356
0.021957
0.009314
0.022457
0.009507
0.024535
0.100000
0.100000
0.000000
0.000000
0.000000
0.000000
0.007130
0.006793
0.008039
0.007456
0.009569
0.007265
0.007637
0.009744
0.008050
0.013616
0.009042
0.014128
0.009274
0.017470
0.011386
0.021241
0.011659
0.020674
0.010490
0.024308
0.010051
0.026481
0.100000
0.100000
0.000000
0.000000
0.000000
0.000000
0.007288
0.006968
0.008289
0.008257
0.009835
0.007493
0.007716
0.010037
0.008794
0.013457
0.009428
0.014572
0.009777
0.016954
0.012039
0.021812
0.012187
0.021546
0.009677
0.022921
0.009934
0.027189
0.100000
0.100000
0.000000
0.000000
0.000000
0.000000
0.007698
0.007497
0.008535
0.008309
0.009793
0.007762
0.007989
0.010186
0.009104
0.013603
0.009894
0.014470
0.010258
0.017244
0.012418
0.021534
0.012979
0.022261
0.011397
0.025092
0.010680
0.027839
0.100000
0.100000
0.000000
0.000000
0.000000
0.000000
0.007892
0.007567
0.008609
0.008659
0.009954
0.008221
0.008243
0.010349
0.009578
0.013731
0.010412
0.014448
0.010758
0.017334
0.013102
0.021813
0.013266
0.021878
0.011168
0.024832
0.010909
0.029546
0.100000
0.100000
0.000000
0.000000
0.000000
0.000000
0.008120
0.007914
0.008833
0.008982
0.009990
0.008386
0.008378
0.010513
0.010017
0.013716
0.010825
0.014567
0.011234
0.017358
0.013681
0.022057
0.014058
0.022753
0.012051
0.025668
0.011449
0.029624
0.100000
0.100000
0.000000
0.000000
0.000000
0.000000
0.008350
0.008112
0.008924
0.009157
0.010026
0.008691
0.008601
0.010667
0.010447
0.013787
0.011316
0.014567
0.011780
0.017475
0.014382
0.022073
0.014771
0.022900
0.012905
0.026510
0.012300
0.029816
0.100000
0.100000
0.000000
0.000000
0.000000
0.000000
0.008414
0.008212
0.008972
0.009387
0.010034
0.008894
0.008722
0.010751
0.010850
0.013808
0.011737
0.014555
0.012239
0.017506
0.014959
0.022177
0.015297
0.023075
0.013376
0.026739
0.012659
0.028153
0.100000
0.100000
0.000000
0.000000
0.000000
0.000000
0.008608
0.008433
0.009069
0.009571
0.010004
0.009083
0.008881
0.010882
0.011297
0.013818
0.012216
0.014613
0.012838
0.017627
0.015787
0.022387
0.016330
0.023648
0.014703
0.027587
0.013614
0.026506
0.100000
0.100000
0.000000
0.000000
0.000000
0.000000
0.008575
0.008448
0.009058
0.009710
0.009946
0.009207
0.008944
0.010905
0.011664
0.013767
0.012628
0.014497
0.013248
0.017531
0.016379
0.022164
0.016746
0.023369
0.015053
0.027213
0.013368
0.024133
0.100000
0.100000
0.000000
0.000000
0.000000
0.000000
0.008640
0.008507
0.008964
0.009795
0.009849
0.009375
0.009095
0.010972
0.012117
0.013785
0.013087
0.014555
0.013954
0.017764
0.017232
0.022583
0.017922
0.024199
0.016615
0.027639
0.014278
0.022678
0.100000
0.100000
0.000000
0.000000
0.000000
0.000000
0.008587
0.008577
0.009017
0.009894
0.009602
0.009323
0.009054
0.010971
0.012509
0.013558
0.013413
0.014366
0.014260
0.017394
0.017846
0.021932
0.018197
0.023226
0.016287
0.025752
0.012595
0.020735
0.100000
0.100000
0.000000
0.000000
0.000000
0.000000
0.008428
0.008410
0.008751
0.009946
0.009627
0.009499
0.009177
0.010947
0.012886
0.013658
0.014073
0.014425
0.014910
0.017986
0.018874
0.022810
0.019368
0.024747
0.018107
0.026201
0.014422
0.021501
0.100000
0.100000
0.000000
0.000000
0.000000
0.000000
0.008390
0.008452
0.008574
0.009815
0.009002
0.009333
0.009195
0.010825
0.013264
0.013315
0.014042
0.013914
0.015649
0.017037
0.018988
0.021394
0.019559
0.022539
0.016456
0.022182
0.010641
0.019440
0.100000
0.100000
0.000000
0.000000
0.000000
0.000000
0.008020
0.008247
0.008564
0.009979
0.008972
0.009301
0.009116
0.011017
0.013967
0.013126
0.014608
0.014627
0.015709
0.018066
0.020924
0.023042
0.020389
0.024933
0.017856
0.023596
0.015087
0.023426
0.100000
0.100000
0.000000
0.000000
0.000000
0.000000
0.007915
0.008090
0.007827
0.009646
0.008561
0.009235
0.009169
0.010353
0.013799
0.012966
0.015541
0.013099
0.016116
0.016887
0.020300
0.020469
0.020890
0.021461
0.015940
0.018907
0.010041
0.019328
0.100000
0.100000
0.000000
0.000000
0.000000
0.000000
0.007364
0.007848
0.007971
0.009657
0.007693
0.008870
0.009468
0.010956
0.014577
0.012935
0.014526
0.013775
0.018673
0.017690
0.021150
0.023496
0.020637
0.023765
0.015839
0.020502
0.016388
0.026109
0.100000
0.100000
0.000000
0.000000
0.000000
0.000000
0.007205
0.007671
0.007095
0.009420
0.007669
0.008774
0.009156
0.010156
0.015382
0.011294
0.015190
0.013759
0.015642
0.015496
0.025106
0.017809
0.021074
0.020321
0.015234
0.020837
0.012335
0.020796
0.100000
0.100000
0.000000
0.000000
0.000000
0.000000
0.006467
0.007152
0.006952
0.009047
0.006649
0.008475
0.009503
0.009735
0.014806
0.012257
0.017433
0.012239
0.017776
0.018799
0.018227
0.022278
0.024036
0.018782
0.017512
0.017512
0.018165
0.027324
0.100000
0.100000
0.000000
0.000000
0.000000
0.000000
0.006154
0.007102
0.006131
0.008810
0.006121
0.007665
0.009770
0.010406
0.015123
0.010685
0.013984
0.010051
0.022644
0.011209
0.026092
0.017643
0.014497
0.022518
0.019484
0.026303
0.021117
0.025593
0.100000
0.100000
0.000000
0.000000
0.000000
0.000000
0.005415
0.006444
0.005579
0.008466
0.005232
0.007920
0.010439
0.008516
0.015761
0.009216
0.014092
0.014061
0.013547
0.015102
0.027810
0.012716
0.031206
0.017872
0.019123
0.019269
0.018888
0.024876
0.100000
0.100000
0.000000
0.000000
0.000000
0.000000
0.005034
0.005874
0.005080
0.007570
0.004846
0.006395
0.009564
0.007045
0.015360
0.007230
0.017608
0.007423
0.019345
0.015787
0.013212
0.024228
0.020856
0.011705
0.038884
0.030957
0.044240
0.037603
0.100000
0.100000
0.000000
0.000000
0.000000
0.000000
0.004012
0.005542
0.004206
0.007318
0.004137
0.006813
0.010159
0.008040
0.013350
0.007656
0.013774
0.006581
0.022719
0.005377
0.028826
0.016402
0.015208
0.044716
0.021092
0.018812
0.026868
0.023852
0.100000
0.100000
0.000000
0.000000
0.000000
0.000000
0.003372
0.005095
0.002981
0.006483
0.003602
0.005469
0.009506
0.004867
0.012209
0.007986
0.011429
0.012872
0.015832
0.013955
0.026518
0.016025
0.043827
0.022922
0.036179
0.050825
0.063595
0.055866
0.100000
0.100000
0.000000
0.000000
0.000000
0.000000
0.003058
0.004280
0.003132
0.005882
0.003787
0.004680
0.009150
0.003790
0.011226
0.006969
0.010855
0.011107
0.011213
0.017567
0.009396
0.029162
0.023831
0.026845
0.057164
0.024688
0.057752
0.040329
0.100000
0.100000
0.000000
0.000000
0.000000
0.000000
0.001886
0.003269
0.001924
0.005243
0.002814
0.004578
0.007507
0.004193
0.010995
0.007527
0.015462
0.008694
0.021735
0.017196
0.018432
0.037331
0.016935
0.055139
0.011911
0.060170
0.113706
0.077854
0.100000
0.100000
0.000000
0.000000
0.000000
0.000000
0.001082
0.003227
0.000982
0.005000
0.001735
0.005780
0.005302
0.006250
0.006980
0.008245
0.011552
0.004593
0.021758
0.003438
0.025530
0.008442
0.010648
0.028579
0.050952
0.061819
0.024563
0.112977
0.100000
0.100000
0.000000
0.000000
0.000000
0.000000
0.000551
0.002809
0.001136
0.005548
0.002798
0.007653
0.004231
0.010435
0.005867
0.014223
0.010293
0.015045
0.022575
0.012850
0.043028
0.007164
0.066204
0.017356
0.069785
0.037521
0.099275
0.277683
0.100000
0.100000
0.000000
0.000000
0.000000
0.000000
0.000000
0.000000
0.000000
0.000000
0.000000
0.000000
0.000000
0.000000
0.000000
0.000000
0.000000
0.000000
0.000000
0.000000
0.000000
0.000000
0.000000
0.000000
0.000000
0.000000
0.000000
0.000000
0.000000
0.000000
0.000000
0.000000
0.000000
0.000000
0.000000
0.000000
0.000000
0.000000
0.000000
0.000000
0.000000
0.000000
0.000000
0.000000
0.000000
0.000000
0.000000
0.000000
0.000000
0.000000
0.000000
0.000000
0.000000
0.000000
0.000000
0.000000
0.000000
0.000000
0.000000
0.000000
0.000000
0.000000
0.000000
0.000000
0.000000
0.000000
0.000000
0.000000
0.000000
0.000000
0.000000
0.000000
0.000000
0.000000
0.000000
0.000000
0.000000
0.000000
0.000000
0.000000
0.000000
0.000000
0.000000
0.000000
0.000000
0.000000
0.000000
0.000000
0.000000
0.000000
0.000000
0.000000
0.000000
0.000000
0.000000
0.000000
0.000000
0.000000
0.000000
0.000000
0.000000
0.000000
0.000000
0.000000
0.000000
0.000000
0.000000
0.000000
0.000000
0.000000
0.000000
0.000000
0.000000
0.000000
</DataArray>
<DataArray NumberOfComponents='1' type='Float32' Name='pressure' format='ascii'>
0.000000
0.000000
0.000000
0.000000
0.000000
0.000000
0.000000
0.000000
0.000000
0.000000
0.000000
0.000000
0.000000
0.000000
0.000000
0.000000
0.000000
0.000000
0.000000
0.000000
0.000000
0.000000
0.000000
0.000000
0.000000
0.000000
0.000000
0.000000
0.000000
0.000000
0.000000
0.000000
0.000000
0.000000
0.000000
0.000000
0.000000
0.000000
0.000000
0.000000
0.000000
0.000000
0.000000
0.000000
0.000000
0.000000
0.000000
0.000000
0.000000
0.000000
0.000000
0.000000
0.000000
0.000000
0.000000
0.000000
0.000000
0.000000
5530.098145
5479.287109
5385.087891
5154.807129
4941.710938
4687.631348
4450.819336
4191.036621
3966.590088
3688.443604
3481.112305
3183.634521
2992.321777
2682.153320
2496.979980
2187.914551
1999.225098
1695.543579
1491.706543
1207.594849
967.862793
573.128296
203.693970
0.000000
0.000000
0.000000
0.000000
0.000000
5565.014648
5585.271484
5451.152344
5176.151855
4956.494141
4681.137695
4464.186035
4175.574219
3985.523926
3670.263184
3498.341797
3170.063965
2999.631836
2679.250732
2491.062744
2195.557861
1989.912109
1690.186157
1505.874390
1197.088257
1008.526672
656.906433
528.332458
0.000000
0.000000
0.000000
0.000000
0.000000
5637.912598
5667.272949
5456.620117
5160.095703
4958.818359
4662.303223
4481.641602
4154.262695
3997.659912
3661.130371
3485.679199
3189.198975
2962.210938
2711.119141
2445.628174
2214.717773
1944.877563
1682.959106
1479.784546
1112.715576
1000.458008
566.472473
575.746399
0.000000
0.000000
0.000000
0.000000
0.000000
5631.230469
5657.938965
5446.467285
5167.191895
4971.753906
4652.858887
4500.606934
4142.658203
4000.016602
3686.013184
3448.834229
3236.869873
2926.773438
2744.422607
2433.190674
2234.155029
1964.047607
1675.688477
1544.562378
1122.654663
1053.697266
621.794434
554.949890
0.000000
0.000000
0.000000
0.000000
0.000000
5645.618164
5660.813477
5452.828613
5160.533203
4968.110840
4648.783691
4498.443848
4156.000000
3973.321289
3722.135742
3414.697998
3258.053955
2929.038330
2732.197266
2452.836182
2218.445801
1964.509399
1669.988647
1526.659302
1091.821655
1004.262329
613.026978
535.783264
185.421677
0.000000
0.000000
0.000000
0.000000
5647.479492
5659.295410
5454.675293
5159.882324
4981.627930
4645.216309
4502.422363
4160.646484
3965.566406
3728.292969
3424.362793
3237.868164
2956.473877
2717.618652
2457.139160
2231.699951
1963.094238
1694.923828
1522.260620
1166.748901
1016.877075
688.569763
465.502625
197.374130
0.000000
0.000000
0.000000
0.000000
5643.786621
5657.050781
5456.908691
5158.279785
4977.932129
4643.799316
4504.721680
4161.368652
3973.932373
3715.778076
3444.524902
3233.939209
2941.475098
2753.336914
2425.601074
2263.459473
1933.669556
1736.786865
1466.371704
1190.221680
962.256897
702.618530
492.497253
115.274063
0.000000
0.000000
0.000000
0.000000
5646.659180
5658.043457
5460.435059
5157.728516
4987.034668
4647.191406
4505.556641
4158.494141
3984.623047
3708.346680
3447.421875
3248.252197
2924.686035
2768.797852
2430.163086
2259.729736
1946.061401
1745.601562
1470.726196
1224.219849
999.061035
685.428772
545.742004
172.302155
0.000000
0.000000
0.000000
0.000000
5649.513672
5661.410156
5459.927246
5161.090332
4981.649902
4646.305176
4508.511719
4164.187012
3981.859375
3721.651123
3439.487793
3257.577148
2944.030029
2744.300293
2468.167480
2245.287842
1941.738892
1774.418335
1451.883179
1221.067749
997.238464
686.269104
509.396393
201.756363
0.000000
0.000000
0.000000
0.000000
5650.081055
5663.839355
5462.412109
5162.105469
4987.795898
4651.646484
4510.778320
4160.409668
3983.797119
3728.766113
3435.004883
3252.837646
2961.890137
2737.323730
2460.252930
2276.040283
1930.138306
1785.552979
1461.508545
1239.463867
1006.200012
725.162842
496.236145
199.721252
0.000000
0.000000
0.000000
0.000000
5650.869629
5661.930176
5464.494141
5163.167969
4988.922852
4647.878418
4512.791504
4170.529297
3986.954346
3719.578857
3456.952393
3249.062500
2953.594727
2766.235107
2451.444580
2269.968018
1957.287720
1786.108154
1462.128052
1244.440674
996.976379
734.048523
518.474792
221.120911
0.000000
0.000000
0.000000
0.000000
5653.456543
5666.192383
5467.693848
5164.786133
4991.522461
4655.983887
4515.103027
4168.684082
3986.894531
3727.099609
3458.071533
3254.851562
2953.725098
2761.011230
2475.952637
2264.380127
1945.672485
1796.856445
1475.213257
1269.386719
1000.989502
731.317505
511.628632
239.271973
0.000000
0.000000
0.000000
0.000000
5654.697266
5666.470703
5468.565918
5167.103516
4994.123535
4654.441895
4514.226562
4172.467773
3996.087646
3731.150879
3451.012207
3265.721924
2970.222412
2752.817139
2477.530273
2286.483398
1956.221680
1798.879761
1460.925415
1265.781006
1020.521790
764.251038
510.950043
241.524643
0.000000
0.000000
0.000000
0.000000
5656.967773
5669.584961
5472.544434
5168.576660
4994.934570
4657.861816
4522.035156
4177.423340
3992.281006
3732.010010
3461.755859
3261.777100
2969.281738
2768.470459
2474.954346
2280.731445
1967.078735
1818.177124
1479.291870
1275.931885