<?xml version='1.0' encoding='UTF-8'?>
<VTKFile xmlns='VTK' byte_order='LittleEndian' version='0.1' type='UnstructuredGrid'>
<UnstructuredGrid>
<Piece NumberOfCells='1344' NumberOfPoints='1344'>
<Points>
<DataArray NumberOfComponents='3' type='Float32' Name='Position' format='ascii'>
-0.075000 -0.075000 0.000000
-0.075000 -0.050000 0.000000
-0.075000 -0.025000 0.000000
-0.075000 0.000000 0.000000
-0.075000 0.025000 0.000000
-0.075000 0.050000 0.000000
-0.075000 0.075000 0.000000
-0.075000 0.100000 0.000000
-0.075000 0.125000 0.000000
-0.075000 0.150000 0.000000
-0.075000 0.175000 0.000000
-0.075000 0.200000 0.000000
-0.075000 0.225000 0.000000
-0.075000 0.250000 0.000000
-0.075000 0.275000 0.000000
-0.075000 0.300000 0.000000
-0.075000 0.325000 0.000000
-0.075000 0.350000 0.000000
-0.075000 0.375000 0.000000
-0.075000 0.400000 0.000000
-0.075000 0.425000 0.000000
-0.075000 0.450000 0.000000
-0.075000 0.475000 0.000000
-0.075000 0.500000 0.000000
-0.075000 0.525000 0.000000
-0.075000 0.550000 0.000000
-0.075000 0.575000 0.000000
-0.075000 0.600000 0.000000
-0.050000 -0.075000 0.000000
-0.050000 -0.050000 0.000000
-0.050000 -0.025000 0.000000
-0.050000 0.000000 0.000000
-0.050000 0.025000 0.000000
-0.050000 0.050000 0.000000
-0.050000 0.075000 0.000000
-0.050000 0.100000 0.000000
-0.050000 0.125000 0.000000
-0.050000 0.150000 0.000000
-0.050000 0.175000 0.000000
-0.050000 0.200000 0.000000
-0.050000 0.225000 0.000000
-0.050000 0.250000 0.000000
-0.050000 0.275000 0.000000
-0.050000 0.300000 0.000000
-0.050000 0.325000 0.000000
-0.050000 0.350000 0.000000
-0.050000 0.375000 0.000000
-0.050000 0.400000 0.000000
-0.050000 0.425000 0.000000
-0.050000 0.450000 0.000000
-0.050000 0.475000 0.000000
-0.050000 0.500000 0.000000
-0.050000 0.525000 0.000000
-0.050000 0.550000 0.000000
-0.050000 0.575000 0.000000
-0.050000 0.600000 0.000000
-0.025000 -0.075000 0.000000
-0.025000 -0.050000 0.000000
-0.025000 -0.025000 0.000000
-0.025000 0.000000 0.000000
-0.025000 0.025000 0.000000
-0.025000 0.050000 0.000000
-0.025000 0.075000 0.000000
-0.025000 0.100000 0.000000
-0.025000 0.125000 0.000000
-0.025000 0.150000 0.000000
-0.025000 0.175000 0.000000
-0.025000 0.200000 0.000000
-0.025000 0.225000 0.000000
-0.025000 0.250000 0.000000
-0.025000 0.275000 0.000000
-0.025000 0.300000 0.000000
-0.025000 0.325000 0.000000
-0.025000 0.350000 0.000000
-0.025000 0.375000 0.000000
-0.025000 0.400000 0.000000
-0.025000 0.425000 0.000000
-0.025000 0.450000 0.000000
-0.025000 0.475000 0.000000
-0.025000 0.500000 0.000000
-0.025000 0.525000 0.000000
-0.025000 0.550000 0.000000
-0.025000 0.575000 0.000000
-0.025000 0.600000 0.000000
0.000000 -0.075000 0.000000
0.000000 -0.050000 0.000000
0.000000 -0.025000 0.000000
0.000000 0.000000 0.000000
0.000000 0.025000 0.000000
0.000000 0.050000 0.000000
0.000000 0.075000 0.000000
0.000000 0.100000 0.000000
0.000000 0.125000 0.000000
0.000000 0.150000 0.000000
0.000000 0.175000 0.000000
0.000000 0.200000 0.000000
0.000000 0.225000 0.000000
0.000000 0.250000 0.000000
0.000000 0.275000 0.000000
0.000000 0.300000 0.000000
0.000000 0.325000 0.000000
0.000000 0.350000 0.000000
0.000000 0.375000 0.000000
0.000000 0.400000 0.000000
0.000000 0.425000 0.000000
0.000000 0.450000 0.000000
0.000000 0.475000 0.000000
0.000000 0.500000 0.000000
0.000000 0.525000 0.000000
0.000000 0.550000 0.000000
0.000000 0.575000 0.000000
0.000000 0.600000 0.000000
0.025000 -0.075000 0.000000
0.025000 -0.050000 0.000000
0.025000 -0.025000 0.000000
0.025000 0.000000 0.000000
0.024178 0.026006 0.000000
0.038230 0.045362 0.000000
0.021891 0.063078 0.000000
0.024206 0.115709 0.000000
0.022819 0.179588 0.000000
0.025540 0.203567 0.000000
0.025476 0.227483 0.000000
0.030899 0.249836 0.000000
0.021775 0.270427 0.000000
0.026753 0.298303 0.000000
0.024704 0.321848 0.000000
0.025063 0.348604 0.000000
0.024716 0.371770 0.000000
0.025751 0.396663 0.000000
0.023690 0.424417 0.000000
0.025230 0.452046 0.000000
0.026433 0.475438 0.000000
0.023052 0.498255 0.000000
0.021341 0.538283 0.000000
0.023965 0.567099 0.000000
0.032438 0.590922 0.000000
0.014086 0.600000 0.000000
0.086493 0.600000 0.000000
0.106348 0.600000 0.000000
0.050000 -0.075000 0.000000
0.050000 -0.050000 0.000000
0.050000 -0.025000 0.000000
0.050000 0.000000 0.000000
0.049507 0.024549 0.000000
0.063725 0.057091 0.000000
0.052248 0.076424 0.000000
0.027017 0.086705 0.000000
0.024161 0.140988 0.000000
0.039723 0.159687 0.000000
0.048713 0.180435 0.000000
0.049279 0.222159 0.000000
0.052843 0.263840 0.000000
0.048986 0.286060 0.000000
0.048589 0.312636 0.000000
0.049154 0.337378 0.000000
0.055545 0.361744 0.000000
0.050461 0.382219 0.000000
0.047791 0.407422 0.000000
0.044732 0.432661 0.000000
0.054756 0.456072 0.000000
0.052366 0.479980 0.000000
0.035709 0.520197 0.000000
0.043891 0.553601 0.000000
0.059312 0.576433 0.000000
0.048767 0.600000 0.000000
0.115649 0.581625 0.000000
0.127666 0.600000 0.000000
0.075000 -0.075000 0.000000
0.075000 -0.050000 0.000000
0.075000 -0.025000 0.000000
0.075000 0.000000 0.000000
0.073765 0.027677 0.000000
0.085744 0.052869 0.000000
0.076838 0.082369 0.000000
0.046694 0.131680 0.000000
0.073833 0.128083 0.000000
0.077544 0.171036 0.000000
0.060500 0.196710 0.000000
0.065200 0.233786 0.000000
0.075438 0.261740 0.000000
0.075182 0.286017 0.000000
0.077890 0.308576 0.000000
0.073431 0.332272 0.000000
0.080812 0.357091 0.000000
0.079001 0.385640 0.000000
0.072897 0.408565 0.000000
0.072746 0.439734 0.000000
0.079671 0.463319 0.000000
0.070923 0.494981 0.000000
0.053718 0.507438 0.000000
0.061644 0.536895 0.000000
0.074769 0.555578 0.000000
0.066761 0.600000 0.000000
0.147370 0.600000 0.000000
0.166619 0.600000 0.000000
0.100000 -0.075000 0.000000
0.100000 -0.050000 0.000000
0.100000 -0.025000 0.000000
0.100000 0.000000 0.000000
0.095143 0.023177 0.000000
0.100777 0.075815 0.000000
0.070333 0.103541 0.000000
0.044271 0.102647 0.000000
0.097497 0.145607 0.000000
0.066686 0.148211 0.000000
0.091533 0.193750 0.000000
0.080925 0.215094 0.000000
0.093999 0.237606 0.000000
0.099326 0.263199 0.000000
0.105293 0.287939 0.000000
0.101840 0.311936 0.000000
0.097537 0.336764 0.000000
0.101505 0.368797 0.000000
0.100673 0.394073 0.000000
0.092540 0.418876 0.000000
0.097515 0.444800 0.000000
0.092939 0.486570 0.000000
0.099441 0.509494 0.000000
0.109524 0.532364 0.000000
0.082797 0.527754 0.000000
0.087720 0.577265 0.000000
0.168880 0.576527 0.000000
0.186290 0.600000 0.000000
0.125000 -0.075000 0.000000
0.125000 -0.050000 0.000000
0.125000 -0.025000 0.000000
0.125000 0.000000 0.000000
0.111503 0.041227 0.000000
0.118318 0.064776 0.000000
0.108570 0.100537 0.000000
0.096640 0.116730 0.000000
0.118303 0.138020 0.000000
0.098422 0.170362 0.000000
0.124995 0.180043 0.000000
0.108397 0.212741 0.000000
0.117447 0.234781 0.000000
0.121943 0.264427 0.000000
0.128119 0.296796 0.000000
0.123910 0.325422 0.000000
0.123302 0.348772 0.000000
0.125638 0.372893 0.000000
0.126329 0.402617 0.000000
0.118074 0.425652 0.000000
0.112593 0.462764 0.000000
0.119169 0.485118 0.000000
0.125133 0.508852 0.000000
0.126817 0.555394 0.000000
0.142450 0.577531 0.000000
0.101409 0.554045 0.000000
0.196665 0.578881 0.000000
0.206403 0.600000 0.000000
0.150000 -0.075000 0.000000
0.150000 -0.050000 0.000000
0.150000 -0.025000 0.000000
0.150000 0.000000 0.000000
0.133447 0.022600 0.000000
0.134292 0.046605 0.000000
0.141879 0.081417 0.000000
0.128178 0.112488 0.000000
0.149369 0.127553 0.000000
0.131211 0.156028 0.000000
0.148490 0.179986 0.000000
0.130682 0.202868 0.000000
0.141894 0.229147 0.000000
0.143280 0.256363 0.000000
0.146252 0.283567 0.000000
0.149892 0.311107 0.000000
0.148266 0.336675 0.000000
0.150059 0.360294 0.000000
0.147403 0.385801 0.000000
0.145660 0.415077 0.000000
0.136518 0.438429 0.000000
0.137639 0.463977 0.000000
0.147408 0.488611 0.000000
0.152506 0.512360 0.000000
0.139059 0.533440 0.000000
0.154931 0.552387 0.000000
0.222229 0.589185 0.000000
0.237458 0.600000 0.000000
0.175000 -0.075000 0.000000
0.175000 -0.050000 0.000000
0.175000 -0.025000 0.000000
0.175000 0.000000 0.000000
0.158896 0.025661 0.000000
0.166250 0.046704 0.000000
0.158796 0.067543 0.000000
0.148807 0.100843 0.000000
0.173128 0.122491 0.000000
0.154754 0.151680 0.000000
0.170008 0.181152 0.000000
0.154765 0.209296 0.000000
0.179572 0.216697 0.000000
0.166077 0.237956 0.000000
0.165276 0.265979 0.000000
0.173772 0.289803 0.000000
0.173354 0.315928 0.000000
0.176027 0.337853 0.000000
0.175274 0.362695 0.000000
0.171026 0.390836 0.000000
0.175376 0.413400 0.000000
0.165228 0.433513 0.000000
0.161567 0.459860 0.000000
0.171393 0.482114 0.000000
0.177266 0.506461 0.000000
0.170174 0.531158 0.000000
0.247927 0.575600 0.000000
0.256240 0.600000 0.000000
0.200000 -0.075000 0.000000
0.200000 -0.050000 0.000000
0.200000 -0.025000 0.000000
0.200000 0.000000 0.000000
0.186160 0.024133 0.000000
0.193328 0.048706 0.000000
0.183068 0.074180 0.000000
0.175214 0.098017 0.000000
0.198796 0.121226 0.000000
0.178280 0.147692 0.000000
0.192380 0.166639 0.000000
0.190346 0.195033 0.000000
0.204179 0.217937 0.000000
0.187884 0.248192 0.000000
0.194914 0.272210 0.000000
0.194946 0.300239 0.000000
0.202230 0.334556 0.000000
0.202480 0.357672 0.000000
0.192223 0.383006 0.000000
0.204698 0.406924 0.000000
0.200077 0.430588 0.000000
0.184799 0.449208 0.000000
0.195839 0.478143 0.000000
0.200380 0.507995 0.000000
0.196400 0.535944 0.000000
0.182716 0.554829 0.000000
0.275947 0.576098 0.000000
0.274700 0.600000 0.000000
0.225000 -0.075000 0.000000
0.225000 -0.050000 0.000000
0.225000 -0.025000 0.000000
0.225000 0.000000 0.000000
0.210591 0.024642 0.000000
0.221778 0.048543 0.000000
0.209118 0.069249 0.000000
0.200373 0.093758 0.000000
0.222695 0.121506 0.000000
0.204285 0.145375 0.000000
0.225371 0.166573 0.000000
0.211871 0.186463 0.000000
0.227860 0.214598 0.000000
0.209874 0.242439 0.000000
0.219504 0.266146 0.000000
0.219107 0.289019 0.000000
0.215817 0.317601 0.000000
0.229522 0.347165 0.000000
0.218213 0.373033 0.000000
[...]
<PointData>
<DataArray NumberOfComponents='1' type='Int32' Name='ParticleType' format='ascii'>
3
3
3
3
3
3
3
3
3
3
3
3
3
3
3
3
3
3
3
3
3
3
3
3
3
3
3
3
3
3
3
3
3
3
3
3
3
3
3
3
3
3
3
3
3
3
3
3
3
3
3
3
3
3
3
3
3
3
2
2
2
2
2
2
2
2
2
2
2
2
2
2
2
2
2
2
2
2
2
2
2
2
2
2
3
3
2
2
2
2
2
2
2
2
2
2
2
2
2
2
2
2
2
2
2
2
2
2
2
2
2
2
3
3
2
2
0
0
0
0
0
0
0
0
0
0
0
0
0
0
0
0
0
0
0
0
0
0
0
0
3
3
2
2
0
0
0
0
0
0
0
0
0
0
0
0
0
0
0
0
0
0
0
0
0
0
0
0
3
3
2
2
0
0
0
0
0
0
0
0
0
0
0
0
0
0
0
0
0
0
0
0
0
0
0
0
3
3
2
2
0
0
0
0
0
0
0
0
0
0
0
0
0
0
0
0
0
0
0
0
0
0
0
0
3
3
2
2
0
0
0
0
0
0
0
0
0
0
0
0
0
0
0
0
0
0
0
0
0
0
0
0
3
3
2
2
0
0
0
0
0
0
0
0
0
0
0
0
0
0
0
0
0
0
0
0
0
0
0
0
3
3
2
2
0
0
0
0
0
0
0
0
0
0
0
0
0
0
0
0
0
0
0
0
0
0
0
0
3
3
2
2
0
0
0
0
0
0
0
0
0
0
0
0
0
0
0
0
0
0
0
0
0
0
0
0
3
3
2
2
0
0
0
0
0
0
0
0
0
0
0
0
0
0
0
0
0
0
0
0
0
0
0
0
3
3
2
2
0
0
0
0
0
0
0
0
0
0
0
0
0
0
0
0
0
0
0
0
0
0
0
0
3
3
2
2
0
0
0
0
0
0
0
0
0
0
0
0
0
0
0
0
0
0
0
0
0
0
0
0
3
3
2
2
0
0
0
0
0
0
0
0
0
0
0
0
0
0
0
0
0
0
0
0
0
0
0
0
3
3
2
2
0
0
0
0
0
0
0
0
0
0
0
0
0
0
0
0
0
0
0
0
0
0
0
0
3
3
2
2
0
0
0
0
0
0
0
0
0
0
0
0
0
0
0
0
0
0
0
0
0
0
0
0
3
3
2
2
0
0
0
0
0
0
0
0
0
0
0
0
0
0
0
0
0
0
0
0
0
0
0
0
3
3
2
2
0
0
0
0
0
0
0
0
0
0
0
0
0
0
0
0
0
0
0
0
0
0
0
0
3
3
2
2
0
0
0
0
0
0
0
0
0
0
0
0
0
0
0
0
0
0
0
0
0
0
0
0
3
3
2
2
0
0
0
0
0
0
0
0
0
0
0
0
0
0
0
0
0
0
0
0
0
0
0
0
3
3
2
2
0
0
0
0
0
0
0
0
0
0
0
0
0
0
0
0
0
0
0
0
0
0
0
0
3
3
2
2
0
0
0
0
0
0
0
0
0
0
0
0
0
0
0
0
0
0
0
0
0
0
0
0
3
3
2
2
0
0
0
0
0
0
0
0
0
0
0
0
0
0
0
0
0
0
0
0
0
0
0
0
3
3
2
2
0
0
0
0
0
0
0
0
0
0
0
0
0
0
0
0
0
0
0
0
0
0
0
0
3
3
2
2
0
0
0
0
0
0
0
0
0
0
0
0
0
0
0
0
0
0
0
0
0
0
0
0
3
3
2
2
0
0
0
0
0
0
0
0
0
0
0
0
0
0
0
0
0
0
0
0
0
0
0
0
3
3
2
2
0
0
0
0
0
0
0
0
0
0
0
0
0
0
0
0
0
0
0
0
0
0
0
0
3
3
2
2
0
0
0
0
0
0
0
0
0
0
0
0
0
0
0
0
0
0
0
0
0
0
0
0
3
3
2
2
0
0
0
0
0
0
0
0
0
0
0
0
0
0
0
0
0
0
0
0
0
0
0
0
3
3
2
2
0
0
0
0
0
0
0
0
0
0
0
0
0
0
0
0
0
0
0
0
0
0
0
0
3
3
2
2
0
0
0
0
0
0
0
0
0
0
0
0
0
0
0
0
0
0
0
0
0
0
0
0
3
3
2
2
0
0
0
0
0
0
0
0
0
0
0
0
0
0
0
0
0
0
0
0
0
0
0
0
3
3
2
2
0
0
0
0
0
0
0
0
0
0
0
0
0
0
0
0
0
0
0
0
0
0
0
0
3
3
2
2
0
0
0
0
0
0
0
0
0
0
0
0
0
0
0
0
0
0
0
0
0
0
0
0
3
3
2
2
0
0
0
0
0
0
0
0
0
0
0
0
0
0
0
0
0
0
0
0
0
0
0
0
3
3
2
2
0
0
0
0
0
0
0
0
0
0
0
0
0
0
0
0
0
0
0
0
0
0
0
0
3
3
2
2
0
0
0
0
0
0
0
0
0
0
0
0
0
0
0
0
0
0
0
0
0
0
0
0
3
3
2
2
0
0
0
0
0
0
0
0
0
0
0
0
0
0
0
0
0
0
0
0
0
0
0
0
3
3
2
2
0
0
0
0
0
0
0
0
0
0
0
0
0
0
0
0
0
0
0
0
0
0
0
0
3
3
2
2
0
0
0
0
0
0
0
0
0
0
0
0
0
0
0
0
0
0
0
0
0
0
0
0
3
3
2
2
0
0
0
0
0
0
0
0
0
0
0
0
0
0
0
0
0
0
0
0
0
0
0
0
3
3
2
2
0
0
0
0
0
0
0
0
0
0
0
0
0
0
0
0
0
0
0
0
0
0
0
0
3
3
2
2
2
2
2
2
2
2
2
2
2
2
2
2
2
2
2
2
2
2
2
2
2
2
2
2
3
3
2
2
2
2
2
2
2
2
2
2
2
2
2
2
2
2
2
2
2
2
2
2
2
2
2
2
3
3
3
3
3
3
3
3
3
3
3
3
3
3
3
3
3
3
3
3
3
3
3
3
3
3
3
3
3
3
3
3
3
3
3
3
3
3
3
3
3
3
3
3
3
3
3
3
3
3
3
3
3
3
3
3
</DataArray>
<DataArray NumberOfComponents='1' type='Float32' Name='Velocity' format='ascii'>
0.000000
0.000000
0.000000
0.000000
0.000000
0.000000
0.000000
0.000000
0.000000
0.000000
0.000000
0.000000
0.000000
0.000000
0.000000
0.000000
0.000000
0.000000
0.000000
0.000000
0.000000
0.000000
0.000000
0.000000
0.000000
0.000000
0.000000
0.000000
0.000000
0.000000
0.000000
0.000000
0.000000
0.000000
0.000000
0.000000
0.000000
0.000000
0.000000
0.000000
0.000000
0.000000
0.000000
0.000000
0.000000
0.000000
0.000000
0.000000
0.000000
0.000000
0.000000
0.000000
0.000000
0.000000
0.000000
0.000000
0.000000
0.000000
0.000000
0.000000
0.000000
0.000000
0.000000
0.000000
0.000000
0.000000
0.000000
0.000000
0.000000
0.000000
0.000000
0.000000
0.000000
0.000000
0.000000
0.000000
0.000000
0.000000
0.000000
0.000000
0.000000
0.000000
0.000000
0.000000
0.000000
0.000000
0.000000
0.000000
0.000000
0.000000
0.000000
0.000000
0.000000
0.000000
0.000000
0.000000
0.000000
0.000000
0.000000
0.000000
0.000000
0.000000
0.000000
0.000000
0.000000
0.000000
0.000000
0.000000
0.000000
0.000000
0.000000
0.000000
0.000000
0.000000
0.000000
0.000000
0.067122
0.167153
0.055096
0.103032
0.245975
0.216132
0.263679
0.176861
0.095272
0.203272
0.085866
0.193277
0.079988
0.170318
0.164161
0.105652
0.153915
0.104053
0.218190
0.092622
0.100000
0.100000
0.100000
0.100000
0.000000
0.000000
0.000000
0.000000
0.230934
0.109682
0.041878
0.168167
0.109954
0.075876
0.036516
0.260030
0.197671
0.146379
0.132419
0.124596
0.170653
0.128839
0.121298
0.225047
0.160240
0.090306
0.119942
0.135892
0.100000
0.100000
0.100000
0.100000
0.000000
0.000000
0.000000
0.000000
0.058674
0.018843
0.138843
0.319891
0.069213
0.051214
0.063031
0.169770
0.118633
0.135765
0.074846
0.128215
0.004346
0.169913
0.084894
0.184940
0.220963
0.167077
0.213547
0.264576
0.103576
0.100000
0.100000
0.100000
0.000000
0.000000
0.000000
0.000000
0.081840
0.165463
0.019845
0.030408
0.271156
0.145092
0.122710
0.209857
0.047838
0.046231
0.113478
0.135449
0.135109
0.019357
0.118051
0.214521
0.102101
0.233418
0.089953
0.241560
0.186456
0.100000
0.100000
0.100000
0.000000
0.000000
0.000000
0.000000
0.074107
0.141803
0.164924
0.380526
0.113608
0.222049
0.186196
0.144849
0.076316
0.160808
0.135928
0.094649
0.189951
0.206264
0.083253
0.265043
0.260016
0.353768
0.195930
0.306004
0.100000
0.497582
0.100000
0.100000
0.000000
0.000000
0.000000
0.000000
0.083327
0.083131
0.053333
0.096032
0.061497
0.133233
0.136810
0.067590
0.057576
0.157491
0.087317
0.107498
0.140406
0.139028
0.145755
0.077392
0.211513
0.163041
0.066216
0.285361
0.179674
0.042357
0.100000
0.100000
0.000000
0.000000
0.000000
0.000000
0.109676
0.037419
0.128065
0.145653
0.085105
0.057310
0.075504
0.195628
0.092695
0.053744
0.069340
0.110320
0.012139
0.106581
0.130413
0.183964
0.212017
0.091771
0.142635
0.117601
0.209579
0.347952
0.100000
0.100000
0.000000
0.000000
0.000000
0.000000
0.118739
0.080655
0.146179
0.049112
0.238448
0.158285
0.099981
0.137485
0.123251
0.137981
0.154959
0.089999
0.013034
0.234628
0.154945
0.125805
0.149314
0.016172
0.197025
0.298351
0.066036
0.320522
0.100000
0.100000
0.000000
0.000000
0.000000
0.000000
0.025131
0.082764
0.090599
0.263854
0.117468
0.168421
0.084695
0.194275
0.118992
0.079206
0.209917
0.070678
0.116376
0.275373
0.053942
0.084386
0.032834
0.131263
0.051780
0.188980
0.293466
0.260017
0.071100
0.100000
0.000000
0.000000
0.000000
0.000000
0.077262
0.098342
0.045921
0.160575
0.208952
0.148894
0.070792
0.131244
0.216623
0.109501
0.241916
0.091728
0.037160
0.045902
0.183389
0.092063
0.229262
0.221582
0.296115
0.065794
0.313981
0.023582
0.100000
0.100000
0.000000
0.000000
0.000000
0.000000
0.070584
0.130338
0.042294
0.159244
0.214018
0.157674
0.117451
0.044511
0.054843
0.080039
0.134220
0.134379
0.277884
0.055404
0.226629
0.146692
0.154100
0.262118
0.082817
0.259887
0.122248
0.271916
0.100000
0.100000
0.000000
0.000000
0.000000
0.000000
0.071144
0.142217
0.040528
0.088966
0.053110
0.113784
0.150664
0.107996
0.108453
0.211309
0.184439
0.236115
0.187235
0.120474
0.051696
0.180685
0.163763
0.202695
0.125861
0.094785
0.318657
0.086048
0.243863
0.100000
0.000000
0.000000
0.000000
0.000000
0.086268
0.082643
0.064489
0.082717
0.217232
0.065136
0.109686
0.061808
0.172966
0.135862
0.247906
0.068640
0.226191
0.076897
0.181775
0.234412
0.186104
0.170441
0.158822
0.235288
0.066136
0.250117
0.100000
0.100000
0.000000
0.000000
0.000000
0.000000
0.084555
0.023475
0.150329
0.075104
0.063446
0.040058
0.122908
0.061175
0.064028
0.013362
0.070124
0.151111
0.113285
0.062643
0.234637
0.213892
0.122279
0.156682
0.255883
0.170637
0.102162
0.218048
0.383622
0.100000
0.000000
0.000000
0.000000
0.000000
0.063336
0.016422
0.146360
0.201238
0.012510
0.140577
0.093090
0.111125
0.118615
0.080893
0.095464
0.127544
0.195568
0.261296
0.073530
0.036916
0.175874
0.369814
0.210232
0.263036
0.206536
0.294783
0.100000
0.100000
0.000000
0.000000
0.000000
0.000000
0.100011
0.073301
0.090106
0.156574
0.051084
0.075971
0.051530
0.078136
0.055084
0.032395
0.139026
0.035503
0.099581
0.051958
0.034408
0.085832
0.221287
0.162353
0.067940
0.349634
0.311309
0.283873
0.100000
0.100000
0.000000
0.000000
0.000000
0.000000
0.052489
0.025891
0.108133
0.122323
0.032469
0.069377
0.067922
0.006599
0.077392
0.123391
0.188139
0.180056
0.020608
0.044293
0.105495
0.351262
0.068573
0.137979
0.365820
0.199818
0.200821
0.100000
0.100000
0.100000
0.000000
0.000000
0.000000
0.000000
0.051188
0.046300
0.074535
0.036677
0.112834
0.070267
0.014535
0.088577
0.084014
0.092731
0.077973
0.141031
0.067365
0.119496
0.072056
0.185516
0.092923
0.250365
0.114620
0.200350
0.228109
0.055038
0.100000
0.100000
0.000000
0.000000
0.000000
0.000000
0.067523
0.030734
0.093123
0.051752
0.066413
0.036718
0.152956
0.176683
0.091352
0.121303
0.107163
0.048764
0.136773
0.070966
0.173527
0.123909
0.025903
0.118114
0.306087
0.090158
0.235951
0.248771
0.100000
0.100000
0.000000
0.000000
0.000000
0.000000
0.046039
0.069505
0.104684
0.013435
0.092215
0.087223
0.073264
0.134982
0.114718
0.103545
0.062277
0.053504
0.092482
0.072439
0.150393
0.109489
0.260695
0.069985
0.071505
0.058207
0.094956
0.137554
0.100000
0.100000
0.000000
0.000000
0.000000
0.000000
0.067049
0.024456
0.072474
0.080819
0.059729
0.058577
0.207968
0.213543
0.151172
0.073959
0.119953
0.155085
0.042587
0.178717
0.138732
0.247981
0.113697
0.131153
0.201296
0.135945
0.209117
0.298448
0.100000
0.100000
0.000000
0.000000
0.000000
0.000000
0.079195
0.060826
0.102311
0.089078
0.050269
0.042289
0.115038
0.140880
0.062471
0.111589
0.186608
0.147476
0.200908
0.116213
0.174356
0.106331
0.012532
0.122004
0.111588
0.441566
0.210778
0.236308
0.100000
0.100000
0.000000
0.000000
0.000000
0.000000
0.055964
0.079685
0.045143
0.052799
0.031355
0.031496
0.164584
0.059408
0.060030
0.115054
0.138931
0.076968
0.127435
0.121030
0.164907
0.045203
0.037572
0.030895
0.154013
0.107275
0.303302
0.158977
0.100000
0.100000
0.000000
0.000000
0.000000
0.000000
0.032453
0.077892
0.030580
0.088852
0.010024
0.060695
0.168541
0.029627
0.081723
0.219564
0.032817
0.274357
0.061463
0.241905
0.040282
0.053729
0.178896
0.212245
0.287089
0.288008
0.070395
0.080553
0.100000
0.100000
0.000000
0.000000
0.000000
0.000000
0.036211
0.091236
0.044367
0.112474
0.158475
0.155712
0.142889
0.094832
0.103240
0.134406
0.161552
0.085865
0.054838
0.182198
0.070939
0.033741
0.142691
0.178269
0.264549
0.043195
0.225872
0.304541
0.100000
0.100000
0.000000
0.000000
0.000000
0.000000
0.053943
0.108990
0.040720
0.055554
0.020153
0.015709
0.048574
0.036787
0.085958
0.183792
0.273167
0.071020
0.120563
0.183406
0.096511
0.190720
0.100217
0.085497
0.380671
0.225655
0.119619
0.157515
0.100000
0.100000
0.000000
0.000000
0.000000
0.000000
0.011795
0.128708
0.083406
0.096939
0.181939
0.039836
0.062314
0.032610
0.194897
0.280361
0.101311
0.223455
0.172002
0.099838
0.106194
0.292927
0.162010
0.188621
0.257102
0.128963
0.100618
0.104036
0.100000
0.100000
0.000000
0.000000
0.000000
0.000000
0.132032
0.043366
0.110920
0.079250
0.122411
0.123815
0.232869
0.037026
0.175464
0.098724
0.180270
0.055957
0.087852
0.120354
0.128998
0.357482
0.173981
0.244468
0.500034
0.127632
0.235283
0.251222
0.100000
0.100000
0.000000
0.000000
0.000000
0.000000
0.140416
0.117968
0.041261
0.091364
0.111377
0.066400
0.135856
0.062381
0.095095
0.154483
0.091152
0.121247
0.173206
0.145086
0.109144
0.152630
0.063084
0.160357
0.101443
0.323001
0.174777
0.232176
0.100000
0.100000
0.000000
0.000000
0.000000
0.000000
0.130702
0.124100
0.085420
0.051314
0.077373
0.049907
0.128389
0.070399
0.020926
0.226437
0.085532
0.151770
0.077373
0.108891
0.102832
0.271131
0.131262
0.031252
0.093245
0.299863
0.216911
0.323024
0.100000
0.100000
0.000000
0.000000
0.000000
0.000000
0.127577
0.059183
0.081873
0.085106
0.187666
0.046863
0.098869
0.147200
0.115064
0.226477
0.091854
0.369386
0.239591
0.075585
0.042206
0.101332
0.166949
0.048795
0.151285
0.123289
0.353338
0.329429
0.141919
0.100000
0.000000
0.000000
0.000000
0.000000
0.047269
0.080070
0.100058
0.100783
0.254301
0.239755
0.196401
0.108971
0.175585
0.159458
0.095893
0.170523
0.299144
0.033140
0.057086
0.144942
0.260543
0.030915
0.100873
0.159668
0.080415
0.415780
0.122386
0.100000
0.000000
0.000000
0.000000
0.000000
0.126495
0.021312
0.104742
0.101773
0.040564
0.210170
0.313967
0.197483
0.125031
0.214086
0.169895
0.176377
0.170428
0.239396
0.053610
0.080016
0.131009
0.135089
0.059093
0.314726
0.052948
0.225864
0.100000
0.100000
0.000000
0.000000
0.000000
0.000000
0.093527
0.047312
0.073147
0.131713
0.033454
0.066680
0.254043
0.354199
0.115738
0.255348
0.217542
0.230680
0.031854
0.036556
0.101554
0.233831
0.091814
0.151244
0.019795
0.101555
0.027772
0.415941
0.048950
0.100000
0.000000
0.000000
0.000000
0.000000
0.037571
0.038379
0.108608
0.112290
0.049244
0.002193
0.253546
0.134387
0.160870
0.179019
0.420336
0.300995
0.054038
0.168869
0.208352
0.296353
0.051740
0.197014
0.047458
0.226810
0.266860
0.382818
0.291614
0.100000
0.000000
0.000000
0.000000
0.000000
0.076338
0.135813
0.040822
0.225680
0.066715
0.344603
0.137208
0.215747
0.100199
0.043052
0.104339
0.070747
0.152958
0.061333
0.113399
0.143537
0.113093
0.072407
0.179070
0.209880
0.267260
0.300703
0.367758
0.100000
0.000000
0.000000
0.000000
0.000000
0.140126
0.081288
0.012222
0.168363
0.121939
0.092983
0.277906
0.096286
0.101295
0.114360
0.149917
0.010886
0.222505
0.098870
0.076213
0.099922
0.086316
0.103614
0.155689
0.184716
0.140469
0.195820
0.198778
0.100000
0.000000
0.000000
0.000000
0.000000
0.147182
0.116658
0.055301
0.117760
0.065656
0.096546
0.151347
0.278154
0.223836
0.071309
0.190483
0.052577
0.084653
0.232037
0.131083
0.105283
0.168483
0.095416
0.225173
0.214756
0.403476
0.184744
0.232516
0.100000
0.000000
0.000000
0.000000
0.000000
0.145648
0.250294
0.069200
0.125411
0.109883
0.022083
0.192688
0.275748
0.108740
0.179450
0.309926
0.155146
0.095255
0.202492
0.218204
0.031589
0.254932
0.267360
0.068946
0.343321
0.312578
0.248828
0.134612
0.100000
0.000000
0.000000
0.000000
0.000000
0.045767
0.119764
0.242311
0.135939
0.079692
0.238927
0.012752
0.193925
0.228676
0.153041
0.170009
0.050389
0.056421
0.067504
0.240074
0.221465
0.218390
0.277787
0.098796
0.133684
0.268509
0.376873
0.137285
0.100000
0.000000
0.000000
0.000000
0.000000
0.000000
0.000000
0.000000
0.000000
0.000000
0.000000
0.000000
0.000000
0.000000
0.000000
0.000000
0.000000
0.000000
0.000000
0.000000
0.000000
0.000000
0.000000
0.000000
0.000000
0.000000
0.000000
0.000000
0.000000
0.000000
0.000000
0.000000
0.000000
0.000000
0.000000
0.000000
0.000000
0.000000
0.000000
0.000000
0.000000
0.000000
0.000000
0.000000
0.000000
0.000000
0.000000
0.000000
0.000000
0.000000
0.000000
0.000000
0.000000
0.000000
0.000000
0.000000
0.000000
0.000000
0.000000
0.000000
0.000000
0.000000
0.000000
0.000000
0.000000
0.000000
0.000000
0.000000
0.000000
0.000000
0.000000
0.000000
0.000000
0.000000
0.000000
0.000000
0.000000
0.000000
0.000000
0.000000
0.000000
0.000000
0.000000
0.000000
0.000000
0.000000
0.000000
0.000000
0.000000
0.000000
0.000000
0.000000
0.000000
0.000000
0.000000
0.000000
0.000000
0.000000
0.000000
0.000000
0.000000
0.000000
0.000000
0.000000
0.000000
0.000000
0.000000
0.000000
0.000000
0.000000
0.000000
0.000000
0.000000
</DataArray>
<DataArray NumberOfComponents='1' type='Float32' Name='pressure' format='ascii'>
0.000000
0.000000
0.000000
0.000000
0.000000
0.000000
0.000000
0.000000
0.000000
0.000000
0.000000
0.000000
0.000000
0.000000
0.000000
0.000000
0.000000
0.000000
0.000000
0.000000
0.000000
0.000000
0.000000
0.000000
0.000000
0.000000
0.000000
0.000000
0.000000
0.000000
0.000000
0.000000
0.000000
0.000000
0.000000
0.000000
0.000000
0.000000
0.000000
0.000000
0.000000
0.000000
0.000000
0.000000
0.000000
0.000000
0.000000
0.000000
0.000000
0.000000
0.000000
0.000000
0.000000
0.000000
0.000000
0.000000
0.000000
0.000000
34373.632812
34414.414062
34679.070312
34683.910156
34372.777344
32903.800781
33305.343750
32934.523438
33370.359375
32156.429688
31424.767578
30873.718750
31973.396484
30071.601562
30326.556641
29993.986328
29839.777344
29276.517578
29781.832031
29001.251953
28422.126953
29136.541016
28087.757812
25286.234375
20093.496094
0.000000
0.000000
0.000000
34369.050781
34328.347656
34392.082031
34136.312500
33520.417969
32868.492188
33219.261719
31847.134766
33420.671875
32565.201172
31276.882812
29913.679688
31874.429688
29942.117188
30166.251953
30088.783203
30026.312500
28784.841797
30129.093750
28884.691406
28911.673828
29444.130859
27826.964844
27206.009766
26481.457031
0.000000
0.000000
0.000000
34108.449219
34538.332031
34143.597656
34191.628906
34574.785156
33772.906250
32136.750000
32010.593750
31962.367188
31806.253906
31070.222656
30909.564453
30896.363281
30007.082031
30183.773438
29781.814453
29153.693359
28346.972656
28887.910156
28038.449219
28749.244141
27995.896484
29860.214844
18063.097656
19887.437500
0.000000
0.000000
0.000000
34631.238281
35040.066406
34825.093750
34506.421875
32979.835938
33478.964844
33720.097656
33271.609375
32937.605469
31684.203125
31150.443359
31168.154297
30054.892578
30621.177734
30021.396484
29404.552734
29496.607422
29386.554688
28540.892578
28275.406250
28371.304688
26453.029297
32514.335938
25807.300781
25661.548828
0.000000
0.000000
0.000000
33975.222656
34269.097656
34296.710938
33646.996094
34443.253906
31878.384766
34265.765625
32375.636719
32625.712891
31500.232422
32119.248047
30607.335938
31222.316406
30450.603516
30313.458984
29698.365234
28952.292969
28528.326172
27857.082031
28046.314453
27577.669922
28281.310547
27276.050781
25505.970703
0.000000
0.000000
0.000000
0.000000
35409.152344
34811.406250
35129.722656
33834.824219
33591.089844
33955.878906
32877.941406
33113.214844
32095.529297
32979.882812
31371.097656
31889.882812
30841.181641
31136.789062
30063.343750
29927.751953
29402.380859
29545.564453
28881.107422
28417.935547
26455.839844
25864.347656
25816.587891
30962.451172
26725.033203
19935.091797
0.000000
0.000000
35661.203125
34869.871094
34540.777344
34113.441406
33810.984375
32727.318359
33521.320312
33076.410156
32828.875000
31949.976562
32063.375000
31482.210938
31517.726562
30711.503906
30421.365234
30346.273438
29390.431641
29067.656250
27909.033203
28157.767578
25723.125000
21952.501953
24120.564453
25683.496094
33806.960938
24967.080078
0.000000
0.000000
35373.320312
35270.335938
34235.585938
34412.882812
33561.101562
33569.773438
33065.843750
32927.855469
32956.210938
32588.060547
32239.837891
31839.667969
31103.458984
31020.308594
30479.328125
30462.568359
29610.917969
28969.953125
28553.652344
28153.119141
27434.449219
27422.962891
25055.244141
23013.853516
35147.160156
23572.134766
0.000000
0.000000
35000.066406
35278.800781
34763.593750
34549.406250
34241.718750
34109.597656
33892.398438
33179.429688
32804.070312
32323.720703
32405.669922
32020.136719
32162.447266
31222.515625
31567.351562
30292.146484
29806.087891
30760.832031
28894.568359
29384.611328
28069.804688
28047.160156
28378.416016
26085.798828
30092.960938
19619.474609
0.000000
0.000000
35187.015625
35372.546875
34557.277344
34163.058594
34475.824219
33313.968750
33725.144531
33476.441406
32952.097656
33287.515625
32506.759766
31996.441406
31369.572266
31028.162109
31289.812500
31426.632812
29564.812500
29827.375000
29116.503906
29235.601562
27343.728516
28209.441406
27475.931641
25811.226562
28454.558594
0.000000
0.000000
0.000000
34387.714844
34623.742188
35045.585938
34735.207031
34281.054688
34047.433594
33912.445312
33173.269531
33505.777344
33138.386719
32562.935547
32455.068359
32182.080078
31902.169922
30742.597656
30187.851562
30344.849609
29619.503906
28362.242188
28663.423828
29783.806641
27639.583984
28679.322266
28165.041016
30866.146484
21357.527344
0.000000
0.000000
34858.222656
35343.101562
34673.816406
34712.554688
33987.441406
33937.300781
33314.816406
33620.320312
33040.234375
32991.910156
32845.269531
31957.806641
31241.087891
31971.984375
31045.689453
30768.455078
30426.166016
29988.515625
29081.183594
28581.634766
28484.019531
27613.275391
28642.439453
28270.068359
36637.035156
25012.841797
0.000000
0.000000
35190.183594
35352.632812
34961.019531
34376.628906
34544.621094
34394.566406
34280.152344
34002.925781
33220.617188
33084.945312
33050.062500
32354.292969