<?xml version='1.0' encoding='UTF-8'?>
<VTKFile xmlns='VTK' byte_order='LittleEndian' version='0.1' type='UnstructuredGrid'>
<UnstructuredGrid>
<Piece NumberOfCells='1344' NumberOfPoints='1344'>
<Points>
<DataArray NumberOfComponents='3' type='Float32' Name='Position' format='ascii'>
-0.075000 -0.075000 0.000000
-0.075000 -0.050000 0.000000
-0.075000 -0.025000 0.000000
-0.075000 0.000000 0.000000
-0.075000 0.025000 0.000000
-0.075000 0.050000 0.000000
-0.075000 0.075000 0.000000
-0.075000 0.100000 0.000000
-0.075000 0.125000 0.000000
-0.075000 0.150000 0.000000
-0.075000 0.175000 0.000000
-0.075000 0.200000 0.000000
-0.075000 0.225000 0.000000
-0.075000 0.250000 0.000000
-0.075000 0.275000 0.000000
-0.075000 0.300000 0.000000
-0.075000 0.325000 0.000000
-0.075000 0.350000 0.000000
-0.075000 0.375000 0.000000
-0.075000 0.400000 0.000000
-0.075000 0.425000 0.000000
-0.075000 0.450000 0.000000
-0.075000 0.475000 0.000000
-0.075000 0.500000 0.000000
-0.075000 0.525000 0.000000
-0.075000 0.550000 0.000000
-0.075000 0.575000 0.000000
-0.075000 0.600000 0.000000
-0.050000 -0.075000 0.000000
-0.050000 -0.050000 0.000000
-0.050000 -0.025000 0.000000
-0.050000 0.000000 0.000000
-0.050000 0.025000 0.000000
-0.050000 0.050000 0.000000
-0.050000 0.075000 0.000000
-0.050000 0.100000 0.000000
-0.050000 0.125000 0.000000
-0.050000 0.150000 0.000000
-0.050000 0.175000 0.000000
-0.050000 0.200000 0.000000
-0.050000 0.225000 0.000000
-0.050000 0.250000 0.000000
-0.050000 0.275000 0.000000
-0.050000 0.300000 0.000000
-0.050000 0.325000 0.000000
-0.050000 0.350000 0.000000
-0.050000 0.375000 0.000000
-0.050000 0.400000 0.000000
-0.050000 0.425000 0.000000
-0.050000 0.450000 0.000000
-0.050000 0.475000 0.000000
-0.050000 0.500000 0.000000
-0.050000 0.525000 0.000000
-0.050000 0.550000 0.000000
-0.050000 0.575000 0.000000
-0.050000 0.600000 0.000000
-0.025000 -0.075000 0.000000
-0.025000 -0.050000 0.000000
-0.025000 -0.025000 0.000000
-0.025000 0.000000 0.000000
-0.025000 0.025000 0.000000
-0.025000 0.050000 0.000000
-0.025000 0.075000 0.000000
-0.025000 0.100000 0.000000
-0.025000 0.125000 0.000000
-0.025000 0.150000 0.000000
-0.025000 0.175000 0.000000
-0.025000 0.200000 0.000000
-0.025000 0.225000 0.000000
-0.025000 0.250000 0.000000
-0.025000 0.275000 0.000000
-0.025000 0.300000 0.000000
-0.025000 0.325000 0.000000
-0.025000 0.350000 0.000000
-0.025000 0.375000 0.000000
-0.025000 0.400000 0.000000
-0.025000 0.425000 0.000000
-0.025000 0.450000 0.000000
-0.025000 0.475000 0.000000
-0.025000 0.500000 0.000000
-0.025000 0.525000 0.000000
-0.025000 0.550000 0.000000
-0.025000 0.575000 0.000000
-0.025000 0.600000 0.000000
0.000000 -0.075000 0.000000
0.000000 -0.050000 0.000000
0.000000 -0.025000 0.000000
0.000000 0.000000 0.000000
0.000000 0.025000 0.000000
0.000000 0.050000 0.000000
0.000000 0.075000 0.000000
0.000000 0.100000 0.000000
0.000000 0.125000 0.000000
0.000000 0.150000 0.000000
0.000000 0.175000 0.000000
0.000000 0.200000 0.000000
0.000000 0.225000 0.000000
0.000000 0.250000 0.000000
0.000000 0.275000 0.000000
0.000000 0.300000 0.000000
0.000000 0.325000 0.000000
0.000000 0.350000 0.000000
0.000000 0.375000 0.000000
0.000000 0.400000 0.000000
0.000000 0.425000 0.000000
0.000000 0.450000 0.000000
0.000000 0.475000 0.000000
0.000000 0.500000 0.000000
0.000000 0.525000 0.000000
0.000000 0.550000 0.000000
0.000000 0.575000 0.000000
0.000000 0.600000 0.000000
0.025000 -0.075000 0.000000
0.025000 -0.050000 0.000000
0.025000 -0.025000 0.000000
0.025000 0.000000 0.000000
0.034965 0.022888 0.000000
0.063328 0.023506 0.000000
0.021964 0.038305 0.000000
0.023046 0.114312 0.000000
0.031280 0.190161 0.000000
0.052605 0.244023 0.000000
0.021677 0.210457 0.000000
0.036516 0.231709 0.000000
0.023531 0.282945 0.000000
0.023067 0.311672 0.000000
0.024588 0.375539 0.000000
0.030425 0.397459 0.000000
0.024450 0.419045 0.000000
0.024058 0.443103 0.000000
0.023334 0.477745 0.000000
0.022238 0.513534 0.000000
0.026732 0.537340 0.000000
0.059118 0.539747 0.000000
0.047249 0.559484 0.000000
0.035381 0.581269 0.000000
0.037452 0.600000 0.000000
0.014989 0.600000 0.000000
0.117664 0.600000 0.000000
0.137198 0.600000 0.000000
0.050000 -0.075000 0.000000
0.050000 -0.050000 0.000000
0.050000 -0.025000 0.000000
0.050000 0.000000 0.000000
0.093158 0.023276 0.000000
0.059815 0.045970 0.000000
0.026720 0.066120 0.000000
0.026525 0.086109 0.000000
0.028881 0.139154 0.000000
0.022043 0.164412 0.000000
0.072063 0.217797 0.000000
0.042825 0.268715 0.000000
0.047852 0.298628 0.000000
0.038690 0.329528 0.000000
0.023615 0.345150 0.000000
0.059012 0.380918 0.000000
0.055705 0.404513 0.000000
0.050745 0.430008 0.000000
0.040030 0.459490 0.000000
0.039196 0.492895 0.000000
0.048708 0.518057 0.000000
0.073452 0.517166 0.000000
0.020347 0.562242 0.000000
0.066963 0.583663 0.000000
0.078887 0.600000 0.000000
0.058133 0.600000 0.000000
0.150205 0.580162 0.000000
0.158093 0.600000 0.000000
0.075000 -0.075000 0.000000
0.075000 -0.050000 0.000000
0.075000 -0.025000 0.000000
0.075000 0.000000 0.000000
0.083060 0.045334 0.000000
0.052165 0.067243 0.000000
0.058340 0.088191 0.000000
0.055024 0.131329 0.000000
0.075506 0.181443 0.000000
0.051264 0.207769 0.000000
0.090864 0.205401 0.000000
0.022685 0.254021 0.000000
0.075075 0.261032 0.000000
0.066121 0.282194 0.000000
0.062896 0.313003 0.000000
0.043523 0.361160 0.000000
0.075563 0.364139 0.000000
0.077952 0.403539 0.000000
0.074086 0.430431 0.000000
0.062167 0.455563 0.000000
0.082315 0.491266 0.000000
0.100220 0.516862 0.000000
0.089650 0.539205 0.000000
0.075943 0.559757 0.000000
0.095430 0.577116 0.000000
0.097719 0.600000 0.000000
0.177933 0.600000 0.000000
0.197514 0.600000 0.000000
0.100000 -0.075000 0.000000
0.100000 -0.050000 0.000000
0.100000 -0.025000 0.000000
0.100000 0.000000 0.000000
0.116241 0.040474 0.000000
0.075474 0.118798 0.000000
0.071177 0.152783 0.000000
0.045233 0.107816 0.000000
0.055841 0.183108 0.000000
0.045137 0.155490 0.000000
0.108990 0.227554 0.000000
0.080245 0.240663 0.000000
0.107094 0.247391 0.000000
0.100263 0.276407 0.000000
0.087993 0.296694 0.000000
0.062449 0.342179 0.000000
0.098883 0.373438 0.000000
0.100013 0.397440 0.000000
0.104393 0.421036 0.000000
0.095278 0.444492 0.000000
0.060974 0.487512 0.000000
0.083950 0.464849 0.000000
0.121239 0.529837 0.000000
0.149770 0.533377 0.000000
0.108939 0.553818 0.000000
0.123178 0.576181 0.000000
0.207841 0.579008 0.000000
0.217739 0.600000 0.000000
0.125000 -0.075000 0.000000
0.125000 -0.050000 0.000000
0.125000 -0.025000 0.000000
0.125000 0.000000 0.000000
0.102208 0.060135 0.000000
0.081684 0.073929 0.000000
0.094168 0.134005 0.000000
0.106678 0.179329 0.000000
0.091860 0.160151 0.000000
0.114442 0.203855 0.000000
0.143509 0.226149 0.000000
0.133113 0.246317 0.000000
0.120790 0.273141 0.000000
0.113720 0.307525 0.000000
0.087916 0.319632 0.000000
0.086858 0.343259 0.000000
0.124940 0.377206 0.000000
0.126090 0.402938 0.000000
0.137247 0.425591 0.000000
0.121344 0.441779 0.000000
0.108549 0.469642 0.000000
0.107813 0.495350 0.000000
0.138756 0.511533 0.000000
0.162949 0.556232 0.000000
0.179210 0.576817 0.000000
0.135292 0.553425 0.000000
0.236173 0.576393 0.000000
0.237458 0.600000 0.000000
0.150000 -0.075000 0.000000
0.150000 -0.050000 0.000000
0.150000 -0.025000 0.000000
0.150000 0.000000 0.000000
0.127074 0.023208 0.000000
0.127979 0.067858 0.000000
0.112005 0.086657 0.000000
0.087186 0.097267 0.000000
0.120808 0.154614 0.000000
0.130003 0.187051 0.000000
0.150516 0.204838 0.000000
0.159816 0.248371 0.000000
0.146144 0.270136 0.000000
0.133620 0.295990 0.000000
0.119889 0.328785 0.000000
0.112626 0.352535 0.000000
0.152967 0.369509 0.000000
0.148683 0.398896 0.000000
0.161030 0.428424 0.000000
0.155281 0.454012 0.000000
0.133733 0.463976 0.000000
0.131720 0.488512 0.000000
0.162125 0.505360 0.000000
0.188323 0.513193 0.000000
0.175897 0.534086 0.000000
0.192417 0.554510 0.000000
0.256455 0.600000 0.000000
0.275464 0.600000 0.000000
0.175000 -0.075000 0.000000
0.175000 -0.050000 0.000000
0.175000 -0.025000 0.000000
0.175000 0.000000 0.000000
0.159972 0.023385 0.000000
0.148155 0.041187 0.000000
0.136097 0.096609 0.000000
0.122626 0.129492 0.000000
0.143434 0.119159 0.000000
0.141095 0.152816 0.000000
0.150995 0.176407 0.000000
0.170614 0.161566 0.000000
0.170341 0.215191 0.000000
0.180227 0.237771 0.000000
0.167393 0.278849 0.000000
0.144779 0.327777 0.000000
0.137023 0.353445 0.000000
0.168825 0.387076 0.000000
0.179372 0.413091 0.000000
0.185358 0.437068 0.000000
0.204904 0.457977 0.000000
0.181230 0.461435 0.000000
0.158197 0.478737 0.000000
0.180816 0.489450 0.000000
0.214404 0.510559 0.000000
0.206766 0.533542 0.000000
0.290746 0.575707 0.000000
0.294874 0.600000 0.000000
0.200000 -0.075000 0.000000
0.200000 -0.050000 0.000000
0.200000 -0.025000 0.000000
0.200000 0.000000 0.000000
0.188762 0.022537 0.000000
0.169794 0.052325 0.000000
0.148664 0.070514 0.000000
0.105428 0.112636 0.000000
0.183629 0.127944 0.000000
0.163219 0.138943 0.000000
0.197934 0.146274 0.000000
0.225165 0.151367 0.000000
0.177566 0.191996 0.000000
0.188550 0.261633 0.000000
0.154369 0.307308 0.000000
0.178351 0.323413 0.000000
0.167418 0.344757 0.000000
0.192538 0.341595 0.000000
0.181944 0.366423 0.000000
0.195900 0.395336 0.000000
0.206593 0.425331 0.000000
0.205333 0.483939 0.000000
0.228987 0.490980 0.000000
0.247242 0.509088 0.000000
0.233496 0.531465 0.000000
0.219949 0.555187 0.000000
0.317212 0.575936 0.000000
0.313653 0.600000 0.000000
0.225000 -0.075000 0.000000
0.225000 -0.050000 0.000000
0.225000 -0.025000 0.000000
0.225000 0.000000 0.000000
0.213399 0.029183 0.000000
0.191745 0.047837 0.000000
0.174540 0.077638 0.000000
0.159443 0.101535 0.000000
0.220049 0.082553 0.000000
0.207603 0.107429 0.000000
0.247157 0.154933 0.000000
0.193050 0.170209 0.000000
0.199978 0.192750 0.000000
0.201125 0.222660 0.000000
0.198951 0.282210 0.000000
0.225481 0.303078 0.000000
0.205792 0.312766 0.000000
0.213275 0.354436 0.000000
0.209334 0.377503 0.000000
[...]
<PointData>
<DataArray NumberOfComponents='1' type='Int32' Name='ParticleType' format='ascii'>
3
3
3
3
3
3
3
3
3
3
3
3
3
3
3
3
3
3
3
3
3
3
3
3
3
3
3
3
3
3
3
3
3
3
3
3
3
3
3
3
3
3
3
3
3
3
3
3
3
3
3
3
3
3
3
3
3
3
2
2
2
2
2
2
2
2
2
2
2
2
2
2
2
2
2
2
2
2
2
2
2
2
2
2
3
3
2
2
2
2
2
2
2
2
2
2
2
2
2
2
2
2
2
2
2
2
2
2
2
2
2
2
3
3
2
2
0
0
0
0
0
0
0
0
0
0
0
0
0
0
0
0
0
0
0
0
0
0
0
0
3
3
2
2
0
0
0
0
0
0
0
0
0
0
0
0
0
0
0
0
0
0
0
0
0
0
0
0
3
3
2
2
0
0
0
0
0
0
0
0
0
0
0
0
0
0
0
0
0
0
0
0
0
0
0
0
3
3
2
2
0
0
0
0
0
0
0
0
0
0
0
0
0
0
0
0
0
0
0
0
0
0
0
0
3
3
2
2
0
0
0
0
0
0
0
0
0
0
0
0
0
0
0
0
0
0
0
0
0
0
0
0
3
3
2
2
0
0
0
0
0
0
0
0
0
0
0
0
0
0
0
0
0
0
0
0
0
0
0
0
3
3
2
2
0
0
0
0
0
0
0
0
0
0
0
0
0
0
0
0
0
0
0
0
0
0
0
0
3
3
2
2
0
0
0
0
0
0
0
0
0
0
0
0
0
0
0
0
0
0
0
0
0
0
0
0
3
3
2
2
0
0
0
0
0
0
0
0
0
0
0
0
0
0
0
0
0
0
0
0
0
0
0
0
3
3
2
2
0
0
0
0
0
0
0
0
0
0
0
0
0
0
0
0
0
0
0
0
0
0
0
0
3
3
2
2
0
0
0
0
0
0
0
0
0
0
0
0
0
0
0
0
0
0
0
0
0
0
0
0
3
3
2
2
0
0
0
0
0
0
0
0
0
0
0
0
0
0
0
0
0
0
0
0
0
0
0
0
3
3
2
2
0
0
0
0
0
0
0
0
0
0
0
0
0
0
0
0
0
0
0
0
0
0
0
0
3
3
2
2
0
0
0
0
0
0
0
0
0
0
0
0
0
0
0
0
0
0
0
0
0
0
0
0
3
3
2
2
0
0
0
0
0
0
0
0
0
0
0
0
0
0
0
0
0
0
0
0
0
0
0
0
3
3
2
2
0
0
0
0
0
0
0
0
0
0
0
0
0
0
0
0
0
0
0
0
0
0
0
0
3
3
2
2
0
0
0
0
0
0
0
0
0
0
0
0
0
0
0
0
0
0
0
0
0
0
0
0
3
3
2
2
0
0
0
0
0
0
0
0
0
0
0
0
0
0
0
0
0
0
0
0
0
0
0
0
3
3
2
2
0
0
0
0
0
0
0
0
0
0
0
0
0
0
0
0
0
0
0
0
0
0
0
0
3
3
2
2
0
0
0
0
0
0
0
0
0
0
0
0
0
0
0
0
0
0
0
0
0
0
0
0
3
3
2
2
0
0
0
0
0
0
0
0
0
0
0
0
0
0
0
0
0
0
0
0
0
0
0
0
3
3
2
2
0
0
0
0
0
0
0
0
0
0
0
0
0
0
0
0
0
0
0
0
0
0
0
0
3
3
2
2
0
0
0
0
0
0
0
0
0
0
0
0
0
0
0
0
0
0
0
0
0
0
0
0
3
3
2
2
0
0
0
0
0
0
0
0
0
0
0
0
0
0
0
0
0
0
0
0
0
0
0
0
3
3
2
2
0
0
0
0
0
0
0
0
0
0
0
0
0
0
0
0
0
0
0
0
0
0
0
0
3
3
2
2
0
0
0
0
0
0
0
0
0
0
0
0
0
0
0
0
0
0
0
0
0
0
0
0
3
3
2
2
0
0
0
0
0
0
0
0
0
0
0
0
0
0
0
0
0
0
0
0
0
0
0
0
3
3
2
2
0
0
0
0
0
0
0
0
0
0
0
0
0
0
0
0
0
0
0
0
0
0
0
0
3
3
2
2
0
0
0
0
0
0
0
0
0
0
0
0
0
0
0
0
0
0
0
0
0
0
0
0
3
3
2
2
0
0
0
0
0
0
0
0
0
0
0
0
0
0
0
0
0
0
0
0
0
0
0
0
3
3
2
2
0
0
0
0
0
0
0
0
0
0
0
0
0
0
0
0
0
0
0
0
0
0
0
0
3
3
2
2
0
0
0
0
0
0
0
0
0
0
0
0
0
0
0
0
0
0
0
0
0
0
0
0
3
3
2
2
0
0
0
0
0
0
0
0
0
0
0
0
0
0
0
0
0
0
0
0
0
0
0
0
3
3
2
2
0
0
0
0
0
0
0
0
0
0
0
0
0
0
0
0
0
0
0
0
0
0
0
0
3
3
2
2
0
0
0
0
0
0
0
0
0
0
0
0
0
0
0
0
0
0
0
0
0
0
0
0
3
3
2
2
0
0
0
0
0
0
0
0
0
0
0
0
0
0
0
0
0
0
0
0
0
0
0
0
3
3
2
2
0
0
0
0
0
0
0
0
0
0
0
0
0
0
0
0
0
0
0
0
0
0
0
0
3
3
2
2
0
0
0
0
0
0
0
0
0
0
0
0
0
0
0
0
0
0
0
0
0
0
0
0
3
3
2
2
0
0
0
0
0
0
0
0
0
0
0
0
0
0
0
0
0
0
0
0
0
0
0
0
3
3
2
2
0
0
0
0
0
0
0
0
0
0
0
0
0
0
0
0
0
0
0
0
0
0
0
0
3
3
2
2
2
2
2
2
2
2
2
2
2
2
2
2
2
2
2
2
2
2
2
2
2
2
2
2
3
3
2
2
2
2
2
2
2
2
2
2
2
2
2
2
2
2
2
2
2
2
2
2
2
2
2
2
3
3
3
3
3
3
3
3
3
3
3
3
3
3
3
3
3
3
3
3
3
3
3
3
3
3
3
3
3
3
3
3
3
3
3
3
3
3
3
3
3
3
3
3
3
3
3
3
3
3
3
3
3
3
3
3
</DataArray>
<DataArray NumberOfComponents='1' type='Float32' Name='Velocity' format='ascii'>
0.000000
0.000000
0.000000
0.000000
0.000000
0.000000
0.000000
0.000000
0.000000
0.000000
0.000000
0.000000
0.000000
0.000000
0.000000
0.000000
0.000000
0.000000
0.000000
0.000000
0.000000
0.000000
0.000000
0.000000
0.000000
0.000000
0.000000
0.000000
0.000000
0.000000
0.000000
0.000000
0.000000
0.000000
0.000000
0.000000
0.000000
0.000000
0.000000
0.000000
0.000000
0.000000
0.000000
0.000000
0.000000
0.000000
0.000000
0.000000
0.000000
0.000000
0.000000
0.000000
0.000000
0.000000
0.000000
0.000000
0.000000
0.000000
0.000000
0.000000
0.000000
0.000000
0.000000
0.000000
0.000000
0.000000
0.000000
0.000000
0.000000
0.000000
0.000000
0.000000
0.000000
0.000000
0.000000
0.000000
0.000000
0.000000
0.000000
0.000000
0.000000
0.000000
0.000000
0.000000
0.000000
0.000000
0.000000
0.000000
0.000000
0.000000
0.000000
0.000000
0.000000
0.000000
0.000000
0.000000
0.000000
0.000000
0.000000
0.000000
0.000000
0.000000
0.000000
0.000000
0.000000
0.000000
0.000000
0.000000
0.000000
0.000000
0.000000
0.000000
0.000000
0.000000
0.000000
0.000000
0.115805
0.081313
0.183872
0.094172
0.079912
0.310200
0.049557
0.148729
0.148635
0.008719
0.276266
0.216377
0.332298
0.139527
0.181686
0.281439
0.290564
0.259913
0.354982
0.100000
0.100000
0.100000
0.100000
0.100000
0.000000
0.000000
0.000000
0.000000
0.173615
0.152399
0.162212
0.145904
0.146959
0.201525
0.035331
0.204277
0.100982
0.103966
0.107450
0.267449
0.050037
0.168252
0.114694
0.127817
0.103712
0.157420
0.251699
0.100000
0.100000
0.100000
0.100000
0.100000
0.000000
0.000000
0.000000
0.000000
0.189158
0.184944
0.185671
0.220527
0.272721
0.287171
0.210659
0.232614
0.218755
0.149353
0.122059
0.265883
0.223946
0.102679
0.246584
0.114193
0.191896
0.237655
0.362105
0.359712
0.100000
0.100000
0.100000
0.100000
0.000000
0.000000
0.000000
0.000000
0.079540
0.124377
0.276387
0.169597
0.178128
0.202206
0.414920
0.230291
0.214500
0.165510
0.213646
0.235528
0.162358
0.040651
0.113523
0.265238
0.165000
0.265610
0.291203
0.156425
0.143709
0.100000
0.100000
0.100000
0.000000
0.000000
0.000000
0.000000
0.082919
0.319940
0.036451
0.150383
0.251190
0.129905
0.015829
0.212632
0.177223
0.074878
0.244902
0.281204
0.199098
0.121795
0.060923
0.030292
0.207449
0.226563
0.390939
0.450550
0.100000
0.213112
0.100000
0.100000
0.000000
0.000000
0.000000
0.000000
0.232148
0.254837
0.096847
0.130906
0.104052
0.135593
0.309401
0.305965
0.094434
0.201991
0.110596
0.223058
0.108399
0.058034
0.159148
0.227579
0.423467
0.168836
0.328610
0.245859
0.435659
0.149807
0.100000
0.100000
0.000000
0.000000
0.000000
0.000000
0.189704
0.082110
0.175359
0.184284
0.153317
0.312245
0.107081
0.145077
0.219378
0.119708
0.138835
0.244691
0.145692
0.150802
0.142573
0.052343
0.351274
0.236356
0.587174
0.136821
0.077115
0.120049
0.100000
0.100000
0.000000
0.000000
0.000000
0.000000
0.224255
0.167408
0.226675
0.261781
0.299535
0.339859
0.191622
0.137748
0.173843
0.035366
0.086315
0.105023
0.084088
0.052358
0.194911
0.054971
0.265711
0.124735
0.265392
0.322415
0.440672
0.176502
0.100000
0.100000
0.000000
0.000000
0.000000
0.000000
0.023983
0.089105
0.271714
0.256985
0.282492
0.355102
0.178523
0.073616
0.207319
0.182600
0.045865
0.185400
0.199426
0.054130
0.075596
0.318235
0.193273
0.382560
0.124673
0.263039
0.187712
0.248027
0.100000
0.100000
0.000000
0.000000
0.000000
0.000000
0.129702
0.088174
0.177626
0.156315
0.313774
0.137247
0.117051
0.366136
0.047789
0.395680
0.247269
0.217826
0.079380
0.165264
0.089500
0.187729
0.018931
0.217306
0.149481
0.102348
0.359542
0.219948
0.100000
0.100000
0.000000
0.000000
0.000000
0.000000
0.144858
0.136096
0.094544
0.070031
0.222010
0.188110
0.286201
0.114136
0.058922
0.302200
0.261629
0.123495
0.199610
0.167808
0.165162
0.063142
0.177832
0.016607
0.222090
0.194382
0.399252
0.100000
0.100000
0.100000
0.000000
0.000000
0.000000
0.000000
0.051098
0.118698
0.170082
0.125848
0.197196
0.096674
0.054203
0.092893
0.296523
0.193548
0.162038
0.095738
0.082247
0.152388
0.016913
0.427531
0.170810
0.060211
0.107529
0.255630
0.109015
0.202362
0.100000
0.100000
0.000000
0.000000
0.000000
0.000000
0.078142
0.087209
0.101974
0.373493
0.091017
0.025734
0.221757
0.033980
0.161902
0.133541
0.163753
0.212949
0.215303
0.130767
0.287707
0.163343
0.239217
0.260789
0.028267
0.382961
0.358887
0.451049
0.100000
0.100000
0.000000
0.000000
0.000000
0.000000
0.166933
0.179600
0.089422
0.035058
0.084129
0.243502
0.117749
0.097026
0.094196
0.075173
0.274461
0.112476
0.235442
0.146093
0.057209
0.136855
0.170662
0.359254
0.049688
0.165086
0.242530
0.094661
0.100000
0.100000
0.000000
0.000000
0.000000
0.000000
0.063857
0.166557
0.091911
0.045660
0.165061
0.131176
0.076575
0.093739
0.273406
0.414530
0.032206
0.162204
0.185715
0.057143
0.277015
0.240293
0.256987
0.066231
0.085613
0.329080
0.226319
0.141462
0.100000
0.100000
0.000000
0.000000
0.000000
0.000000
0.177004
0.120480
0.158983
0.097296
0.091143
0.216291
0.155082
0.180902
0.099239
0.142853
0.053815
0.076946
0.127936
0.305076
0.181727
0.159746
0.030188
0.267132
0.126260
0.205375
0.531877
0.386437
0.100000
0.100000
0.000000
0.000000
0.000000
0.000000
0.075523
0.097245
0.151397
0.012439
0.118560
0.245145
0.210521
0.164818
0.255169
0.245359
0.049960
0.033863
0.206582
0.128026
0.044212
0.290964
0.166334
0.160899
0.417521
0.426046
0.292939
0.100000
0.100000
0.100000
0.000000
0.000000
0.000000
0.000000
0.024936
0.220681
0.088774
0.028610
0.084833
0.156046
0.219407
0.125710
0.149728
0.180718
0.085504
0.091726
0.151379
0.174013
0.272501
0.179642
0.094264
0.078807
0.148376
0.242299
0.406092
0.416477
0.249357
0.100000
0.000000
0.000000
0.000000
0.000000
0.027700
0.042805
0.138919
0.118547
0.152871
0.124775
0.128931
0.240347
0.079130
0.098837
0.061220
0.289725
0.297977
0.230494
0.115758
0.156938
0.119923
0.249833
0.300158
0.320983
0.236710
0.406419
0.100000
0.100000
0.000000
0.000000
0.000000
0.000000
0.056082
0.059431
0.332936
0.120800
0.170889
0.194070
0.069214
0.106147
0.055700
0.082851
0.183092
0.172210
0.074794
0.185393
0.053751
0.127240
0.109580
0.123361
0.200398
0.268042
0.370680
0.100000
0.100000
0.100000
0.000000
0.000000
0.000000
0.000000
0.062651
0.110712
0.175295
0.090895
0.208711
0.202017
0.103025
0.056779
0.159783
0.154340
0.088164
0.113865
0.141881
0.018070
0.227407
0.144334
0.117281
0.084546
0.009230
0.422259
0.413124
0.364691
0.100000
0.100000
0.000000
0.000000
0.000000
0.000000
0.032263
0.100908
0.159877
0.072482
0.071392
0.148160
0.101751
0.141930
0.049718
0.123874
0.127831
0.093538
0.172490
0.153109
0.031335
0.089648
0.236212
0.092834
0.110054
0.057906
0.312310
0.221675
0.100000
0.100000
0.000000
0.000000
0.000000
0.000000
0.055942
0.082907
0.296783
0.306931
0.133336
0.129103
0.217028
0.180859
0.186793
0.035907
0.149892
0.161356
0.054341
0.098779
0.278592
0.220426
0.117584
0.122459
0.036705
0.365491
0.057291
0.128411
0.231720
0.100000
0.000000
0.000000
0.000000
0.000000
0.104612
0.074087
0.276514
0.056031
0.103058
0.284693
0.154275
0.082319
0.226493
0.300300
0.048241
0.263053
0.107994
0.168968
0.163883
0.022543
0.141785
0.119746
0.043022
0.063240
0.215941
0.189063
0.100000
0.100000
0.000000
0.000000
0.000000
0.000000
0.071899
0.012450
0.157407
0.145477
0.226781
0.021122
0.211273
0.021865
0.065999
0.264528
0.163606
0.133282
0.125338
0.158675
0.062819
0.259542
0.094133
0.088858
0.143872
0.263091
0.220876
0.247747
0.424391
0.100000
0.000000
0.000000
0.000000
0.000000
0.086901
0.086093
0.186685
0.018075
0.071933
0.086966
0.223956
0.154289
0.094449
0.057568
0.132450
0.099425
0.247236
0.127706
0.264659
0.107269
0.126702
0.219758
0.269057
0.104880
0.194814
0.124074
0.100000
0.100000
0.000000
0.000000
0.000000
0.000000
0.126699
0.187480
0.191624
0.139008
0.283279
0.013127
0.194260
0.100821
0.159462
0.233380
0.223453
0.217898
0.083717
0.032890
0.120612
0.230334
0.154527
0.362883
0.039444
0.053564
0.166967
0.208578
0.279622
0.100000
0.000000
0.000000
0.000000
0.000000
0.120449
0.105315
0.225202
0.044006
0.177559
0.078823
0.140611
0.106942
0.105927
0.187722
0.051522
0.275880
0.123896
0.047754
0.263186
0.099519
0.183859
0.167967
0.223838
0.098690
0.200284
0.167215
0.197154
0.100000
0.000000
0.000000
0.000000
0.000000
0.074923
0.062097
0.110078
0.161421
0.152121
0.092158
0.206823
0.138378
0.192275
0.255118
0.180725
0.090166
0.150133
0.011840
0.312795
0.238759
0.226072
0.120712
0.103505
0.081794
0.355412
0.146768
0.100000
0.100000
0.000000
0.000000
0.000000
0.000000
0.101271
0.109177
0.061029
0.146083
0.148971
0.039933
0.197384
0.010990
0.256456
0.189403
0.174908
0.141727
0.106168
0.105954
0.187396
0.121074
0.065955
0.213574
0.095501
0.221282
0.187176
0.269133
0.312688
0.100000
0.000000
0.000000
0.000000
0.000000
0.068402
0.035510
0.064125
0.055154
0.087384
0.146908
0.031662
0.064369
0.137913
0.239109
0.184029
0.090252
0.236695
0.229889
0.086461
0.056245
0.183344
0.323553
0.168661
0.061832
0.403621
0.079971
0.316896
0.100000
0.000000
0.000000
0.000000
0.000000
0.083178
0.071685
0.035786
0.280393
0.163539
0.227587
0.192170
0.301959
0.280684
0.169983
0.141338
0.028483
0.099466
0.190665
0.113490
0.140745
0.171648
0.186979
0.339296
0.388958
0.242033
0.323912
0.136696
0.100000
0.000000
0.000000
0.000000
0.000000
0.070039
0.172397
0.210961
0.186258
0.332632
0.172327
0.015244
0.171423
0.129337
0.100744
0.207627
0.041387
0.137626
0.178710
0.202657
0.276934
0.205193
0.106740
0.284328
0.337565
0.069892
0.320607
0.327954
0.100000
0.000000
0.000000
0.000000
0.000000
0.121994
0.051714
0.272293
0.150216
0.175143
0.121090
0.568667
0.154909
0.169421
0.220290
0.156629
0.238056
0.194722
0.052162
0.159259
0.190773
0.122396
0.453810
0.155097
0.326169
0.074315
0.225338
0.041474
0.100000
0.000000
0.000000
0.000000
0.000000
0.064192
0.085844
0.205913
0.086032
0.272726
0.360144
0.137596
0.312596
0.299300
0.207135
0.234277
0.446810
0.216618
0.028080
0.163118
0.122457
0.111393
0.169525
0.163919
0.097198
0.207117
0.188549
0.540325
0.100000
0.000000
0.000000
0.000000
0.000000
0.071095
0.256890
0.116033
0.144618
0.218626
0.241878
0.305794
0.271047
0.207754
0.322633
0.156732
0.207450
0.135024
0.229457
0.006466
0.118153
0.061702
0.077787
0.231047
0.159719
0.260153
0.033276
0.397634
0.100000
0.000000
0.000000
0.000000
0.000000
0.092705
0.304471
0.122760
0.226557
0.135219
0.038717
0.208620
0.177555
0.218829
0.518411
0.050911
0.546063
0.298954
0.082427
0.148507
0.277454
0.174543
0.111243
0.102042
0.206887
0.177628
0.329912
0.131428
0.100000
0.000000
0.000000
0.000000
0.000000
0.394940
0.185024
0.146730
0.247218
0.208427
0.235880
0.037230
0.256533
0.129127
0.388290
0.252806
0.099680
0.186568
0.156855
0.094728
0.206142
0.059985
0.300547
0.240733
0.356047
0.523196
0.445296
0.203922
0.100000
0.000000
0.000000
0.000000
0.000000
0.159117
0.270701
0.168006
0.244490
0.026037
0.033824
0.248240
0.252720
0.116296
0.059863
0.152880
0.137678
0.107765
0.074089
0.155637
0.170474
0.369353
0.075147
0.199672
0.171698
0.430332
0.289502
0.268133
0.100000
0.000000
0.000000
0.000000
0.000000
0.032264
0.024088
0.068572
0.137145
0.105739
0.179829
0.106885
0.059385
0.111798
0.042291
0.150947
0.196296
0.305205
0.187755
0.272489
0.281425
0.126920
0.200226
0.143614
0.054891
0.173714
0.077934
0.175244
0.100000
0.000000
0.000000
0.000000
0.000000
0.000000
0.000000
0.000000
0.000000
0.000000
0.000000
0.000000
0.000000
0.000000
0.000000
0.000000
0.000000
0.000000
0.000000
0.000000
0.000000
0.000000
0.000000
0.000000
0.000000
0.000000
0.000000
0.000000
0.000000
0.000000
0.000000
0.000000
0.000000
0.000000
0.000000
0.000000
0.000000
0.000000
0.000000
0.000000
0.000000
0.000000
0.000000
0.000000
0.000000
0.000000
0.000000
0.000000
0.000000
0.000000
0.000000
0.000000
0.000000
0.000000
0.000000
0.000000
0.000000
0.000000
0.000000
0.000000
0.000000
0.000000
0.000000
0.000000
0.000000
0.000000
0.000000
0.000000
0.000000
0.000000
0.000000
0.000000
0.000000
0.000000
0.000000
0.000000
0.000000
0.000000
0.000000
0.000000
0.000000
0.000000
0.000000
0.000000
0.000000
0.000000
0.000000
0.000000
0.000000
0.000000
0.000000
0.000000
0.000000
0.000000
0.000000
0.000000
0.000000
0.000000
0.000000
0.000000
0.000000
0.000000
0.000000
0.000000
0.000000
0.000000
0.000000
0.000000
0.000000
0.000000
0.000000
0.000000
0.000000
</DataArray>
<DataArray NumberOfComponents='1' type='Float32' Name='pressure' format='ascii'>
0.000000
0.000000
0.000000
0.000000
0.000000
0.000000
0.000000
0.000000
0.000000
0.000000
0.000000
0.000000
0.000000
0.000000
0.000000
0.000000
0.000000
0.000000
0.000000
0.000000
0.000000
0.000000
0.000000
0.000000
0.000000
0.000000
0.000000
0.000000
0.000000
0.000000
0.000000
0.000000
0.000000
0.000000
0.000000
0.000000
0.000000
0.000000
0.000000
0.000000
0.000000
0.000000
0.000000
0.000000
0.000000
0.000000
0.000000
0.000000
0.000000
0.000000
0.000000
0.000000
0.000000
0.000000
0.000000
0.000000
0.000000
0.000000
105047.804688
104948.632812
105120.804688
104786.359375
102887.492188
103059.757812
102926.625000
102552.093750
102289.273438
101603.507812
100182.203125
99502.148438
97946.906250
96431.492188
94206.382812
92422.984375
89526.500000
85811.273438
83864.476562
80643.367188
76749.289062
70970.546875
64047.539062
53804.097656
40020.527344
0.000000
0.000000
0.000000
105262.757812
104621.367188
104586.578125
104686.468750
103217.203125
103314.664062
102094.117188
102160.226562
101632.835938
100860.000000
97980.335938
98811.429688
98669.695312
95307.625000
93997.234375
93127.460938
89492.164062
85643.890625
84420.132812
81318.445312
77247.218750
71373.187500
65924.757812
58292.542969
48602.808594
0.000000
0.000000
0.000000
106035.273438
105450.835938
104978.117188
104849.531250
105067.875000
103618.281250
100352.210938
99955.203125
101397.929688
99897.335938
96481.015625
94640.359375
90441.312500
89331.406250
86308.812500
83327.062500
77134.101562
70014.929688
62492.296875
65685.835938
56961.519531
55261.093750
35234.343750
30294.888672
77184.890625
89894.210938
0.000000
0.000000
106758.648438
106185.726562
104842.742188
105223.929688
104137.218750
104151.226562
102934.382812
101174.328125
101553.265625
98685.804688
97256.632812
94988.914062
93368.187500
91517.109375
90207.492188
85913.578125
82041.117188
76468.671875
70186.460938
74595.929688
57585.582031
54363.574219
0.000000
0.000000
104787.992188
99065.468750
0.000000
0.000000
106908.984375
106430.820312
106058.898438
104397.523438
103826.250000
102979.562500
102396.929688
99711.648438
101809.812500
96573.351562
99788.859375
98507.539062
96224.507812
93011.679688
94522.234375
91560.140625
88116.882812
84393.531250
81761.546875
82029.929688
74807.750000
63602.859375
69698.250000
56811.820312
105489.570312
110045.195312
0.000000
0.000000
107429.375000
106728.921875
106062.546875
103668.929688
102397.242188
103602.937500
102633.546875
102797.601562
101988.789062
100967.250000
101388.890625
100143.898438
99167.210938
94784.390625
95156.437500
95363.437500
91843.812500
90968.328125
78132.007812
87041.562500
85688.992188
95265.242188
77129.937500
89225.281250
120842.781250
114386.585938
0.000000
0.000000
107989.562500
108038.093750
105872.914062
104133.234375
103346.601562
102411.937500
104074.078125
103454.984375
103391.992188
102649.546875
101452.820312
100142.265625
97499.679688
96787.242188
96381.695312
97361.578125
96652.218750
94275.578125
88666.750000
86735.765625
93277.531250
100161.898438
112819.507812
90419.781250
125627.226562
120016.039062
0.000000
0.000000
107823.335938
107281.289062
105978.570312
105786.835938
104796.031250
105317.718750
104421.554688
104821.148438
103624.289062
103107.882812
103314.148438
100807.812500
98860.539062
98669.335938
100674.757812
98430.664062
100339.828125
97983.476562
95413.468750
92997.281250
97780.960938
105563.851562
103554.570312
109275.601562
122564.937500
122881.703125
0.000000
0.000000
108429.429688
106922.140625
106975.812500
106686.187500
104972.250000
104962.031250
105380.828125
104366.585938
104815.015625
105701.617188
104991.664062
105548.406250
103101.093750
100647.617188
99895.335938
102262.843750
102312.812500
102862.609375
105540.593750
102576.703125
97722.968750
103390.203125
109960.164062
110356.039062
129242.734375
123634.085938
0.000000
0.000000
108190.734375
108130.476562
107443.882812
106119.140625
106475.484375
104665.867188
106451.367188
105812.820312
106446.320312
107708.882812
105105.484375
104859.125000
102191.312500
103459.945312
101765.101562
103955.390625
102240.406250
104171.382812
104907.406250
105926.390625
111622.484375
114754.867188
113838.328125
115222.523438
129993.679688
124069.007812
0.000000
0.000000
107363.085938
107141.679688
107517.960938
107468.367188
106971.750000
106022.835938
107936.914062
107182.437500
108208.828125
106655.664062
105578.953125
105774.671875
105251.273438
106090.429688
103966.984375
105423.210938
105690.593750
108422.835938
107292.890625
109430.875000
112246.273438
113368.773438
117407.460938
119163.976562
129865.578125
124326.203125
0.000000
0.000000
108758.281250
108650.929688
108041.312500
107730.835938
106801.515625
106263.656250
107583.968750
107024.882812
109016.914062
106145.203125
107342.375000
107394.132812
104659.156250
104146.648438
106434.109375
106608.078125
106406.726562
108074.195312
111036.140625
110690.742188
117213.695312
115843.171875
119457.921875
117513.382812