<?xml version='1.0' encoding='UTF-8'?>
<VTKFile xmlns='VTK' byte_order='LittleEndian' version='0.1' type='UnstructuredGrid'>
<UnstructuredGrid>
<Piece NumberOfCells='1344' NumberOfPoints='1344'>
<Points>
<DataArray NumberOfComponents='3' type='Float32' Name='Position' format='ascii'>
-0.075000 -0.075000 0.000000
-0.075000 -0.050000 0.000000
-0.075000 -0.025000 0.000000
-0.075000 0.000000 0.000000
-0.075000 0.025000 0.000000
-0.075000 0.050000 0.000000
-0.075000 0.075000 0.000000
-0.075000 0.100000 0.000000
-0.075000 0.125000 0.000000
-0.075000 0.150000 0.000000
-0.075000 0.175000 0.000000
-0.075000 0.200000 0.000000
-0.075000 0.225000 0.000000
-0.075000 0.250000 0.000000
-0.075000 0.275000 0.000000
-0.075000 0.300000 0.000000
-0.075000 0.325000 0.000000
-0.075000 0.350000 0.000000
-0.075000 0.375000 0.000000
-0.075000 0.400000 0.000000
-0.075000 0.425000 0.000000
-0.075000 0.450000 0.000000
-0.075000 0.475000 0.000000
-0.075000 0.500000 0.000000
-0.075000 0.525000 0.000000
-0.075000 0.550000 0.000000
-0.075000 0.575000 0.000000
-0.075000 0.600000 0.000000
-0.050000 -0.075000 0.000000
-0.050000 -0.050000 0.000000
-0.050000 -0.025000 0.000000
-0.050000 0.000000 0.000000
-0.050000 0.025000 0.000000
-0.050000 0.050000 0.000000
-0.050000 0.075000 0.000000
-0.050000 0.100000 0.000000
-0.050000 0.125000 0.000000
-0.050000 0.150000 0.000000
-0.050000 0.175000 0.000000
-0.050000 0.200000 0.000000
-0.050000 0.225000 0.000000
-0.050000 0.250000 0.000000
-0.050000 0.275000 0.000000
-0.050000 0.300000 0.000000
-0.050000 0.325000 0.000000
-0.050000 0.350000 0.000000
-0.050000 0.375000 0.000000
-0.050000 0.400000 0.000000
-0.050000 0.425000 0.000000
-0.050000 0.450000 0.000000
-0.050000 0.475000 0.000000
-0.050000 0.500000 0.000000
-0.050000 0.525000 0.000000
-0.050000 0.550000 0.000000
-0.050000 0.575000 0.000000
-0.050000 0.600000 0.000000
-0.025000 -0.075000 0.000000
-0.025000 -0.050000 0.000000
-0.025000 -0.025000 0.000000
-0.025000 0.000000 0.000000
-0.025000 0.025000 0.000000
-0.025000 0.050000 0.000000
-0.025000 0.075000 0.000000
-0.025000 0.100000 0.000000
-0.025000 0.125000 0.000000
-0.025000 0.150000 0.000000
-0.025000 0.175000 0.000000
-0.025000 0.200000 0.000000
-0.025000 0.225000 0.000000
-0.025000 0.250000 0.000000
-0.025000 0.275000 0.000000
-0.025000 0.300000 0.000000
-0.025000 0.325000 0.000000
-0.025000 0.350000 0.000000
-0.025000 0.375000 0.000000
-0.025000 0.400000 0.000000
-0.025000 0.425000 0.000000
-0.025000 0.450000 0.000000
-0.025000 0.475000 0.000000
-0.025000 0.500000 0.000000
-0.025000 0.525000 0.000000
-0.025000 0.550000 0.000000
-0.025000 0.575000 0.000000
-0.025000 0.600000 0.000000
0.000000 -0.075000 0.000000
0.000000 -0.050000 0.000000
0.000000 -0.025000 0.000000
0.000000 0.000000 0.000000
0.000000 0.025000 0.000000
0.000000 0.050000 0.000000
0.000000 0.075000 0.000000
0.000000 0.100000 0.000000
0.000000 0.125000 0.000000
0.000000 0.150000 0.000000
0.000000 0.175000 0.000000
0.000000 0.200000 0.000000
0.000000 0.225000 0.000000
0.000000 0.250000 0.000000
0.000000 0.275000 0.000000
0.000000 0.300000 0.000000
0.000000 0.325000 0.000000
0.000000 0.350000 0.000000
0.000000 0.375000 0.000000
0.000000 0.400000 0.000000
0.000000 0.425000 0.000000
0.000000 0.450000 0.000000
0.000000 0.475000 0.000000
0.000000 0.500000 0.000000
0.000000 0.525000 0.000000
0.000000 0.550000 0.000000
0.000000 0.575000 0.000000
0.000000 0.600000 0.000000
0.025000 -0.075000 0.000000
0.025000 -0.050000 0.000000
0.025000 -0.025000 0.000000
0.025000 0.000000 0.000000
0.023808 0.026424 0.000000
0.025413 0.053015 0.000000
0.024456 0.075264 0.000000
0.023580 0.106470 0.000000
0.024479 0.132491 0.000000
0.024116 0.159028 0.000000
0.024606 0.186214 0.000000
0.024055 0.211799 0.000000
0.024577 0.239161 0.000000
0.024596 0.264715 0.000000
0.024829 0.290518 0.000000
0.024649 0.316836 0.000000
0.024897 0.341546 0.000000
0.025025 0.367967 0.000000
0.024948 0.392223 0.000000
0.025189 0.418307 0.000000
0.024811 0.442741 0.000000
0.025179 0.469156 0.000000
0.024227 0.493002 0.000000
0.024705 0.522103 0.000000
0.023901 0.547935 0.000000
0.022107 0.575368 0.000000
0.064298 0.578497 0.000000
0.064711 0.600000 0.000000
0.050000 -0.075000 0.000000
0.050000 -0.050000 0.000000
0.050000 -0.025000 0.000000
0.050000 0.000000 0.000000
0.046899 0.024535 0.000000
0.052554 0.050683 0.000000
0.049097 0.073880 0.000000
0.045068 0.100326 0.000000
0.050100 0.124370 0.000000
0.047735 0.149162 0.000000
0.047856 0.173922 0.000000
0.049503 0.198870 0.000000
0.047351 0.223528 0.000000
0.048973 0.248705 0.000000
0.048795 0.273936 0.000000
0.048208 0.299401 0.000000
0.049405 0.324811 0.000000
0.048603 0.350560 0.000000
0.049628 0.376092 0.000000
0.048732 0.402607 0.000000
0.049394 0.429068 0.000000
0.048140 0.455990 0.000000
0.051298 0.480960 0.000000
0.045425 0.507359 0.000000
0.048480 0.531283 0.000000
0.041233 0.576503 0.000000
0.089544 0.577331 0.000000
0.089840 0.600000 0.000000
0.075000 -0.075000 0.000000
0.075000 -0.050000 0.000000
0.075000 -0.025000 0.000000
0.075000 0.000000 0.000000
0.071076 0.026720 0.000000
0.077144 0.053443 0.000000
0.073451 0.078024 0.000000
0.071119 0.104404 0.000000
0.074539 0.130335 0.000000
0.073399 0.156084 0.000000
0.073368 0.181473 0.000000
0.074268 0.206898 0.000000
0.072969 0.232187 0.000000
0.074509 0.256804 0.000000
0.073931 0.281447 0.000000
0.073819 0.306029 0.000000
0.074273 0.329973 0.000000
0.073741 0.354543 0.000000
0.073687 0.378803 0.000000
0.072891 0.404115 0.000000
0.072697 0.428375 0.000000
0.073005 0.454562 0.000000
0.074283 0.478860 0.000000
0.072635 0.504467 0.000000
0.073223 0.528827 0.000000
0.050456 0.557925 0.000000
0.114949 0.577238 0.000000
0.115008 0.600000 0.000000
0.100000 -0.075000 0.000000
0.100000 -0.050000 0.000000
0.100000 -0.025000 0.000000
0.100000 0.000000 0.000000
0.093386 0.024761 0.000000
0.103635 0.050621 0.000000
0.097249 0.073793 0.000000
0.094097 0.100680 0.000000
0.099153 0.124561 0.000000
0.097303 0.149226 0.000000
0.097801 0.174255 0.000000
0.098948 0.198733 0.000000
0.098020 0.223523 0.000000
0.099461 0.247819 0.000000
0.099086 0.272989 0.000000
0.099706 0.297506 0.000000
0.100101 0.322375 0.000000
0.099669 0.347432 0.000000
0.099532 0.372561 0.000000
0.098927 0.398053 0.000000
0.098610 0.423245 0.000000
0.097987 0.447888 0.000000
0.101750 0.473835 0.000000
0.095971 0.497293 0.000000
0.097915 0.529976 0.000000
0.081404 0.549720 0.000000
0.139946 0.577274 0.000000
0.139970 0.600000 0.000000
0.125000 -0.075000 0.000000
0.125000 -0.050000 0.000000
0.125000 -0.025000 0.000000
0.125000 0.000000 0.000000
0.118779 0.025649 0.000000
0.127840 0.052248 0.000000
0.123298 0.077107 0.000000
0.120628 0.101666 0.000000
0.124570 0.126579 0.000000
0.123037 0.152466 0.000000
0.123863 0.176590 0.000000
0.124370 0.201940 0.000000
0.123860 0.226604 0.000000
0.124849 0.251197 0.000000
0.124433 0.276072 0.000000
0.124545 0.301007 0.000000
0.124608 0.325877 0.000000
0.123604 0.351401 0.000000
0.123429 0.376436 0.000000
0.122476 0.401928 0.000000
0.123059 0.426583 0.000000
0.120883 0.452810 0.000000
0.127390 0.478087 0.000000
0.117282 0.503906 0.000000
0.125647 0.528597 0.000000
0.105693 0.551775 0.000000
0.164903 0.577096 0.000000
0.164980 0.600000 0.000000
0.150000 -0.075000 0.000000
0.150000 -0.050000 0.000000
0.150000 -0.025000 0.000000
0.150000 0.000000 0.000000
0.141469 0.024993 0.000000
0.153782 0.050565 0.000000
0.147027 0.074199 0.000000
0.144205 0.100817 0.000000
0.149322 0.124565 0.000000
0.147144 0.149411 0.000000
0.148335 0.174713 0.000000
0.149003 0.199191 0.000000
0.148660 0.224380 0.000000
0.149948 0.249013 0.000000
0.149049 0.274262 0.000000
0.150061 0.298927 0.000000
0.149354 0.324127 0.000000
0.149318 0.349102 0.000000
0.148720 0.373620 0.000000
0.148165 0.399102 0.000000
0.148987 0.423309 0.000000
0.145414 0.448396 0.000000
0.152612 0.473874 0.000000
0.141525 0.499672 0.000000
0.149193 0.526026 0.000000
0.133356 0.551164 0.000000
0.189774 0.577137 0.000000
0.189934 0.600000 0.000000
0.175000 -0.075000 0.000000
0.175000 -0.050000 0.000000
0.175000 -0.025000 0.000000
0.175000 0.000000 0.000000
0.167164 0.025263 0.000000
0.177926 0.051068 0.000000
0.173821 0.075939 0.000000
0.170755 0.099753 0.000000
0.175083 0.124254 0.000000
0.172685 0.149288 0.000000
0.174492 0.173609 0.000000
0.174186 0.198309 0.000000
0.174248 0.223561 0.000000
0.174798 0.247957 0.000000
0.174393 0.273488 0.000000
0.174623 0.298579 0.000000
0.174285 0.323747 0.000000
0.173856 0.349669 0.000000
0.173395 0.374477 0.000000
0.172795 0.400271 0.000000
0.173522 0.424926 0.000000
0.169378 0.450090 0.000000
0.176893 0.477194 0.000000
0.165786 0.499955 0.000000
0.173740 0.530030 0.000000
0.157554 0.550452 0.000000
0.215064 0.577049 0.000000
0.215020 0.600000 0.000000
0.200000 -0.075000 0.000000
0.200000 -0.050000 0.000000
0.200000 -0.025000 0.000000
0.200000 0.000000 0.000000
0.190655 0.024998 0.000000
0.203840 0.050640 0.000000
0.197901 0.074540 0.000000
0.195133 0.100746 0.000000
0.200513 0.124643 0.000000
0.197306 0.149589 0.000000
0.199298 0.174919 0.000000
0.198976 0.199605 0.000000
0.199128 0.224851 0.000000
0.199715 0.250011 0.000000
0.198910 0.275069 0.000000
0.199611 0.300045 0.000000
0.198560 0.325473 0.000000
0.198831 0.350183 0.000000
0.198132 0.375525 0.000000
0.197752 0.400450 0.000000
0.199373 0.425516 0.000000
0.193515 0.451196 0.000000
0.203273 0.476265 0.000000
0.189090 0.502684 0.000000
0.201014 0.529432 0.000000
0.184698 0.551086 0.000000
0.240028 0.577127 0.000000
0.240013 0.600000 0.000000
0.225000 -0.075000 0.000000
0.225000 -0.050000 0.000000
0.225000 -0.025000 0.000000
0.225000 0.000000 0.000000
0.215966 0.025049 0.000000
0.228190 0.050103 0.000000
0.224170 0.075278 0.000000
0.220855 0.099012 0.000000
0.225639 0.123971 0.000000
0.222546 0.148783 0.000000
0.224737 0.173332 0.000000
0.224010 0.198191 0.000000
0.224032 0.223503 0.000000
0.224667 0.247820 0.000000
0.223753 0.273619 0.000000
0.224623 0.298285 0.000000
0.223500 0.323517 0.000000
0.223867 0.348968 0.000000
0.223151 0.373548 0.000000
[...]
<PointData>
<DataArray NumberOfComponents='1' type='Int32' Name='ParticleType' format='ascii'>
3
3
3
3
3
3
3
3
3
3
3
3
3
3
3
3
3
3
3
3
3
3
3
3
3
3
3
3
3
3
3
3
3
3
3
3
3
3
3
3
3
3
3
3
3
3
3
3
3
3
3
3
3
3
3
3
3
3
2
2
2
2
2
2
2
2
2
2
2
2
2
2
2
2
2
2
2
2
2
2
2
2
2
2
3
3
2
2
2
2
2
2
2
2
2
2
2
2
2
2
2
2
2
2
2
2
2
2
2
2
2
2
3
3
2
2
0
0
0
0
0
0
0
0
0
0
0
0
0
0
0
0
0
0
0
0
0
0
0
0
3
3
2
2
0
0
0
0
0
0
0
0
0
0
0
0
0
0
0
0
0
0
0
0
0
0
0
0
3
3
2
2
0
0
0
0
0
0
0
0
0
0
0
0
0
0
0
0
0
0
0
0
0
0
0
0
3
3
2
2
0
0
0
0
0
0
0
0
0
0
0
0
0
0
0
0
0
0
0
0
0
0
0
0
3
3
2
2
0
0
0
0
0
0
0
0
0
0
0
0
0
0
0
0
0
0
0
0
0
0
0
0
3
3
2
2
0
0
0
0
0
0
0
0
0
0
0
0
0
0
0
0
0
0
0
0
0
0
0
0
3
3
2
2
0
0
0
0
0
0
0
0
0
0
0
0
0
0
0
0
0
0
0
0
0
0
0
0
3
3
2
2
0
0
0
0
0
0
0
0
0
0
0
0
0
0
0
0
0
0
0
0
0
0
0
0
3
3
2
2
0
0
0
0
0
0
0
0
0
0
0
0
0
0
0
0
0
0
0
0
0
0
0
0
3
3
2
2
0
0
0
0
0
0
0
0
0
0
0
0
0
0
0
0
0
0
0
0
0
0
0
0
3
3
2
2
0
0
0
0
0
0
0
0
0
0
0
0
0
0
0
0
0
0
0
0
0
0
0
0
3
3
2
2
0
0
0
0
0
0
0
0
0
0
0
0
0
0
0
0
0
0
0
0
0
0
0
0
3
3
2
2
0
0
0
0
0
0
0
0
0
0
0
0
0
0
0
0
0
0
0
0
0
0
0
0
3
3
2
2
0
0
0
0
0
0
0
0
0
0
0
0
0
0
0
0
0
0
0
0
0
0
0
0
3
3
2
2
0
0
0
0
0
0
0
0
0
0
0
0
0
0
0
0
0
0
0
0
0
0
0
0
3
3
2
2
0
0
0
0
0
0
0
0
0
0
0
0
0
0
0
0
0
0
0
0
0
0
0
0
3
3
2
2
0
0
0
0
0
0
0
0
0
0
0
0
0
0
0
0
0
0
0
0
0
0
0
0
3
3
2
2
0
0
0
0
0
0
0
0
0
0
0
0
0
0
0
0
0
0
0
0
0
0
0
0
3
3
2
2
0
0
0
0
0
0
0
0
0
0
0
0
0
0
0
0
0
0
0
0
0
0
0
0
3
3
2
2
0
0
0
0
0
0
0
0
0
0
0
0
0
0
0
0
0
0
0
0
0
0
0
0
3
3
2
2
0
0
0
0
0
0
0
0
0
0
0
0
0
0
0
0
0
0
0
0
0
0
0
0
3
3
2
2
0
0
0
0
0
0
0
0
0
0
0
0
0
0
0
0
0
0
0
0
0
0
0
0
3
3
2
2
0
0
0
0
0
0
0
0
0
0
0
0
0
0
0
0
0
0
0
0
0
0
0
0
3
3
2
2
0
0
0
0
0
0
0
0
0
0
0
0
0
0
0
0
0
0
0
0
0
0
0
0
3
3
2
2
0
0
0
0
0
0
0
0
0
0
0
0
0
0
0
0
0
0
0
0
0
0
0
0
3
3
2
2
0
0
0
0
0
0
0
0
0
0
0
0
0
0
0
0
0
0
0
0
0
0
0
0
3
3
2
2
0
0
0
0
0
0
0
0
0
0
0
0
0
0
0
0
0
0
0
0
0
0
0
0
3
3
2
2
0
0
0
0
0
0
0
0
0
0
0
0
0
0
0
0
0
0
0
0
0
0
0
0
3
3
2
2
0
0
0
0
0
0
0
0
0
0
0
0
0
0
0
0
0
0
0
0
0
0
0
0
3
3
2
2
0
0
0
0
0
0
0
0
0
0
0
0
0
0
0
0
0
0
0
0
0
0
0
0
3
3
2
2
0
0
0
0
0
0
0
0
0
0
0
0
0
0
0
0
0
0
0
0
0
0
0
0
3
3
2
2
0
0
0
0
0
0
0
0
0
0
0
0
0
0
0
0
0
0
0
0
0
0
0
0
3
3
2
2
0
0
0
0
0
0
0
0
0
0
0
0
0
0
0
0
0
0
0
0
0
0
0
0
3
3
2
2
0
0
0
0
0
0
0
0
0
0
0
0
0
0
0
0
0
0
0
0
0
0
0
0
3
3
2
2
0
0
0
0
0
0
0
0
0
0
0
0
0
0
0
0
0
0
0
0
0
0
0
0
3
3
2
2
0
0
0
0
0
0
0
0
0
0
0
0
0
0
0
0
0
0
0
0
0
0
0
0
3
3
2
2
0
0
0
0
0
0
0
0
0
0
0
0
0
0
0
0
0
0
0
0
0
0
0
0
3
3
2
2
0
0
0
0
0
0
0
0
0
0
0
0
0
0
0
0
0
0
0
0
0
0
0
0
3
3
2
2
0
0
0
0
0
0
0
0
0
0
0
0
0
0
0
0
0
0
0
0
0
0
0
0
3
3
2
2
0
0
0
0
0
0
0
0
0
0
0
0
0
0
0
0
0
0
0
0
0
0
0
0
3
3
2
2
2
2
2
2
2
2
2
2
2
2
2
2
2
2
2
2
2
2
2
2
2
2
2
2
3
3
2
2
2
2
2
2
2
2
2
2
2
2
2
2
2
2
2
2
2
2
2
2
2
2
2
2
3
3
3
3
3
3
3
3
3
3
3
3
3
3
3
3
3
3
3
3
3
3
3
3
3
3
3
3
3
3
3
3
3
3
3
3
3
3
3
3
3
3
3
3
3
3
3
3
3
3
3
3
3
3
3
3
</DataArray>
<DataArray NumberOfComponents='1' type='Float32' Name='Velocity' format='ascii'>
0.000000
0.000000
0.000000
0.000000
0.000000
0.000000
0.000000
0.000000
0.000000
0.000000
0.000000
0.000000
0.000000
0.000000
0.000000
0.000000
0.000000
0.000000
0.000000
0.000000
0.000000
0.000000
0.000000
0.000000
0.000000
0.000000
0.000000
0.000000
0.000000
0.000000
0.000000
0.000000
0.000000
0.000000
0.000000
0.000000
0.000000
0.000000
0.000000
0.000000
0.000000
0.000000
0.000000
0.000000
0.000000
0.000000
0.000000
0.000000
0.000000
0.000000
0.000000
0.000000
0.000000
0.000000
0.000000
0.000000
0.000000
0.000000
0.000000
0.000000
0.000000
0.000000
0.000000
0.000000
0.000000
0.000000
0.000000
0.000000
0.000000
0.000000
0.000000
0.000000
0.000000
0.000000
0.000000
0.000000
0.000000
0.000000
0.000000
0.000000
0.000000
0.000000
0.000000
0.000000
0.000000
0.000000
0.000000
0.000000
0.000000
0.000000
0.000000
0.000000
0.000000
0.000000
0.000000
0.000000
0.000000
0.000000
0.000000
0.000000
0.000000
0.000000
0.000000
0.000000
0.000000
0.000000
0.000000
0.000000
0.000000
0.000000
0.000000
0.000000
0.000000
0.000000
0.000000
0.000000
0.010185
0.028618
0.093985
0.107776
0.072054
0.090587
0.096928
0.091404
0.092087
0.092271
0.069572
0.068889
0.051417
0.033691
0.054056
0.032127
0.026260
0.044624
0.056978
0.061837
0.245825
0.100000
0.100000
0.100000
0.000000
0.000000
0.000000
0.000000
0.025793
0.093825
0.052704
0.098584
0.084594
0.045220
0.064493
0.052455
0.053926
0.054197
0.055902
0.072264
0.074517
0.076576
0.103080
0.060007
0.162430
0.118003
0.149121
0.170998
0.152968
0.100000
0.100000
0.100000
0.000000
0.000000
0.000000
0.000000
0.060257
0.072787
0.067143
0.114449
0.069854
0.069592
0.068215
0.076096
0.073122
0.067682
0.061433
0.055763
0.060219
0.059013
0.062844
0.090206
0.076812
0.050130
0.113448
0.084063
0.102786
0.215910
0.100000
0.100000
0.000000
0.000000
0.000000
0.000000
0.063265
0.098922
0.029716
0.096461
0.043258
0.037938
0.027507
0.004872
0.017668
0.018586
0.016196
0.021844
0.030415
0.035470
0.023328
0.074690
0.036962
0.079112
0.072900
0.080714
0.083251
0.111851
0.100000
0.100000
0.000000
0.000000
0.000000
0.000000
0.089212
0.067068
0.064902
0.108507
0.029667
0.040029
0.005923
0.014511
0.012464
0.023606
0.020731
0.024388
0.031540
0.009779
0.024692
0.046559
0.015560
0.079706
0.059948
0.064352
0.031048
0.016825
0.100000
0.100000
0.000000
0.000000
0.000000
0.000000
0.087216
0.079531
0.034083
0.101297
0.047709
0.045377
0.026619
0.012734
0.013642
0.020914
0.017937
0.014840
0.033295
0.003670
0.033495
0.011760
0.021275
0.022592
0.032148
0.011961
0.075368
0.042141
0.100000
0.100000
0.000000
0.000000
0.000000
0.000000
0.096153
0.039436
0.032181
0.081591
0.025643
0.031896
0.039762
0.034700
0.037860
0.033959
0.030209
0.031238
0.012071
0.020920
0.024287
0.006260
0.027376
0.034200
0.043046
0.019293
0.033229
0.026939
0.100000
0.100000
0.000000
0.000000
0.000000
0.000000
0.084173
0.055825
0.025885
0.073767
0.056303
0.037307
0.022054
0.004848
0.001666
0.022741
0.010581
0.023673
0.002981
0.017011
0.009853
0.008181
0.027711
0.049362
0.039366
0.033022
0.081486
0.053364
0.100000
0.100000
0.000000
0.000000
0.000000
0.000000
0.098548
0.031766
0.017979
0.072036
0.033360
0.037029
0.029415
0.037849
0.022787
0.031661
0.026660
0.025648
0.025746
0.024615
0.029590
0.020937
0.019554
0.079335
0.035409
0.030372
0.018863
0.011888
0.100000
0.100000
0.000000
0.000000
0.000000
0.000000
0.087966
0.059482
0.028463
0.046121
0.056926
0.033694
0.032036
0.008164
0.017866
0.010745
0.003943
0.022423
0.001100
0.013731
0.004597
0.009807
0.019457
0.037143
0.022400
0.026816
0.065627
0.054526
0.100000
0.100000
0.000000
0.000000
0.000000
0.000000
0.101367
0.036462
0.030874
0.058262
0.049983
0.032373
0.028777
0.028288
0.012892
0.029088
0.014829
0.023446
0.012873
0.028552
0.014905
0.036588
0.010631
0.081599
0.040441
0.027531
0.049879
0.017675
0.100000
0.100000
0.000000
0.000000
0.000000
0.000000
0.086892
0.066504
0.026355
0.033383
0.048759
0.022072
0.028690
0.007965
0.021956
0.015708
0.008558
0.028965
0.002379
0.017682
0.006389
0.032058
0.026850
0.056106
0.030365
0.010011
0.040781
0.052244
0.100000
0.100000
0.000000
0.000000
0.000000
0.000000
0.109628
0.048280
0.021917
0.050793
0.066432
0.033402
0.046658
0.022777
0.025042
0.025904
0.017893
0.019869
0.013229
0.034266
0.016468
0.046061
0.020920
0.089717
0.029430
0.039169
0.035444
0.011487
0.100000
0.100000
0.000000
0.000000
0.000000
0.000000
0.079090
0.056276
0.018282
0.035699
0.051982
0.027499
0.034976
0.011270
0.020466
0.010306
0.011897
0.017634
0.009402
0.016257
0.017975
0.043076
0.018476
0.075400
0.005465
0.029735
0.047164
0.060138
0.100000
0.100000
0.000000
0.000000
0.000000
0.000000
0.101174
0.071950
0.017632
0.033290
0.063508
0.016652
0.040465
0.013997
0.027981
0.017387
0.019389
0.017732
0.014515
0.023876
0.012191
0.046428
0.021573
0.092711
0.016560
0.046060
0.028328
0.012989
0.100000
0.100000
0.000000
0.000000
0.000000
0.000000
0.086350
0.044576
0.021660
0.045298
0.065194
0.036011
0.047102
0.013394
0.027665
0.013320
0.019062
0.012804
0.014017
0.021062
0.024656
0.043320
0.016146
0.092075
0.012309
0.045427
0.042237
0.051015
0.100000
0.100000
0.000000
0.000000
0.000000
0.000000
0.077450
0.064963
0.023165
0.041008
0.067492
0.020758
0.041923
0.009298
0.028937
0.007671
0.025652
0.009255
0.020290
0.017099
0.025956
0.060226
0.023674
0.093428
0.009653
0.067541
0.024471
0.022929
0.100000
0.100000
0.000000
0.000000
0.000000
0.000000
0.102056
0.068315
0.029863
0.031859
0.050145
0.019697
0.034020
0.005307
0.015515
0.003413
0.010164
0.006529
0.020635
0.019723
0.031231
0.045745
0.036475
0.109373
0.028914
0.053506
0.065846
0.047132
0.100000
0.100000
0.000000
0.000000
0.000000
0.000000
0.069604
0.043798
0.024164
0.048893
0.083835
0.031356
0.048414
0.009875
0.034874
0.003058
0.019165
0.010410
0.014132
0.013766
0.019799
0.070052
0.024440
0.090720
0.015800
0.081848
0.045570
0.019418
0.100000
0.100000
0.000000
0.000000
0.000000
0.000000
0.097243
0.075434
0.011169
0.046225
0.063537
0.031617
0.046476
0.024654
0.030987
0.011197
0.024883
0.017331
0.024459
0.017075
0.042307
0.051248
0.051058
0.114692
0.026528
0.064467
0.069982
0.071947
0.100000
0.100000
0.000000
0.000000
0.000000
0.000000
0.067665
0.040779
0.018195
0.049357
0.073988
0.027359
0.026206
0.008090
0.021708
0.003861
0.014336
0.013553
0.029667
0.028660
0.033256
0.081655
0.048797
0.106336
0.020931
0.100633
0.034256
0.021651
0.100000
0.100000
0.000000
0.000000
0.000000
0.000000
0.092873
0.082159
0.005033
0.041815
0.076952
0.031582
0.042521
0.022812
0.010849
0.012219
0.001692
0.018645
0.016279
0.012431
0.032059
0.064234
0.057165
0.135025
0.031948
0.084943
0.053589
0.091097
0.100000
0.100000
0.000000
0.000000
0.000000
0.000000
0.080247
0.038470
0.034826
0.059573
0.080481
0.040449
0.041728
0.016552
0.036502
0.021963
0.027533
0.022754
0.034680
0.043790
0.035721
0.078974
0.052998
0.101336
0.035804
0.103373
0.032511
0.027008
0.100000
0.100000
0.000000
0.000000
0.000000
0.000000
0.075029
0.078323
0.026002
0.044924
0.080543
0.028433
0.021968
0.012874
0.017778
0.023747
0.016943
0.045624
0.014715
0.055258
0.066342
0.088342
0.080598
0.132519
0.079971
0.139613
0.022324
0.107275
0.100000
0.100000
0.000000
0.000000
0.000000
0.000000
0.103435
0.061126
0.049393
0.055587
0.088795
0.033064
0.049337
0.032262
0.024374
0.027759
0.036581
0.023004
0.009775
0.025354
0.037715
0.071028
0.041791
0.086232
0.020321
0.123618
0.088881
0.029297
0.100000
0.100000
0.000000
0.000000
0.000000
0.000000
0.060276
0.070070
0.043915
0.035517
0.061721
0.014426
0.018462
0.032018
0.022062
0.036587
0.037264
0.045919
0.030868
0.079868
0.076489
0.077438
0.061367
0.083881
0.089059
0.130712
0.079381
0.084619
0.100000
0.100000
0.000000
0.000000
0.000000
0.000000
0.094196
0.075424
0.064773
0.064496
0.103396
0.035417
0.056337
0.021511
0.030750
0.017915
0.041989
0.058647
0.026060
0.062458
0.023229
0.068654
0.031509
0.072651
0.047554
0.172739
0.065774
0.030167
0.100000
0.100000
0.000000
0.000000
0.000000
0.000000
0.063400
0.091514
0.030117
0.043354
0.048617
0.017911
0.026782
0.019802
0.025779
0.021037
0.030909
0.025346
0.033775
0.065350
0.039976
0.075472
0.034369
0.120087
0.032394
0.145007
0.196463
0.097514
0.100000
0.100000
0.000000
0.000000
0.000000
0.000000
0.083410
0.100726
0.066717
0.054538
0.097736
0.029155
0.041479
0.027076
0.032190
0.023822
0.045614
0.056376
0.040774
0.071765
0.034860
0.036179
0.040166
0.050380
0.075352
0.104056
0.137290
0.045397
0.100000
0.100000
0.000000
0.000000
0.000000
0.000000
0.059534
0.117871
0.033599
0.050095
0.050465
0.019694
0.032853
0.025394
0.040506
0.035680
0.046335
0.044721
0.029924
0.050422
0.016781
0.018183
0.074209
0.015614
0.045505
0.047914
0.138588
0.082252
0.100000
0.100000
0.000000
0.000000
0.000000
0.000000
0.070272
0.117385
0.062581
0.051302
0.101948
0.039120
0.053864
0.027778
0.069459
0.018701
0.046120
0.046265
0.033316
0.038156
0.044597
0.025766
0.034824
0.022512
0.051362
0.074861
0.210127
0.100417
0.100000
0.100000
0.000000
0.000000
0.000000
0.000000
0.055229
0.116050
0.056677
0.048899
0.065471
0.019378
0.028029
0.011415
0.061099
0.023926
0.044651
0.063984
0.023755
0.080858
0.013751
0.016814
0.022179
0.010484
0.087309
0.052234
0.117876
0.083038
0.100000
0.100000
0.000000
0.000000
0.000000
0.000000
0.048844
0.118878
0.039522
0.038644
0.086782
0.056135
0.055095
0.026590
0.092026
0.045943
0.070896
0.055490
0.051760
0.031326
0.048450
0.053983
0.035951
0.040903
0.041958
0.066762
0.050447
0.112355
0.100000
0.100000
0.000000
0.000000
0.000000
0.000000
0.067238
0.104091
0.066004
0.018659
0.054263
0.046880
0.016845
0.033234
0.048103
0.011631
0.048236
0.044861
0.026137
0.097724
0.045091
0.045247
0.052843
0.022635
0.069049
0.039064
0.113219
0.093431
0.100000
0.100000
0.000000
0.000000
0.000000
0.000000
0.025600
0.074724
0.040680
0.030128
0.075380
0.035632
0.032372
0.012862
0.067629
0.038133
0.072849
0.051545
0.069072
0.048952
0.063839
0.064470
0.065585
0.056899
0.049418
0.085577
0.088186
0.127932
0.100000
0.100000
0.000000
0.000000
0.000000
0.000000
0.057635
0.099391
0.060201
0.008533
0.050729
0.009367
0.054246
0.022259
0.055720
0.013219
0.006033
0.038754
0.015935
0.094083
0.041964
0.080694
0.031885
0.014167
0.137384
0.080520
0.051478
0.131640
0.100000
0.100000
0.000000
0.000000
0.000000
0.000000
0.017965
0.092219
0.018560
0.040062
0.066774
0.063922
0.055592
0.097153
0.058893
0.102244
0.101672
0.136280
0.066366
0.128560
0.086899
0.064054
0.122876
0.104187
0.117562
0.128759
0.105673
0.125989
0.100000
0.100000
0.000000
0.000000
0.000000
0.000000
0.041805
0.064328
0.026262
0.014512
0.044100
0.020976
0.054227
0.036953
0.060474
0.070864
0.062003
0.060676
0.084816
0.096003
0.018614
0.125875
0.038753
0.104015
0.064984
0.063363
0.062871
0.046245
0.309455
0.100000
0.000000
0.000000
0.000000
0.000000
0.003430
0.061075
0.079952
0.075197
0.132539
0.093972
0.121262
0.063540
0.110425
0.020918
0.106444
0.001691
0.047886
0.018841
0.046428
0.090050
0.052376
0.039677
0.097035
0.120280
0.071740
0.094555
0.146966
0.100000
0.000000
0.000000
0.000000
0.000000
0.018897
0.013943
0.030198
0.012536
0.013293
0.031498
0.042519
0.054399
0.049276
0.065950
0.081125
0.062338
0.102743
0.088739
0.125488
0.119851
0.123461
0.147467
0.031177
0.111229
0.211258
0.095886
0.336157
0.100000
0.000000
0.000000
0.000000
0.000000
0.000000
0.000000
0.000000
0.000000
0.000000
0.000000
0.000000
0.000000
0.000000
0.000000
0.000000
0.000000
0.000000
0.000000
0.000000
0.000000
0.000000
0.000000
0.000000
0.000000
0.000000
0.000000
0.000000
0.000000
0.000000
0.000000
0.000000
0.000000
0.000000
0.000000
0.000000
0.000000
0.000000
0.000000
0.000000
0.000000
0.000000
0.000000
0.000000
0.000000
0.000000
0.000000
0.000000
0.000000
0.000000
0.000000
0.000000
0.000000
0.000000
0.000000
0.000000
0.000000
0.000000
0.000000
0.000000
0.000000
0.000000
0.000000
0.000000
0.000000
0.000000
0.000000
0.000000
0.000000
0.000000
0.000000
0.000000
0.000000
0.000000
0.000000
0.000000
0.000000
0.000000
0.000000
0.000000
0.000000
0.000000
0.000000
0.000000
0.000000
0.000000
0.000000
0.000000
0.000000
0.000000
0.000000
0.000000
0.000000
0.000000
0.000000
0.000000
0.000000
0.000000
0.000000
0.000000
0.000000
0.000000
0.000000
0.000000
0.000000
0.000000
0.000000
0.000000
0.000000
0.000000
0.000000
0.000000
0.000000
</DataArray>
<DataArray NumberOfComponents='1' type='Float32' Name='pressure' format='ascii'>
0.000000
0.000000
0.000000
0.000000
0.000000
0.000000
0.000000
0.000000
0.000000
0.000000
0.000000
0.000000
0.000000
0.000000
0.000000
0.000000
0.000000
0.000000
0.000000
0.000000
0.000000
0.000000
0.000000
0.000000
0.000000
0.000000
0.000000
0.000000
0.000000
0.000000
0.000000
0.000000
0.000000
0.000000
0.000000
0.000000
0.000000
0.000000
0.000000
0.000000
0.000000
0.000000
0.000000
0.000000
0.000000
0.000000
0.000000
0.000000
0.000000
0.000000
0.000000
0.000000
0.000000
0.000000
0.000000
0.000000
0.000000
0.000000
6696.550293
6806.634766
7225.560547
6544.259766
6651.319824
6562.053223
6114.045898
5706.305664
5374.402344
5284.184570
4893.135254
4539.598145
4114.764160
3729.775391
3560.831543
3207.260986
2982.579590
2757.276855
2552.445801
2546.160400
2493.641602
2824.508789
2831.238281
2733.122803
1765.925415
0.000000
0.000000
0.000000
6600.420898
6628.575684
7592.292969
6522.162598
6466.920410
6023.151855
5966.565918
5831.077148
5296.481934
5086.762207
5034.060547
4612.617676
4346.848633
4086.706543
3888.402344
3525.183838
3222.415771
3099.059570
2667.430664
2858.786621
2337.755371
2753.588379
3121.564209
4003.875000
626.914673
0.000000
0.000000
0.000000
6087.730469
6078.926270
6880.949219
5800.354980
6327.650391
5570.944336
5412.295410
5058.041992
5042.934082
4694.139160
4459.597656
4321.574707
4088.526123
3904.281738
3743.291504
3529.442871
3466.045654
3173.779053
2939.048096
2763.501709
2568.606689
1977.604004
3147.857178
0.000000
1239.106079
0.000000
0.000000
0.000000
6634.498535
7144.077637
7469.233398
6575.685547
6521.566406
6079.677734
5941.622070
5730.120117
5446.161621
5047.166016
4982.559082
4574.532227
4366.206543
4056.230713
3801.963135
3531.949951
3166.619629
2988.054199
2722.479980
2842.506104
2137.022461
2955.428955
1995.808960
889.270569
1942.324951
0.000000
0.000000
0.000000
5947.710938
6322.210938
6606.539551
5995.877930
6116.038086
5682.261230
5432.057617
5184.336914
5063.849121
4766.952148
4598.616211
4350.579102
4228.129883
3953.193359
3811.833984
3658.230957
3387.726807
3402.905762
2959.781250
2694.564209
2648.605713
2247.354248
2155.316650
4227.603027
1852.517212
0.000000
0.000000
0.000000
6472.424316
7040.994629
7404.154297
6400.391602
6522.300781
6057.933594
5877.689941
5629.495605
5291.917969
5082.170898
4853.010254
4538.327148
4399.650879
3988.206299
3932.549072
3522.908447
3320.111572
2965.158691
2766.798828
2811.526123
1912.341431
2466.767334
1480.324341
1530.802002
1704.317993
0.000000
0.000000
0.000000
6240.056641
6710.336914
6482.375000
6263.472656
6047.048340
5714.498047
5486.932129
5256.749023
5084.877441
4894.533691
4588.739746
4408.321289
4217.852539
3917.373047
3753.994141
3465.600830
3323.542480
3270.739990
2629.999512
2941.268066
2308.401367
2052.152100
2048.971436
1735.859131
1704.851685
0.000000
0.000000
0.000000
6352.914551
6938.958008
7115.375977
6422.506836
6212.061035
6047.068359
5657.640625
5645.166016
5082.980957
5051.603027
4697.993652
4556.539551
4254.556152
4065.228760
3795.192139
3586.753662
3241.936768
3057.232422
2736.815674
2544.666016
2101.798584
2254.867920
1596.110596
1496.651611
1945.775146
0.000000
0.000000
0.000000
6350.605957
6917.328613
6523.070312
6359.016113
6105.987793
5800.224121
5635.379395
5348.946777
5147.396973
4993.778809
4569.571289
4494.176758
4087.496338
3914.290283
3663.660645
3421.272217
3196.385254
3119.880615
2624.307861
2809.470703
2157.328613
2070.391113
1926.061157
1297.980347
1662.544312
0.000000
0.000000
0.000000
6320.152832
6929.777344
6881.753418
6422.384766
6141.561035
5960.347656
5568.794922
5501.388184
5004.863281
4995.655273
4598.304199
4482.060059
4231.379395
4039.326660
3729.268311
3536.250488
3185.747559
2992.707275
2734.068848
2392.680908
2186.406494
1897.125732
1612.600830
1335.536377
1698.433716
0.000000
0.000000
0.000000
6338.271973
6997.884277
6578.854980
6410.369629
6084.232910
5933.790039
5613.757324
5467.720215
5122.809570
4977.049805
4609.456543
4463.531250
4016.069092
3915.036133
3537.973145
3465.538330
3080.336182
3107.530762
2493.944092
2666.566650
2102.103516
1916.112183
1851.139526
1141.106201
1523.295532
0.000000
0.000000
0.000000
6343.093262
6823.514648
6741.907715
6390.860840
6132.305176
5871.552246
5603.076172
5369.543457
5026.560059
4951.808594
4499.412598
4532.554688
4114.881348
4079.627686
3639.490479
3523.563477
3122.296631
2946.905518
2731.225342
2432.869141
2125.576172
1890.068726
1537.883911
1217.293457
1720.364746
0.000000
0.000000
0.000000
6335.360840
6997.066406
6624.763184
6338.709961
6107.616211
5909.937988
5554.467773
5456.104004
5035.269043
4987.450195
4555.606934
4405.432129
4013.490967
3826.716553
3543.540283
3365.675781
3073.752930
3011.728516
2482.395508
2438.978027
2148.665283
1774.551270
1948.123291
1067.261963
1274.538818
0.000000
0.000000
0.000000
6299.400391
6720.211426
6690.083008
6393.323730
6063.366211
5829.354004
5532.596680
5399.225098
5022.627930
4879.021973
4564.749023
4432.337402
4131.145020