<?xml version='1.0' encoding='UTF-8'?>
<VTKFile xmlns='VTK' byte_order='LittleEndian' version='0.1' type='UnstructuredGrid'>
<UnstructuredGrid>
<Piece NumberOfCells='1344' NumberOfPoints='1344'>
<Points>
<DataArray NumberOfComponents='3' type='Float32' Name='Position' format='ascii'>
-0.075000 -0.075000 0.000000
-0.075000 -0.050000 0.000000
-0.075000 -0.025000 0.000000
-0.075000 0.000000 0.000000
-0.075000 0.025000 0.000000
-0.075000 0.050000 0.000000
-0.075000 0.075000 0.000000
-0.075000 0.100000 0.000000
-0.075000 0.125000 0.000000
-0.075000 0.150000 0.000000
-0.075000 0.175000 0.000000
-0.075000 0.200000 0.000000
-0.075000 0.225000 0.000000
-0.075000 0.250000 0.000000
-0.075000 0.275000 0.000000
-0.075000 0.300000 0.000000
-0.075000 0.325000 0.000000
-0.075000 0.350000 0.000000
-0.075000 0.375000 0.000000
-0.075000 0.400000 0.000000
-0.075000 0.425000 0.000000
-0.075000 0.450000 0.000000
-0.075000 0.475000 0.000000
-0.075000 0.500000 0.000000
-0.075000 0.525000 0.000000
-0.075000 0.550000 0.000000
-0.075000 0.575000 0.000000
-0.075000 0.600000 0.000000
-0.050000 -0.075000 0.000000
-0.050000 -0.050000 0.000000
-0.050000 -0.025000 0.000000
-0.050000 0.000000 0.000000
-0.050000 0.025000 0.000000
-0.050000 0.050000 0.000000
-0.050000 0.075000 0.000000
-0.050000 0.100000 0.000000
-0.050000 0.125000 0.000000
-0.050000 0.150000 0.000000
-0.050000 0.175000 0.000000
-0.050000 0.200000 0.000000
-0.050000 0.225000 0.000000
-0.050000 0.250000 0.000000
-0.050000 0.275000 0.000000
-0.050000 0.300000 0.000000
-0.050000 0.325000 0.000000
-0.050000 0.350000 0.000000
-0.050000 0.375000 0.000000
-0.050000 0.400000 0.000000
-0.050000 0.425000 0.000000
-0.050000 0.450000 0.000000
-0.050000 0.475000 0.000000
-0.050000 0.500000 0.000000
-0.050000 0.525000 0.000000
-0.050000 0.550000 0.000000
-0.050000 0.575000 0.000000
-0.050000 0.600000 0.000000
-0.025000 -0.075000 0.000000
-0.025000 -0.050000 0.000000
-0.025000 -0.025000 0.000000
-0.025000 0.000000 0.000000
-0.025000 0.025000 0.000000
-0.025000 0.050000 0.000000
-0.025000 0.075000 0.000000
-0.025000 0.100000 0.000000
-0.025000 0.125000 0.000000
-0.025000 0.150000 0.000000
-0.025000 0.175000 0.000000
-0.025000 0.200000 0.000000
-0.025000 0.225000 0.000000
-0.025000 0.250000 0.000000
-0.025000 0.275000 0.000000
-0.025000 0.300000 0.000000
-0.025000 0.325000 0.000000
-0.025000 0.350000 0.000000
-0.025000 0.375000 0.000000
-0.025000 0.400000 0.000000
-0.025000 0.425000 0.000000
-0.025000 0.450000 0.000000
-0.025000 0.475000 0.000000
-0.025000 0.500000 0.000000
-0.025000 0.525000 0.000000
-0.025000 0.550000 0.000000
-0.025000 0.575000 0.000000
-0.025000 0.600000 0.000000
0.000000 -0.075000 0.000000
0.000000 -0.050000 0.000000
0.000000 -0.025000 0.000000
0.000000 0.000000 0.000000
0.000000 0.025000 0.000000
0.000000 0.050000 0.000000
0.000000 0.075000 0.000000
0.000000 0.100000 0.000000
0.000000 0.125000 0.000000
0.000000 0.150000 0.000000
0.000000 0.175000 0.000000
0.000000 0.200000 0.000000
0.000000 0.225000 0.000000
0.000000 0.250000 0.000000
0.000000 0.275000 0.000000
0.000000 0.300000 0.000000
0.000000 0.325000 0.000000
0.000000 0.350000 0.000000
0.000000 0.375000 0.000000
0.000000 0.400000 0.000000
0.000000 0.425000 0.000000
0.000000 0.450000 0.000000
0.000000 0.475000 0.000000
0.000000 0.500000 0.000000
0.000000 0.525000 0.000000
0.000000 0.550000 0.000000
0.000000 0.575000 0.000000
0.000000 0.600000 0.000000
0.025000 -0.075000 0.000000
0.025000 -0.050000 0.000000
0.025000 -0.025000 0.000000
0.025000 0.000000 0.000000
0.023924 0.026155 0.000000
0.033952 0.048777 0.000000
0.021224 0.066649 0.000000
0.022519 0.111449 0.000000
0.023535 0.139005 0.000000
0.024663 0.168931 0.000000
0.025554 0.194336 0.000000
0.024615 0.217717 0.000000
0.024357 0.244838 0.000000
0.025573 0.269863 0.000000
0.024806 0.294042 0.000000
0.025198 0.319416 0.000000
0.024659 0.343640 0.000000
0.024461 0.369554 0.000000
0.025174 0.394630 0.000000
0.024817 0.421335 0.000000
0.024100 0.447757 0.000000
0.025591 0.475018 0.000000
0.024367 0.506026 0.000000
0.024484 0.532450 0.000000
0.020797 0.562863 0.000000
0.027945 0.588030 0.000000
0.071551 0.585712 0.000000
0.073583 0.600000 0.000000
0.050000 -0.075000 0.000000
0.050000 -0.050000 0.000000
0.050000 -0.025000 0.000000
0.050000 0.000000 0.000000
0.048601 0.024093 0.000000
0.059247 0.055010 0.000000
0.048932 0.078387 0.000000
0.035070 0.094641 0.000000
0.049502 0.129701 0.000000
0.043421 0.152933 0.000000
0.049281 0.182176 0.000000
0.052032 0.206565 0.000000
0.047425 0.232343 0.000000
0.050143 0.257511 0.000000
0.049739 0.283205 0.000000
0.050661 0.308883 0.000000
0.049671 0.333733 0.000000
0.049790 0.359623 0.000000
0.048386 0.384236 0.000000
0.047683 0.411418 0.000000
0.046434 0.437867 0.000000
0.046799 0.467352 0.000000
0.042130 0.494616 0.000000
0.044476 0.529507 0.000000
0.056226 0.549410 0.000000
0.045166 0.593369 0.000000
0.098516 0.581132 0.000000
0.099556 0.600000 0.000000
0.075000 -0.075000 0.000000
0.075000 -0.050000 0.000000
0.075000 -0.025000 0.000000
0.075000 0.000000 0.000000
0.071460 0.027669 0.000000
0.081335 0.054342 0.000000
0.072877 0.081942 0.000000
0.060691 0.108521 0.000000
0.072568 0.130516 0.000000
0.068028 0.164792 0.000000
0.075089 0.186816 0.000000
0.074500 0.216339 0.000000
0.072170 0.240693 0.000000
0.075272 0.265570 0.000000
0.074509 0.290147 0.000000
0.075080 0.313955 0.000000
0.074148 0.338746 0.000000
0.074205 0.363126 0.000000
0.073116 0.387724 0.000000
0.072411 0.413236 0.000000
0.070342 0.437189 0.000000
0.069698 0.465369 0.000000
0.068031 0.492766 0.000000
0.069903 0.513313 0.000000
0.073926 0.537113 0.000000
0.044433 0.573798 0.000000
0.123402 0.581418 0.000000
0.123972 0.600000 0.000000
0.100000 -0.075000 0.000000
0.100000 -0.050000 0.000000
0.100000 -0.025000 0.000000
0.100000 0.000000 0.000000
0.093694 0.024025 0.000000
0.109595 0.051898 0.000000
0.098082 0.073263 0.000000
0.084815 0.102569 0.000000
0.099517 0.127299 0.000000
0.087989 0.149392 0.000000
0.099084 0.175032 0.000000
0.097355 0.199719 0.000000
0.098348 0.225821 0.000000
0.100299 0.249392 0.000000
0.100374 0.274093 0.000000
0.101368 0.298313 0.000000
0.102579 0.323026 0.000000
0.099200 0.346680 0.000000
0.101766 0.370679 0.000000
0.097613 0.394699 0.000000
0.097720 0.419686 0.000000
0.094513 0.443106 0.000000
0.091643 0.469833 0.000000
0.097081 0.493592 0.000000
0.096344 0.518894 0.000000
0.084680 0.557577 0.000000
0.148997 0.581827 0.000000
0.149030 0.600000 0.000000
0.125000 -0.075000 0.000000
0.125000 -0.050000 0.000000
0.125000 -0.025000 0.000000
0.125000 0.000000 0.000000
0.117406 0.027878 0.000000
0.132332 0.056975 0.000000
0.120245 0.081252 0.000000
0.110551 0.105666 0.000000
0.125453 0.129544 0.000000
0.114617 0.156277 0.000000
0.124669 0.178876 0.000000
0.123317 0.205920 0.000000
0.123411 0.230317 0.000000
0.126046 0.255739 0.000000
0.125384 0.281574 0.000000
0.126328 0.306565 0.000000
0.125886 0.332391 0.000000
0.125479 0.358806 0.000000
0.123347 0.385576 0.000000
0.123046 0.411857 0.000000
0.121782 0.437102 0.000000
0.116627 0.461630 0.000000
0.127046 0.481873 0.000000
0.117168 0.504406 0.000000
0.120157 0.534037 0.000000
0.105458 0.548814 0.000000
0.174003 0.581081 0.000000
0.174043 0.600000 0.000000
0.150000 -0.075000 0.000000
0.150000 -0.050000 0.000000
0.150000 -0.025000 0.000000
0.150000 0.000000 0.000000
0.139611 0.024803 0.000000
0.157591 0.052227 0.000000
0.147246 0.077292 0.000000
0.134559 0.105196 0.000000
0.153543 0.125774 0.000000
0.139113 0.150299 0.000000
0.149863 0.173863 0.000000
0.145506 0.197337 0.000000
0.148631 0.223409 0.000000
0.149582 0.247612 0.000000
0.150182 0.272909 0.000000
0.150779 0.297542 0.000000
0.151022 0.323509 0.000000
0.149528 0.348379 0.000000
0.149131 0.373058 0.000000
0.145009 0.400213 0.000000
0.150146 0.424352 0.000000
0.142121 0.449945 0.000000
0.151951 0.473607 0.000000
0.146962 0.500952 0.000000
0.143652 0.522949 0.000000
0.134025 0.553232 0.000000
0.199047 0.581639 0.000000
0.199002 0.600000 0.000000
0.175000 -0.075000 0.000000
0.175000 -0.050000 0.000000
0.175000 -0.025000 0.000000
0.175000 0.000000 0.000000
0.162528 0.026989 0.000000
0.181626 0.052674 0.000000
0.171427 0.076904 0.000000
0.160504 0.102300 0.000000
0.179106 0.125382 0.000000
0.165986 0.149145 0.000000
0.176280 0.172035 0.000000
0.173108 0.197484 0.000000
0.173641 0.221305 0.000000
0.175735 0.244937 0.000000
0.174639 0.271153 0.000000
0.175860 0.296397 0.000000
0.175229 0.321305 0.000000
0.173560 0.348967 0.000000
0.173363 0.373806 0.000000
0.169986 0.399856 0.000000
0.173590 0.426300 0.000000
0.168345 0.450147 0.000000
0.175641 0.478533 0.000000
0.169041 0.504106 0.000000
0.167916 0.533985 0.000000
0.155830 0.551981 0.000000
0.224055 0.581346 0.000000
0.223998 0.600000 0.000000
0.200000 -0.075000 0.000000
0.200000 -0.050000 0.000000
0.200000 -0.025000 0.000000
0.200000 0.000000 0.000000
0.186329 0.024503 0.000000
0.206481 0.051158 0.000000
0.197588 0.077651 0.000000
0.186147 0.101713 0.000000
0.205455 0.125619 0.000000
0.191824 0.152010 0.000000
0.202422 0.175146 0.000000
0.197080 0.200336 0.000000
0.199703 0.225400 0.000000
0.200002 0.251323 0.000000
0.199029 0.275905 0.000000
0.200096 0.302018 0.000000
0.198253 0.327550 0.000000
0.199302 0.352685 0.000000
0.196707 0.377506 0.000000
0.194638 0.403202 0.000000
0.197694 0.427822 0.000000
0.190344 0.457904 0.000000
0.202977 0.479596 0.000000
0.192173 0.504887 0.000000
0.195524 0.530867 0.000000
0.184626 0.552943 0.000000
0.248940 0.581562 0.000000
0.248951 0.600000 0.000000
0.225000 -0.075000 0.000000
0.225000 -0.050000 0.000000
0.225000 -0.025000 0.000000
0.225000 0.000000 0.000000
0.209825 0.026303 0.000000
0.231582 0.050566 0.000000
0.221677 0.073879 0.000000
0.211780 0.101204 0.000000
0.231146 0.122888 0.000000
0.217066 0.147413 0.000000
0.228141 0.171625 0.000000
0.221834 0.196649 0.000000
0.224901 0.221125 0.000000
0.224250 0.244536 0.000000
0.223941 0.271194 0.000000
0.224766 0.294965 0.000000
0.223307 0.321093 0.000000
0.222950 0.346642 0.000000
0.223003 0.371932 0.000000
[...]
<PointData>
<DataArray NumberOfComponents='1' type='Int32' Name='ParticleType' format='ascii'>
3
3
3
3
3
3
3
3
3
3
3
3
3
3
3
3
3
3
3
3
3
3
3
3
3
3
3
3
3
3
3
3
3
3
3
3
3
3
3
3
3
3
3
3
3
3
3
3
3
3
3
3
3
3
3
3
3
3
2
2
2
2
2
2
2
2
2
2
2
2
2
2
2
2
2
2
2
2
2
2
2
2
2
2
3
3
2
2
2
2
2
2
2
2
2
2
2
2
2
2
2
2
2
2
2
2
2
2
2
2
2
2
3
3
2
2
0
0
0
0
0
0
0
0
0
0
0
0
0
0
0
0
0
0
0
0
0
0
0
0
3
3
2
2
0
0
0
0
0
0
0
0
0
0
0
0
0
0
0
0
0
0
0
0
0
0
0
0
3
3
2
2
0
0
0
0
0
0
0
0
0
0
0
0
0
0
0
0
0
0
0
0
0
0
0
0
3
3
2
2
0
0
0
0
0
0
0
0
0
0
0
0
0
0
0
0
0
0
0
0
0
0
0
0
3
3
2
2
0
0
0
0
0
0
0
0
0
0
0
0
0
0
0
0
0
0
0
0
0
0
0
0
3
3
2
2
0
0
0
0
0
0
0
0
0
0
0
0
0
0
0
0
0
0
0
0
0
0
0
0
3
3
2
2
0
0
0
0
0
0
0
0
0
0
0
0
0
0
0
0
0
0
0
0
0
0
0
0
3
3
2
2
0
0
0
0
0
0
0
0
0
0
0
0
0
0
0
0
0
0
0
0
0
0
0
0
3
3
2
2
0
0
0
0
0
0
0
0
0
0
0
0
0
0
0
0
0
0
0
0
0
0
0
0
3
3
2
2
0
0
0
0
0
0
0
0
0
0
0
0
0
0
0
0
0
0
0
0
0
0
0
0
3
3
2
2
0
0
0
0
0
0
0
0
0
0
0
0
0
0
0
0
0
0
0
0
0
0
0
0
3
3
2
2
0
0
0
0
0
0
0
0
0
0
0
0
0
0
0
0
0
0
0
0
0
0
0
0
3
3
2
2
0
0
0
0
0
0
0
0
0
0
0
0
0
0
0
0
0
0
0
0
0
0
0
0
3
3
2
2
0
0
0
0
0
0
0
0
0
0
0
0
0
0
0
0
0
0
0
0
0
0
0
0
3
3
2
2
0
0
0
0
0
0
0
0
0
0
0
0
0
0
0
0
0
0
0
0
0
0
0
0
3
3
2
2
0
0
0
0
0
0
0
0
0
0
0
0
0
0
0
0
0
0
0
0
0
0
0
0
3
3
2
2
0
0
0
0
0
0
0
0
0
0
0
0
0
0
0
0
0
0
0
0
0
0
0
0
3
3
2
2
0
0
0
0
0
0
0
0
0
0
0
0
0
0
0
0
0
0
0
0
0
0
0
0
3
3
2
2
0
0
0
0
0
0
0
0
0
0
0
0
0
0
0
0
0
0
0
0
0
0
0
0
3
3
2
2
0
0
0
0
0
0
0
0
0
0
0
0
0
0
0
0
0
0
0
0
0
0
0
0
3
3
2
2
0
0
0
0
0
0
0
0
0
0
0
0
0
0
0
0
0
0
0
0
0
0
0
0
3
3
2
2
0
0
0
0
0
0
0
0
0
0
0
0
0
0
0
0
0
0
0
0
0
0
0
0
3
3
2
2
0
0
0
0
0
0
0
0
0
0
0
0
0
0
0
0
0
0
0
0
0
0
0
0
3
3
2
2
0
0
0
0
0
0
0
0
0
0
0
0
0
0
0
0
0
0
0
0
0
0
0
0
3
3
2
2
0
0
0
0
0
0
0
0
0
0
0
0
0
0
0
0
0
0
0
0
0
0
0
0
3
3
2
2
0
0
0
0
0
0
0
0
0
0
0
0
0
0
0
0
0
0
0
0
0
0
0
0
3
3
2
2
0
0
0
0
0
0
0
0
0
0
0
0
0
0
0
0
0
0
0
0
0
0
0
0
3
3
2
2
0
0
0
0
0
0
0
0
0
0
0
0
0
0
0
0
0
0
0
0
0
0
0
0
3
3
2
2
0
0
0
0
0
0
0
0
0
0
0
0
0
0
0
0
0
0
0
0
0
0
0
0
3
3
2
2
0
0
0
0
0
0
0
0
0
0
0
0
0
0
0
0
0
0
0
0
0
0
0
0
3
3
2
2
0
0
0
0
0
0
0
0
0
0
0
0
0
0
0
0
0
0
0
0
0
0
0
0
3
3
2
2
0
0
0
0
0
0
0
0
0
0
0
0
0
0
0
0
0
0
0
0
0
0
0
0
3
3
2
2
0
0
0
0
0
0
0
0
0
0
0
0
0
0
0
0
0
0
0
0
0
0
0
0
3
3
2
2
0
0
0
0
0
0
0
0
0
0
0
0
0
0
0
0
0
0
0
0
0
0
0
0
3
3
2
2
0
0
0
0
0
0
0
0
0
0
0
0
0
0
0
0
0
0
0
0
0
0
0
0
3
3
2
2
0
0
0
0
0
0
0
0
0
0
0
0
0
0
0
0
0
0
0
0
0
0
0
0
3
3
2
2
0
0
0
0
0
0
0
0
0
0
0
0
0
0
0
0
0
0
0
0
0
0
0
0
3
3
2
2
0
0
0
0
0
0
0
0
0
0
0
0
0
0
0
0
0
0
0
0
0
0
0
0
3
3
2
2
0
0
0
0
0
0
0
0
0
0
0
0
0
0
0
0
0
0
0
0
0
0
0
0
3
3
2
2
0
0
0
0
0
0
0
0
0
0
0
0
0
0
0
0
0
0
0
0
0
0
0
0
3
3
2
2
2
2
2
2
2
2
2
2
2
2
2
2
2
2
2
2
2
2
2
2
2
2
2
2
3
3
2
2
2
2
2
2
2
2
2
2
2
2
2
2
2
2
2
2
2
2
2
2
2
2
2
2
3
3
3
3
3
3
3
3
3
3
3
3
3
3
3
3
3
3
3
3
3
3
3
3
3
3
3
3
3
3
3
3
3
3
3
3
3
3
3
3
3
3
3
3
3
3
3
3
3
3
3
3
3
3
3
3
</DataArray>
<DataArray NumberOfComponents='1' type='Float32' Name='Velocity' format='ascii'>
0.000000
0.000000
0.000000
0.000000
0.000000
0.000000
0.000000
0.000000
0.000000
0.000000
0.000000
0.000000
0.000000
0.000000
0.000000
0.000000
0.000000
0.000000
0.000000
0.000000
0.000000
0.000000
0.000000
0.000000
0.000000
0.000000
0.000000
0.000000
0.000000
0.000000
0.000000
0.000000
0.000000
0.000000
0.000000
0.000000
0.000000
0.000000
0.000000
0.000000
0.000000
0.000000
0.000000
0.000000
0.000000
0.000000
0.000000
0.000000
0.000000
0.000000
0.000000
0.000000
0.000000
0.000000
0.000000
0.000000
0.000000
0.000000
0.000000
0.000000
0.000000
0.000000
0.000000
0.000000
0.000000
0.000000
0.000000
0.000000
0.000000
0.000000
0.000000
0.000000
0.000000
0.000000
0.000000
0.000000
0.000000
0.000000
0.000000
0.000000
0.000000
0.000000
0.000000
0.000000
0.000000
0.000000
0.000000
0.000000
0.000000
0.000000
0.000000
0.000000
0.000000
0.000000
0.000000
0.000000
0.000000
0.000000
0.000000
0.000000
0.000000
0.000000
0.000000
0.000000
0.000000
0.000000
0.000000
0.000000
0.000000
0.000000
0.000000
0.000000
0.000000
0.000000
0.000000
0.000000
0.024040
0.095121
0.037460
0.056840
0.054576
0.170113
0.052557
0.070567
0.024316
0.028453
0.028948
0.039377
0.004883
0.053390
0.029474
0.100853
0.142502
0.176425
0.320048
0.249991
0.039759
0.100000
0.100000
0.100000
0.000000
0.000000
0.000000
0.000000
0.018796
0.025964
0.025747
0.200495
0.097155
0.098447
0.070672
0.181945
0.108520
0.153973
0.113159
0.097263
0.098360
0.091497
0.073387
0.113087
0.102521
0.136672
0.245587
0.289853
0.503306
0.100000
0.100000
0.100000
0.000000
0.000000
0.000000
0.000000
0.029931
0.067341
0.031670
0.083799
0.175233
0.088305
0.059515
0.056995
0.125008
0.109573
0.143766
0.133541
0.138716
0.147264
0.099889
0.126443
0.102098
0.160102
0.071984
0.149750
0.233941
0.562403
0.100000
0.100000
0.000000
0.000000
0.000000
0.000000
0.031507
0.004822
0.018657
0.087372
0.059646
0.211284
0.093489
0.073870
0.024613
0.053628
0.012928
0.032475
0.007677
0.014981
0.039853
0.012625
0.057503
0.114842
0.135158
0.093854
0.279370
0.034237
0.100000
0.100000
0.000000
0.000000
0.000000
0.000000
0.054410
0.068919
0.044623
0.078152
0.100782
0.184543
0.054774
0.080375
0.070305
0.094055
0.113130
0.105382
0.143008
0.104779
0.180035
0.129110
0.147604
0.131245
0.024623
0.113608
0.177134
0.124497
0.100000
0.100000
0.000000
0.000000
0.000000
0.000000
0.031783
0.045749
0.044652
0.139525
0.038582
0.068440
0.043324
0.065306
0.031621
0.034917
0.053311
0.035619
0.043269
0.038089
0.029341
0.114488
0.080313
0.080740
0.066185
0.092685
0.187722
0.179205
0.100000
0.100000
0.000000
0.000000
0.000000
0.000000
0.061856
0.034868
0.036174
0.089865
0.054753
0.172565
0.067727
0.082290
0.042041
0.039350
0.037678
0.034592
0.043958
0.036670
0.068132
0.067911
0.099901
0.034590
0.097722
0.161658
0.089485
0.127349
0.100000
0.100000
0.000000
0.000000
0.000000
0.000000
0.026621
0.014599
0.025799
0.153155
0.026469
0.088916
0.029827
0.048472
0.027029
0.014081
0.052349
0.023573
0.052187
0.043281
0.034643
0.117203
0.029420
0.111835
0.102612
0.114388
0.212673
0.083356
0.100000
0.100000
0.000000
0.000000
0.000000
0.000000
0.040111
0.035313
0.068342
0.114009
0.035435
0.092632
0.055708
0.059493
0.041946
0.056775
0.076862
0.046648
0.057791
0.044062
0.030470
0.120705
0.056549
0.053498
0.032543
0.073053
0.111946
0.048719
0.100000
0.100000
0.000000
0.000000
0.000000
0.000000
0.052278
0.007873
0.035803
0.156641
0.036462
0.070619
0.061369
0.076707
0.047988
0.038416
0.029384
0.013208
0.054797
0.008338
0.037294
0.070504
0.050684
0.023206
0.108509
0.086538
0.167289
0.033918
0.100000
0.100000
0.000000
0.000000
0.000000
0.000000
0.017847
0.039103
0.088425
0.107282
0.038874
0.077258
0.050348
0.049482
0.001066
0.067571
0.014390
0.057257
0.004501
0.062077
0.008940
0.104439
0.024761
0.040047
0.028713
0.037249
0.093781
0.021382
0.100000
0.100000
0.000000
0.000000
0.000000
0.000000
0.077962
0.021471
0.028989
0.138014
0.029712
0.045778
0.065628
0.046021
0.063825
0.047505
0.021707
0.048319
0.031816
0.039456
0.016329
0.114238
0.031923
0.035437
0.040652
0.060380
0.085748
0.098439
0.100000
0.100000
0.000000
0.000000
0.000000
0.000000
0.021453
0.023078
0.094323
0.109525
0.071735
0.081269
0.099187
0.086802
0.054943
0.068634
0.008015
0.065309
0.016414
0.049936
0.036687
0.115285
0.036017
0.031012
0.047249
0.055901
0.134743
0.099450
0.100000
0.100000
0.000000
0.000000
0.000000
0.000000
0.066259
0.029988
0.033616
0.132402
0.017111
0.074978
0.064027
0.048507
0.069177
0.043212
0.041421
0.052159
0.006486
0.036232
0.040939
0.112824
0.028282
0.064214
0.088168
0.049717
0.105705
0.093371
0.100000
0.100000
0.000000
0.000000
0.000000
0.000000
0.030902
0.029396
0.097819
0.112843
0.064036
0.045357
0.064840
0.073803
0.061202
0.046590
0.014637
0.032717
0.008811
0.030123
0.043753
0.105097
0.041743
0.051072
0.078290
0.037937
0.156753
0.062603
0.100000
0.100000
0.000000
0.000000
0.000000
0.000000
0.060152
0.029018
0.028211
0.102848
0.025305
0.079752
0.079917
0.044437
0.052906
0.023474
0.039199
0.019174
0.010031
0.036329
0.044997
0.072137
0.033506
0.064988
0.107643
0.017821
0.162033
0.105638
0.100000
0.100000
0.000000
0.000000
0.000000
0.000000
0.050911
0.012177
0.079197
0.122634
0.064266
0.066018
0.056920
0.084688
0.074170
0.044990
0.016805
0.033981
0.034659
0.034191
0.031427
0.110538
0.044237
0.039303
0.094807
0.059488
0.194167
0.021859
0.100000
0.100000
0.000000
0.000000
0.000000
0.000000
0.052319
0.009498
0.033325
0.098696
0.004503
0.053233
0.049196
0.030351
0.045647
0.032489
0.044746
0.031712
0.009734
0.041187
0.043096
0.086840
0.106093
0.050385
0.163778
0.025659
0.172978
0.067509
0.100000
0.100000
0.000000
0.000000
0.000000
0.000000
0.046933
0.007171
0.053311
0.115850
0.081568
0.052227
0.087466
0.077852
0.059358
0.025526
0.033234
0.020185
0.015974
0.047353
0.026261
0.111913
0.077875
0.093382
0.091018
0.029973
0.162421
0.058688
0.100000
0.100000
0.000000
0.000000
0.000000
0.000000
0.047183
0.008166
0.042257
0.119250
0.027500
0.063917
0.058600
0.049926
0.065264
0.067657
0.078091
0.066251
0.050621
0.059644
0.066655
0.102190
0.128634
0.037105
0.192718
0.004011
0.153288
0.088820
0.100000
0.100000
0.000000
0.000000
0.000000
0.000000
0.037064
0.008455
0.051769
0.079598
0.070466
0.032417
0.079659
0.076112
0.052914
0.036091
0.056719
0.034219
0.022229
0.088214
0.040421
0.124602
0.077891
0.139907
0.067608
0.082277
0.077817
0.091022
0.100000
0.100000
0.000000
0.000000
0.000000
0.000000
0.037300
0.023374
0.045310
0.130020
0.034439
0.053803
0.102262
0.047868
0.055197
0.057003
0.031641
0.039371
0.010071
0.066802
0.047369
0.100296
0.063618
0.022990
0.150513
0.044603
0.104491
0.132879
0.100000
0.100000
0.000000
0.000000
0.000000
0.000000
0.026008
0.019161
0.049495
0.079559
0.072035
0.058946
0.072609
0.094437
0.073048
0.050249
0.055352
0.030522
0.010735
0.073772
0.011488
0.074768
0.116459
0.040799
0.180481
0.086516
0.128218
0.093010
0.100000
0.100000
0.000000
0.000000
0.000000
0.000000
0.023199
0.024356
0.082089
0.127086
0.071044
0.017315
0.133243
0.061935
0.057778
0.061365
0.030889
0.049509
0.028312
0.070155
0.038508
0.028166
0.154047
0.088453
0.117207
0.177256
0.203795
0.141672
0.100000
0.100000
0.000000
0.000000
0.000000
0.000000
0.024499
0.016568
0.082120
0.069193
0.063599
0.055973
0.077042
0.095956
0.093087
0.068944
0.033900
0.031649
0.065435
0.056638
0.051523
0.147062
0.066849
0.078534
0.120841
0.047606
0.166717
0.060394
0.100000
0.100000
0.000000
0.000000
0.000000
0.000000
0.027419
0.001997
0.077811
0.134416
0.105408
0.084014
0.120926
0.052471
0.049215
0.064536
0.019103
0.055096
0.019623
0.098175
0.049554
0.053994
0.079796
0.179554
0.024107
0.105200
0.143175
0.061256
0.100000
0.100000
0.000000
0.000000
0.000000
0.000000
0.026967
0.007927
0.081410
0.070541
0.064801
0.046066
0.064680
0.050279
0.064644
0.037737
0.044967
0.012497
0.112938
0.047605
0.098605
0.038290
0.143111
0.102450
0.015923
0.203344
0.236464
0.100360
0.100000
0.100000
0.000000
0.000000
0.000000
0.000000
0.014314
0.024220
0.042344
0.121818
0.121264
0.094495
0.071626
0.071887
0.057825
0.055132
0.003431
0.035152
0.080476
0.003787
0.132494
0.068173
0.137907
0.200060
0.064566
0.070617
0.125777
0.075005
0.100000
0.100000
0.000000
0.000000
0.000000
0.000000
0.031636
0.024882
0.070987
0.074797
0.062555
0.087596
0.055594
0.031168
0.046148
0.033093
0.030027
0.038781
0.064847
0.070277
0.055153
0.046750
0.271959
0.060762
0.044633
0.048848
0.216020
0.057030
0.100000
0.100000
0.000000
0.000000
0.000000
0.000000
0.014660
0.045795
0.050924
0.128015
0.157751
0.117376
0.076268
0.071096
0.038150
0.060183
0.012210
0.061349
0.050756
0.072848
0.107651
0.032598
0.113639
0.132601
0.071861
0.084710
0.250780
0.273244
0.100000
0.100000
0.000000
0.000000
0.000000
0.000000
0.037807
0.086574
0.047018
0.089550
0.083098
0.104517
0.040858
0.014382
0.021582
0.044361
0.063196
0.044628
0.074965
0.089092
0.054738
0.066183
0.131602
0.105570
0.081537
0.010912
0.029614
0.309639
0.100000
0.100000
0.000000
0.000000
0.000000
0.000000
0.031451
0.055430
0.098826
0.083927
0.141640
0.156691
0.050435
0.091360
0.041467
0.100813
0.005188
0.076457
0.032548
0.077472
0.089168
0.082680
0.107855
0.117125
0.120796
0.118569
0.113870
0.292722
0.100000
0.100000
0.000000
0.000000
0.000000
0.000000
0.063508
0.066852
0.043348
0.044899
0.069298
0.079516
0.075173
0.030620
0.042020
0.026005
0.050306
0.020412
0.093077
0.056149
0.048124
0.075541
0.178309
0.079346
0.057870
0.118398
0.192032
0.082728
0.100000
0.100000
0.000000
0.000000
0.000000
0.000000
0.104624
0.070197
0.076851
0.051709
0.021389
0.117039
0.031607
0.082647
0.049558
0.021756
0.050069
0.071173
0.065796
0.140189
0.005748
0.117150
0.066812
0.148176
0.068421
0.133166
0.117554
0.088279
0.100000
0.100000
0.000000
0.000000
0.000000
0.000000
0.121436
0.105546
0.137817
0.035795
0.148900
0.019800
0.108092
0.078301
0.059220
0.047352
0.099046
0.030221
0.131384
0.110805
0.024613
0.143451
0.174859
0.138813
0.108083
0.126625
0.105129
0.167906
0.100000
0.100000
0.000000
0.000000
0.000000
0.000000
0.081393
0.056725
0.141664
0.077812
0.091151
0.094656
0.065731
0.049977
0.038869
0.020968
0.093772
0.023927
0.063585
0.091005
0.052948
0.130955
0.091605
0.191221
0.073213
0.241878
0.279063
0.420932
0.100000
0.100000
0.000000
0.000000
0.000000
0.000000
0.127969
0.192349
0.124247
0.055681
0.101183
0.072220
0.074389
0.108568
0.098074
0.068293
0.067772
0.031992
0.073133
0.060313
0.159232
0.059140
0.066533
0.124204
0.286017
0.239168
0.295160
0.180734
0.168621
0.100000
0.000000
0.000000
0.000000
0.000000
0.027986
0.066034
0.167816
0.016988
0.070515
0.080863
0.058330
0.074978
0.082604
0.083664
0.077431
0.107405
0.073628
0.086025
0.083434
0.020868
0.140503
0.068865
0.047674
0.036505
0.185220
0.268129
0.185892
0.100000
0.000000
0.000000
0.000000
0.000000
0.065507
0.163250
0.142068
0.062887
0.057833
0.073240
0.110731
0.041847
0.114338
0.083180
0.087773
0.111769
0.018373
0.183053
0.070830
0.207745
0.107117
0.067494
0.086237
0.099946
0.025629
0.167539
0.092944
0.100000
0.000000
0.000000
0.000000
0.000000
0.036447
0.063565
0.070128
0.048529
0.060902
0.046678
0.058731
0.095493
0.037655
0.075942
0.037738
0.071420
0.107885
0.069754
0.132875
0.061863
0.056317
0.139188
0.122118
0.124742
0.141912
0.187045
0.063271
0.100000
0.000000
0.000000
0.000000
0.000000
0.000000
0.000000
0.000000
0.000000
0.000000
0.000000
0.000000
0.000000
0.000000
0.000000
0.000000
0.000000
0.000000
0.000000
0.000000
0.000000
0.000000
0.000000
0.000000
0.000000
0.000000
0.000000
0.000000
0.000000
0.000000
0.000000
0.000000
0.000000
0.000000
0.000000
0.000000
0.000000
0.000000
0.000000
0.000000
0.000000
0.000000
0.000000
0.000000
0.000000
0.000000
0.000000
0.000000
0.000000
0.000000
0.000000
0.000000
0.000000
0.000000
0.000000
0.000000
0.000000
0.000000
0.000000
0.000000
0.000000
0.000000
0.000000
0.000000
0.000000
0.000000
0.000000
0.000000
0.000000
0.000000
0.000000
0.000000
0.000000
0.000000
0.000000
0.000000
0.000000
0.000000
0.000000
0.000000
0.000000
0.000000
0.000000
0.000000
0.000000
0.000000
0.000000
0.000000
0.000000
0.000000
0.000000
0.000000
0.000000
0.000000
0.000000
0.000000
0.000000
0.000000
0.000000
0.000000
0.000000
0.000000
0.000000
0.000000
0.000000
0.000000
0.000000
0.000000
0.000000
0.000000
0.000000
0.000000
0.000000
</DataArray>
<DataArray NumberOfComponents='1' type='Float32' Name='pressure' format='ascii'>
0.000000
0.000000
0.000000
0.000000
0.000000
0.000000
0.000000
0.000000
0.000000
0.000000
0.000000
0.000000
0.000000
0.000000
0.000000
0.000000
0.000000
0.000000
0.000000
0.000000
0.000000
0.000000
0.000000
0.000000
0.000000
0.000000
0.000000
0.000000
0.000000
0.000000
0.000000
0.000000
0.000000
0.000000
0.000000
0.000000
0.000000
0.000000
0.000000
0.000000
0.000000
0.000000
0.000000
0.000000
0.000000
0.000000
0.000000
0.000000
0.000000
0.000000
0.000000
0.000000
0.000000
0.000000
0.000000
0.000000
0.000000
0.000000
10727.125977
10789.419922
11175.994141
11093.440430
11749.041992
10910.731445
11036.759766
9881.827148
9278.225586
8612.994141
8587.942383
8493.661133
7820.005859
7746.222168
7455.629883
7408.454102
7292.856445
6862.676758
6849.923828
6811.678223
5957.166504
5970.789062
5757.039551
5932.874512
3945.041992
0.000000
0.000000
0.000000
10675.352539
10681.957031
11000.666016
9770.068359
10500.724609
9331.487305
10440.866211
9621.847656
9280.531250
8605.373047
8907.116211
8586.811523
8081.326172
7707.350586
7774.259277
7551.261719
7324.925293
6685.944824
7210.964844
7013.000000
5476.735840
5515.877441
6128.284180
5830.380371
4632.555176
0.000000
0.000000
0.000000
10301.531250
10552.556641
10698.560547
10547.476562
10192.532227
9950.598633
9076.623047
9249.923828
9160.832031
8659.096680
8416.311523
8313.658203
8157.132812
7722.779297
7637.800781
7251.525879
7018.621094
6751.204590
6229.183105
6252.047363
5977.816895
5280.680664
7545.461426
0.000000
13200.740234
0.000000
0.000000
0.000000
10914.928711
11290.354492
10802.709961
10413.198242
10120.192383
9957.391602
9456.106445
9915.717773
8713.222656
8961.239258
8656.279297
8312.011719
8064.994629
7708.861816
7849.137695
7160.132812
7362.417480
6834.774414
6733.954590
6374.785156
5671.872559
5779.843750
4159.937500
0.000000
9569.745117
0.000000
0.000000
0.000000
9834.437500
10568.229492
10522.970703
10473.856445
9791.605469
9874.633789
9271.425781
9154.132812
9182.796875
8660.349609
8519.027344
8211.630859
8218.968750
7680.165039
7632.758301
7349.082031
7018.002930
6956.577148
6591.705566
6194.582520
5995.321289
6198.741699
7297.197754
11284.195312
10695.128906
0.000000
0.000000
0.000000
10661.575195
11025.990234
11013.299805
10200.459961
10250.176758
10017.286133
9614.676758
9381.908203
9192.299805
8895.750977
8708.442383
8472.833008
8221.283203
8058.309082
7764.770996
7624.447754
7453.966309
7226.382324
6822.128418
6668.069824
6356.677734
5971.613281
4874.301270
6019.442871
10478.629883
0.000000
0.000000
0.000000
9840.183594
10436.566406
10662.103516
10305.024414
10149.063477
9665.313477
9535.050781
9416.807617
8967.224609
8911.648438
8677.059570
8386.182617
7988.866211
8001.011719
7559.698730
7252.578125
7001.532227
6834.502930
6727.729004
6314.017090
6071.527832
5685.454102
6816.706543
4730.295410
10358.944336
0.000000
0.000000
0.000000
10134.416016
10788.344727
11015.990234
10234.928711
10086.729492
9992.954102
9743.988281
9460.940430
9180.456055
9061.655273
8509.911133
8486.148438
8354.145508
7968.559570
7791.440918
7720.125488
7334.371582
7337.734863
6496.438477
6614.545410
6142.216797
6163.733887
5223.559570
4101.233887
10202.487305
0.000000
0.000000
0.000000
10211.572266
10712.108398
10692.498047
10163.960938
10502.765625
9610.840820
9847.565430
9243.890625
9429.806641
9037.501953
8781.742188
8708.844727
8073.951660
8074.374023
7706.862305
7309.003418
7080.951660
6945.289062
6916.465332
6555.048828
6019.254395
5770.131836
6242.375488
5092.207031
10127.920898
0.000000
0.000000
0.000000
10194.468750
10824.445312
11016.628906
10362.566406
10070.163086
9839.639648
9481.205078
9482.763672
8663.851562
9069.543945
8283.694336
8472.427734
8307.209961
7907.871094
7833.306641
7715.371582
7361.023438
7026.185059
6527.471680
6386.369629
6153.912109
5966.315430
5596.748047
4102.796387
10385.136719
0.000000
0.000000
0.000000
10503.626953
10915.974609
10709.416016
10273.643555
10431.851562
9941.092773
9790.579102
9670.347656
9428.792969
9237.353516
8793.600586
8843.472656
8034.171387
8184.687500
7663.424805
7453.277832
6867.107910
7388.138672
6397.495605
6936.612793
5891.055176
6009.746094
5661.706055
5220.720215
10683.490234
0.000000
0.000000
0.000000
10354.854492
10765.761719
10927.546875
10331.957031
10147.323242
9827.263672
9554.197266
9259.810547
8868.849609
8942.668945
8338.936523
8568.375977
8173.356934
8126.894531
7702.518066
7843.815430
7294.845215
7126.034668
6787.498535
6427.209473
6264.816406
6137.018066
5562.260742
4877.871094
10643.899414
0.000000
0.000000
0.000000
10602.595703
10894.179688
10818.851562
10415.480469
10325.508789
10033.310547
9714.672852
9769.667969
9295.981445
9253.897461
8772.318359
8739.575195
8140.335449
8073.391602
7695.597168
7495.834473
6947.226562
7258.191895
6380.487793
6814.328613
6116.095703
5789.400879
6304.540039
5047.071289
10894.238281
0.000000
0.000000
0.000000
10478.200195
10930.079102
10761.761719
10342.720703
10241.792969
9855.324219
9653.262695