<?xml version='1.0' encoding='UTF-8'?>
<VTKFile xmlns='VTK' byte_order='LittleEndian' version='0.1' type='UnstructuredGrid'>
<UnstructuredGrid>
<Piece NumberOfCells='1344' NumberOfPoints='1344'>
<Points>
<DataArray NumberOfComponents='3' type='Float32' Name='Position' format='ascii'>
-0.075000 -0.075000 0.000000
-0.075000 -0.050000 0.000000
-0.075000 -0.025000 0.000000
-0.075000 0.000000 0.000000
-0.075000 0.025000 0.000000
-0.075000 0.050000 0.000000
-0.075000 0.075000 0.000000
-0.075000 0.100000 0.000000
-0.075000 0.125000 0.000000
-0.075000 0.150000 0.000000
-0.075000 0.175000 0.000000
-0.075000 0.200000 0.000000
-0.075000 0.225000 0.000000
-0.075000 0.250000 0.000000
-0.075000 0.275000 0.000000
-0.075000 0.300000 0.000000
-0.075000 0.325000 0.000000
-0.075000 0.350000 0.000000
-0.075000 0.375000 0.000000
-0.075000 0.400000 0.000000
-0.075000 0.425000 0.000000
-0.075000 0.450000 0.000000
-0.075000 0.475000 0.000000
-0.075000 0.500000 0.000000
-0.075000 0.525000 0.000000
-0.075000 0.550000 0.000000
-0.075000 0.575000 0.000000
-0.075000 0.600000 0.000000
-0.050000 -0.075000 0.000000
-0.050000 -0.050000 0.000000
-0.050000 -0.025000 0.000000
-0.050000 0.000000 0.000000
-0.050000 0.025000 0.000000
-0.050000 0.050000 0.000000
-0.050000 0.075000 0.000000
-0.050000 0.100000 0.000000
-0.050000 0.125000 0.000000
-0.050000 0.150000 0.000000
-0.050000 0.175000 0.000000
-0.050000 0.200000 0.000000
-0.050000 0.225000 0.000000
-0.050000 0.250000 0.000000
-0.050000 0.275000 0.000000
-0.050000 0.300000 0.000000
-0.050000 0.325000 0.000000
-0.050000 0.350000 0.000000
-0.050000 0.375000 0.000000
-0.050000 0.400000 0.000000
-0.050000 0.425000 0.000000
-0.050000 0.450000 0.000000
-0.050000 0.475000 0.000000
-0.050000 0.500000 0.000000
-0.050000 0.525000 0.000000
-0.050000 0.550000 0.000000
-0.050000 0.575000 0.000000
-0.050000 0.600000 0.000000
-0.025000 -0.075000 0.000000
-0.025000 -0.050000 0.000000
-0.025000 -0.025000 0.000000
-0.025000 0.000000 0.000000
-0.025000 0.025000 0.000000
-0.025000 0.050000 0.000000
-0.025000 0.075000 0.000000
-0.025000 0.100000 0.000000
-0.025000 0.125000 0.000000
-0.025000 0.150000 0.000000
-0.025000 0.175000 0.000000
-0.025000 0.200000 0.000000
-0.025000 0.225000 0.000000
-0.025000 0.250000 0.000000
-0.025000 0.275000 0.000000
-0.025000 0.300000 0.000000
-0.025000 0.325000 0.000000
-0.025000 0.350000 0.000000
-0.025000 0.375000 0.000000
-0.025000 0.400000 0.000000
-0.025000 0.425000 0.000000
-0.025000 0.450000 0.000000
-0.025000 0.475000 0.000000
-0.025000 0.500000 0.000000
-0.025000 0.525000 0.000000
-0.025000 0.550000 0.000000
-0.025000 0.575000 0.000000
-0.025000 0.600000 0.000000
0.000000 -0.075000 0.000000
0.000000 -0.050000 0.000000
0.000000 -0.025000 0.000000
0.000000 0.000000 0.000000
0.000000 0.025000 0.000000
0.000000 0.050000 0.000000
0.000000 0.075000 0.000000
0.000000 0.100000 0.000000
0.000000 0.125000 0.000000
0.000000 0.150000 0.000000
0.000000 0.175000 0.000000
0.000000 0.200000 0.000000
0.000000 0.225000 0.000000
0.000000 0.250000 0.000000
0.000000 0.275000 0.000000
0.000000 0.300000 0.000000
0.000000 0.325000 0.000000
0.000000 0.350000 0.000000
0.000000 0.375000 0.000000
0.000000 0.400000 0.000000
0.000000 0.425000 0.000000
0.000000 0.450000 0.000000
0.000000 0.475000 0.000000
0.000000 0.500000 0.000000
0.000000 0.525000 0.000000
0.000000 0.550000 0.000000
0.000000 0.575000 0.000000
0.000000 0.600000 0.000000
0.025000 -0.075000 0.000000
0.025000 -0.050000 0.000000
0.025000 -0.025000 0.000000
0.025000 0.000000 0.000000
0.035033 0.021607 0.000000
0.060125 0.031472 0.000000
0.022275 0.038688 0.000000
0.021127 0.115235 0.000000
0.045770 0.189806 0.000000
0.064219 0.266607 0.000000
0.023939 0.211545 0.000000
0.044459 0.245694 0.000000
0.022782 0.271638 0.000000
0.024361 0.302981 0.000000
0.024586 0.363420 0.000000
0.024635 0.416299 0.000000
0.025807 0.444161 0.000000
0.023441 0.468370 0.000000
0.022716 0.496698 0.000000
0.023196 0.529963 0.000000
0.026019 0.553386 0.000000
0.054801 0.558852 0.000000
0.078188 0.576685 0.000000
0.050845 0.581655 0.000000
0.036187 0.600000 0.000000
0.014077 0.600000 0.000000
0.136547 0.600000 0.000000
0.155976 0.600000 0.000000
0.050000 -0.075000 0.000000
0.050000 -0.050000 0.000000
0.050000 -0.025000 0.000000
0.050000 0.000000 0.000000
0.078211 0.025757 0.000000
0.065274 0.055389 0.000000
0.023357 0.074075 0.000000
0.037091 0.096486 0.000000
0.023562 0.149230 0.000000
0.022702 0.182390 0.000000
0.075904 0.246948 0.000000
0.043476 0.277855 0.000000
0.046228 0.300986 0.000000
0.043429 0.326944 0.000000
0.022216 0.335884 0.000000
0.023421 0.391793 0.000000
0.044293 0.428030 0.000000
0.049243 0.464282 0.000000
0.046566 0.488189 0.000000
0.042736 0.514439 0.000000
0.051996 0.535335 0.000000
0.080206 0.518782 0.000000
0.024640 0.577308 0.000000
0.076677 0.600000 0.000000
0.096232 0.600000 0.000000
0.057451 0.600000 0.000000
0.167342 0.578595 0.000000
0.176019 0.600000 0.000000
0.075000 -0.075000 0.000000
0.075000 -0.050000 0.000000
0.075000 -0.025000 0.000000
0.075000 0.000000 0.000000
0.107768 0.045961 0.000000
0.037857 0.060016 0.000000
0.055411 0.081129 0.000000
0.041090 0.132640 0.000000
0.067486 0.227362 0.000000
0.044713 0.218638 0.000000
0.101516 0.222621 0.000000
0.023918 0.241011 0.000000
0.081037 0.285847 0.000000
0.066867 0.316541 0.000000
0.076216 0.341145 0.000000
0.050112 0.351129 0.000000
0.044597 0.375351 0.000000
0.052837 0.403894 0.000000
0.061791 0.445764 0.000000
0.075550 0.473299 0.000000
0.107762 0.511289 0.000000
0.103145 0.535103 0.000000
0.075808 0.542693 0.000000
0.095199 0.559141 0.000000
0.109945 0.579338 0.000000
0.116137 0.600000 0.000000
0.195799 0.600000 0.000000
0.214914 0.600000 0.000000
0.100000 -0.075000 0.000000
0.100000 -0.050000 0.000000
0.100000 -0.025000 0.000000
0.100000 0.000000 0.000000
0.126897 0.053419 0.000000
0.063798 0.145533 0.000000
0.066415 0.173994 0.000000
0.053835 0.114813 0.000000
0.069924 0.200307 0.000000
0.043127 0.163899 0.000000
0.124281 0.261770 0.000000
0.110391 0.243582 0.000000
0.092145 0.265362 0.000000
0.087881 0.310857 0.000000
0.101055 0.340770 0.000000
0.073852 0.362517 0.000000
0.077311 0.411006 0.000000
0.096899 0.398000 0.000000
0.082804 0.435510 0.000000
0.094677 0.457049 0.000000
0.068081 0.500264 0.000000
0.092983 0.489451 0.000000
0.131149 0.531103 0.000000
0.161515 0.533240 0.000000
0.122428 0.554327 0.000000
0.138996 0.577116 0.000000
0.224075 0.578392 0.000000
0.234907 0.600000 0.000000
0.125000 -0.075000 0.000000
0.125000 -0.050000 0.000000
0.125000 -0.025000 0.000000
0.125000 0.000000 0.000000
0.099259 0.079853 0.000000
0.082545 0.065620 0.000000
0.082888 0.154021 0.000000
0.120443 0.208176 0.000000
0.091396 0.202191 0.000000
0.146689 0.213018 0.000000
0.132495 0.236464 0.000000
0.128100 0.283773 0.000000
0.104119 0.291936 0.000000
0.112481 0.317408 0.000000
0.098207 0.373971 0.000000
0.067879 0.387536 0.000000
0.125523 0.406824 0.000000
0.104906 0.423692 0.000000
0.135437 0.426826 0.000000
0.117242 0.445673 0.000000
0.111384 0.473769 0.000000
0.126627 0.496016 0.000000
0.145049 0.512505 0.000000
0.176952 0.555385 0.000000
0.195710 0.576785 0.000000
0.149039 0.554417 0.000000
0.252908 0.576095 0.000000
0.254755 0.600000 0.000000
0.150000 -0.075000 0.000000
0.150000 -0.050000 0.000000
0.150000 -0.025000 0.000000
0.150000 0.000000 0.000000
0.102390 0.025574 0.000000
0.120110 0.086397 0.000000
0.104174 0.107891 0.000000
0.075841 0.094129 0.000000
0.094740 0.177861 0.000000
0.117237 0.172822 0.000000
0.132939 0.188613 0.000000
0.156497 0.247495 0.000000
0.151480 0.267830 0.000000
0.135823 0.308225 0.000000
0.116092 0.357871 0.000000
0.123197 0.381698 0.000000
0.146786 0.382000 0.000000
0.153285 0.401620 0.000000
0.173882 0.413939 0.000000
0.160083 0.435273 0.000000
0.143369 0.453057 0.000000
0.139019 0.475859 0.000000
0.174415 0.511383 0.000000
0.201564 0.511496 0.000000
0.189464 0.533462 0.000000
0.206039 0.554083 0.000000
0.272963 0.600000 0.000000
0.291052 0.600000 0.000000
0.175000 -0.075000 0.000000
0.175000 -0.050000 0.000000
0.175000 -0.025000 0.000000
0.175000 0.000000 0.000000
0.130120 0.022920 0.000000
0.143875 0.067990 0.000000
0.134299 0.102738 0.000000
0.098548 0.131595 0.000000
0.127338 0.126428 0.000000
0.114581 0.150715 0.000000
0.153254 0.165760 0.000000
0.180555 0.144794 0.000000
0.161154 0.189908 0.000000
0.165613 0.220589 0.000000
0.171864 0.280423 0.000000
0.134187 0.332736 0.000000
0.142351 0.352387 0.000000
0.185684 0.390460 0.000000
0.197084 0.418364 0.000000
0.186150 0.442199 0.000000
0.193154 0.464580 0.000000
0.167127 0.462807 0.000000
0.160191 0.489432 0.000000
0.185215 0.487396 0.000000
0.227911 0.509649 0.000000
0.219000 0.533789 0.000000
0.308190 0.576386 0.000000
0.310923 0.600000 0.000000
0.200000 -0.075000 0.000000
0.200000 -0.050000 0.000000
0.200000 -0.025000 0.000000
0.200000 0.000000 0.000000
0.162047 0.021833 0.000000
0.148966 0.042440 0.000000
0.159825 0.083717 0.000000
0.079898 0.117470 0.000000
0.178869 0.122009 0.000000
0.141754 0.147832 0.000000
0.220129 0.120265 0.000000
0.245526 0.127657 0.000000
0.176719 0.170259 0.000000
0.182149 0.239181 0.000000
0.156489 0.298672 0.000000
0.182168 0.305940 0.000000
0.165179 0.326160 0.000000
0.165397 0.348867 0.000000
0.173889 0.372365 0.000000
0.207024 0.391616 0.000000
0.212540 0.442101 0.000000
0.211528 0.487307 0.000000
0.238400 0.486421 0.000000
0.256278 0.508710 0.000000
0.245938 0.531261 0.000000
0.235030 0.554959 0.000000
0.335898 0.576101 0.000000
0.330397 0.600000 0.000000
0.225000 -0.075000 0.000000
0.225000 -0.050000 0.000000
0.225000 -0.025000 0.000000
0.225000 0.000000 0.000000
0.195387 0.024271 0.000000
0.176355 0.042567 0.000000
0.165861 0.104192 0.000000
0.151975 0.125995 0.000000
0.218221 0.061350 0.000000
0.196622 0.081426 0.000000
0.252416 0.151462 0.000000
0.204172 0.138175 0.000000
0.200426 0.168473 0.000000
0.188643 0.193249 0.000000
0.192571 0.258682 0.000000
0.212490 0.302194 0.000000
0.189860 0.328709 0.000000
0.213194 0.344202 0.000000
0.191636 0.355293 0.000000
[...]
<PointData>
<DataArray NumberOfComponents='1' type='Int32' Name='ParticleType' format='ascii'>
3
3
3
3
3
3
3
3
3
3
3
3
3
3
3
3
3
3
3
3
3
3
3
3
3
3
3
3
3
3
3
3
3
3
3
3
3
3
3
3
3
3
3
3
3
3
3
3
3
3
3
3
3
3
3
3
3
3
2
2
2
2
2
2
2
2
2
2
2
2
2
2
2
2
2
2
2
2
2
2
2
2
2
2
3
3
2
2
2
2
2
2
2
2
2
2
2
2
2
2
2
2
2
2
2
2
2
2
2
2
2
2
3
3
2
2
0
0
0
0
0
0
0
0
0
0
0
0
0
0
0
0
0
0
0
0
0
0
0
0
3
3
2
2
0
0
0
0
0
0
0
0
0
0
0
0
0
0
0
0
0
0
0
0
0
0
0
0
3
3
2
2
0
0
0
0
0
0
0
0
0
0
0
0
0
0
0
0
0
0
0
0
0
0
0
0
3
3
2
2
0
0
0
0
0
0
0
0
0
0
0
0
0
0
0
0
0
0
0
0
0
0
0
0
3
3
2
2
0
0
0
0
0
0
0
0
0
0
0
0
0
0
0
0
0
0
0
0
0
0
0
0
3
3
2
2
0
0
0
0
0
0
0
0
0
0
0
0
0
0
0
0
0
0
0
0
0
0
0
0
3
3
2
2
0
0
0
0
0
0
0
0
0
0
0
0
0
0
0
0
0
0
0
0
0
0
0
0
3
3
2
2
0
0
0
0
0
0
0
0
0
0
0
0
0
0
0
0
0
0
0
0
0
0
0
0
3
3
2
2
0
0
0
0
0
0
0
0
0
0
0
0
0
0
0
0
0
0
0
0
0
0
0
0
3
3
2
2
0
0
0
0
0
0
0
0
0
0
0
0
0
0
0
0
0
0
0
0
0
0
0
0
3
3
2
2
0
0
0
0
0
0
0
0
0
0
0
0
0
0
0
0
0
0
0
0
0
0
0
0
3
3
2
2
0
0
0
0
0
0
0
0
0
0
0
0
0
0
0
0
0
0
0
0
0
0
0
0
3
3
2
2
0
0
0
0
0
0
0
0
0
0
0
0
0
0
0
0
0
0
0
0
0
0
0
0
3
3
2
2
0
0
0
0
0
0
0
0
0
0
0
0
0
0
0
0
0
0
0
0
0
0
0
0
3
3
2
2
0
0
0
0
0
0
0
0
0
0
0
0
0
0
0
0
0
0
0
0
0
0
0
0
3
3
2
2
0
0
0
0
0
0
0
0
0
0
0
0
0
0
0
0
0
0
0
0
0
0
0
0
3
3
2
2
0
0
0
0
0
0
0
0
0
0
0
0
0
0
0
0
0
0
0
0
0
0
0
0
3
3
2
2
0
0
0
0
0
0
0
0
0
0
0
0
0
0
0
0
0
0
0
0
0
0
0
0
3
3
2
2
0
0
0
0
0
0
0
0
0
0
0
0
0
0
0
0
0
0
0
0
0
0
0
0
3
3
2
2
0
0
0
0
0
0
0
0
0
0
0
0
0
0
0
0
0
0
0
0
0
0
0
0
3
3
2
2
0
0
0
0
0
0
0
0
0
0
0
0
0
0
0
0
0
0
0
0
0
0
0
0
3
3
2
2
0
0
0
0
0
0
0
0
0
0
0
0
0
0
0
0
0
0
0
0
0
0
0
0
3
3
2
2
0
0
0
0
0
0
0
0
0
0
0
0
0
0
0
0
0
0
0
0
0
0
0
0
3
3
2
2
0
0
0
0
0
0
0
0
0
0
0
0
0
0
0
0
0
0
0
0
0
0
0
0
3
3
2
2
0
0
0
0
0
0
0
0
0
0
0
0
0
0
0
0
0
0
0
0
0
0
0
0
3
3
2
2
0
0
0
0
0
0
0
0
0
0
0
0
0
0
0
0
0
0
0
0
0
0
0
0
3
3
2
2
0
0
0
0
0
0
0
0
0
0
0
0
0
0
0
0
0
0
0
0
0
0
0
0
3
3
2
2
0
0
0
0
0
0
0
0
0
0
0
0
0
0
0
0
0
0
0
0
0
0
0
0
3
3
2
2
0
0
0
0
0
0
0
0
0
0
0
0
0
0
0
0
0
0
0
0
0
0
0
0
3
3
2
2
0
0
0
0
0
0
0
0
0
0
0
0
0
0
0
0
0
0
0
0
0
0
0
0
3
3
2
2
0
0
0
0
0
0
0
0
0
0
0
0
0
0
0
0
0
0
0
0
0
0
0
0
3
3
2
2
0
0
0
0
0
0
0
0
0
0
0
0
0
0
0
0
0
0
0
0
0
0
0
0
3
3
2
2
0
0
0
0
0
0
0
0
0
0
0
0
0
0
0
0
0
0
0
0
0
0
0
0
3
3
2
2
0
0
0
0
0
0
0
0
0
0
0
0
0
0
0
0
0
0
0
0
0
0
0
0
3
3
2
2
0
0
0
0
0
0
0
0
0
0
0
0
0
0
0
0
0
0
0
0
0
0
0
0
3
3
2
2
0
0
0
0
0
0
0
0
0
0
0
0
0
0
0
0
0
0
0
0
0
0
0
0
3
3
2
2
0
0
0
0
0
0
0
0
0
0
0
0
0
0
0
0
0
0
0
0
0
0
0
0
3
3
2
2
0
0
0
0
0
0
0
0
0
0
0
0
0
0
0
0
0
0
0
0
0
0
0
0
3
3
2
2
0
0
0
0
0
0
0
0
0
0
0
0
0
0
0
0
0
0
0
0
0
0
0
0
3
3
2
2
0
0
0
0
0
0
0
0
0
0
0
0
0
0
0
0
0
0
0
0
0
0
0
0
3
3
2
2
2
2
2
2
2
2
2
2
2
2
2
2
2
2
2
2
2
2
2
2
2
2
2
2
3
3
2
2
2
2
2
2
2
2
2
2
2
2
2
2
2
2
2
2
2
2
2
2
2
2
2
2
3
3
3
3
3
3
3
3
3
3
3
3
3
3
3
3
3
3
3
3
3
3
3
3
3
3
3
3
3
3
3
3
3
3
3
3
3
3
3
3
3
3
3
3
3
3
3
3
3
3
3
3
3
3
3
3
</DataArray>
<DataArray NumberOfComponents='1' type='Float32' Name='Velocity' format='ascii'>
0.000000
0.000000
0.000000
0.000000
0.000000
0.000000
0.000000
0.000000
0.000000
0.000000
0.000000
0.000000
0.000000
0.000000
0.000000
0.000000
0.000000
0.000000
0.000000
0.000000
0.000000
0.000000
0.000000
0.000000
0.000000
0.000000
0.000000
0.000000
0.000000
0.000000
0.000000
0.000000
0.000000
0.000000
0.000000
0.000000
0.000000
0.000000
0.000000
0.000000
0.000000
0.000000
0.000000
0.000000
0.000000
0.000000
0.000000
0.000000
0.000000
0.000000
0.000000
0.000000
0.000000
0.000000
0.000000
0.000000
0.000000
0.000000
0.000000
0.000000
0.000000
0.000000
0.000000
0.000000
0.000000
0.000000
0.000000
0.000000
0.000000
0.000000
0.000000
0.000000
0.000000
0.000000
0.000000
0.000000
0.000000
0.000000
0.000000
0.000000
0.000000
0.000000
0.000000
0.000000
0.000000
0.000000
0.000000
0.000000
0.000000
0.000000
0.000000
0.000000
0.000000
0.000000
0.000000
0.000000
0.000000
0.000000
0.000000
0.000000
0.000000
0.000000
0.000000
0.000000
0.000000
0.000000
0.000000
0.000000
0.000000
0.000000
0.000000
0.000000
0.000000
0.000000
0.000000
0.000000
0.075904
0.095583
0.076753
0.124394
0.259391
0.224672
0.143321
0.091380
0.210309
0.124031
0.400941
0.282417
0.237603
0.164363
0.224744
0.497449
0.343164
0.415382
0.100000
0.100000
0.100000
0.100000
0.100000
0.100000
0.000000
0.000000
0.000000
0.000000
0.080008
0.143762
0.058895
0.131415
0.131211
0.132590
0.133901
0.023034
0.210334
0.240085
0.058199
0.385943
0.320485
0.316195
0.341673
0.422185
0.190359
0.117066
0.100000
0.100000
0.100000
0.100000
0.100000
0.100000
0.000000
0.000000
0.000000
0.000000
0.103725
0.172885
0.130568
0.198612
0.193984
0.190872
0.231719
0.108558
0.371548
0.369675
0.199995
0.259891
0.172429
0.328341
0.253197
0.403316
0.190132
0.033479
0.211472
0.398348
0.100000
0.100000
0.100000
0.100000
0.000000
0.000000
0.000000
0.000000
0.136153
0.081195
0.097119
0.088903
0.322451
0.120643
0.546351
0.287755
0.371798
0.208071
0.377464
0.387580
0.357631
0.354509
0.388206
0.405137
0.370557
0.168494
0.278769
0.243841
0.364284
0.100000
0.100000
0.100000
0.000000
0.000000
0.000000
0.000000
0.132727
0.127351
0.109902
0.237985
0.166749
0.026714
0.194879
0.392488
0.444330
0.417528
0.239651
0.416700
0.282146
0.267603
0.226412
0.242682
0.123654
0.027417
0.357355
0.249272
0.100000
0.299239
0.100000
0.100000
0.000000
0.000000
0.000000
0.000000
0.217626
0.167171
0.101169
0.146253
0.126440
0.160246
0.036187
0.187367
0.197227
0.312629
0.600897
0.388294
0.136608
0.300611
0.273188
0.208349
0.186539
0.356563
0.093790
0.086045
0.171400
0.153031
0.100000
0.100000
0.000000
0.000000
0.000000
0.000000
0.190674
0.107524
0.055702
0.049974
0.087089
0.375534
0.296406
0.081130
0.187279
0.043653
0.122591
0.481266
0.070775
0.090242
0.102160
0.247069
0.156926
0.302413
0.175575
0.214127
0.143355
0.159573
0.100000
0.100000
0.000000
0.000000
0.000000
0.000000
0.112549
0.033559
0.137110
0.227420
0.076995
0.071903
0.167640
0.119552
0.211023
0.156295
0.425534
0.304613
0.071316
0.300704
0.283859
0.008572
0.153009
0.048316
0.074837
0.177996
0.242270
0.225052
0.100000
0.100000
0.000000
0.000000
0.000000
0.000000
0.101140
0.172057
0.125154
0.368980
0.069414
0.153441
0.136233
0.320647
0.278995
0.029803
0.125024
0.289365
0.072363
0.363971
0.316393
0.108549
0.248172
0.138239
0.175736
0.258760
0.192184
0.243759
0.100000
0.100000
0.000000
0.000000
0.000000
0.000000
0.052974
0.154298
0.314159
0.140781
0.125381
0.246830
0.051090
0.144902
0.200566
0.091022
0.063291
0.186163
0.171657
0.131031
0.128728
0.214130
0.176400
0.158418
0.289775
0.436417
0.192587
0.114718
0.100000
0.100000
0.000000
0.000000
0.000000
0.000000
0.137975
0.150665
0.032010
0.096475
0.156929
0.141564
0.035174
0.097130
0.192269
0.046774
0.181741
0.146194
0.022289
0.197591
0.309106
0.247657
0.209519
0.168690
0.126210
0.106025
0.070670
0.100000
0.100000
0.100000
0.000000
0.000000
0.000000
0.000000
0.128838
0.156573
0.100784
0.072108
0.132270
0.085782
0.089120
0.187514
0.160904
0.254336
0.189836
0.209462
0.238994
0.226563
0.195839
0.248984
0.175467
0.047192
0.098171
0.393253
0.078911
0.078916
0.100000
0.100000
0.000000
0.000000
0.000000
0.000000
0.111679
0.191244
0.124748
0.149802
0.157513
0.087742
0.249212
0.331632
0.150583
0.072724
0.053871
0.150698
0.245312
0.092601
0.110630
0.160183
0.284357
0.199828
0.134004
0.510626
0.286058
0.113167
0.100000
0.100000
0.000000
0.000000
0.000000
0.000000
0.131009
0.292303
0.306122
0.061483
0.220435
0.231424
0.041707
0.151746
0.192098
0.302184
0.242042
0.096480
0.273132
0.261369
0.238765
0.291144
0.214293
0.084352
0.138701
0.475097
0.307223
0.100000
0.100000
0.100000
0.000000
0.000000
0.000000
0.000000
0.066136
0.117972
0.119752
0.068572
0.088258
0.259817
0.212035
0.129311
0.174433
0.313325
0.116517
0.164065
0.112759
0.231193
0.152148
0.065798
0.279812
0.149733
0.187718
0.214500
0.266088
0.167674
0.100000
0.100000
0.000000
0.000000
0.000000
0.000000
0.058643
0.141258
0.117277
0.193993
0.110337
0.113319
0.101873
0.114280
0.229785
0.184935
0.198328
0.094991
0.128111
0.067673
0.210299
0.097699
0.116604
0.188793
0.198586
0.030266
0.363611
0.218421
0.100000
0.100000
0.000000
0.000000
0.000000
0.000000
0.120652
0.157246
0.087137
0.089598
0.086556
0.192823
0.091477
0.273037
0.273879
0.058622
0.200724
0.213911
0.147184
0.020625
0.188461
0.096556
0.073708
0.094529
0.190218
0.139517
0.200157
0.100000
0.100000
0.100000
0.000000
0.000000
0.000000
0.000000
0.033700
0.115492
0.216348
0.281395
0.171716
0.158328
0.274141
0.192143
0.037440
0.199734
0.099050
0.132271
0.231474
0.095119
0.180551
0.046648
0.132709
0.145169
0.192725
0.050429
0.227804
0.452331
0.144916
0.100000
0.000000
0.000000
0.000000
0.000000
0.040228
0.110536
0.068824
0.080249
0.191248
0.272906
0.180944
0.158666
0.029494
0.228376
0.012729
0.066720
0.127440
0.190107
0.041353
0.332214
0.109158
0.097472
0.275933
0.299235
0.194616
0.333547
0.100000
0.100000
0.000000
0.000000
0.000000
0.000000
0.009831
0.161604
0.019324
0.110758
0.245658
0.299437
0.220693
0.266739
0.077756
0.114445
0.065076
0.149456
0.237544
0.134416
0.091310
0.106279
0.229913
0.251088
0.148507
0.190749
0.263259
0.100000
0.100000
0.100000
0.000000
0.000000
0.000000
0.000000
0.039184
0.191798
0.193280
0.125425
0.218910
0.099272
0.152942
0.241386
0.058353
0.292652
0.041165
0.174937
0.099780
0.164395
0.076648
0.244788
0.261384
0.176552
0.092733
0.134715
0.162299
0.110080
0.245872
0.100000
0.000000
0.000000
0.000000
0.000000
0.092889
0.097652
0.116623
0.210963
0.136331
0.090562
0.037008
0.072427
0.054888
0.059586
0.238758
0.106774
0.127503
0.141545
0.056965
0.181883
0.153427
0.118854
0.101401
0.061855
0.181900
0.217584
0.222729
0.100000
0.000000
0.000000
0.000000
0.000000
0.087217
0.134662
0.088044
0.293318
0.094672
0.166792
0.172391
0.209080
0.156574
0.144734
0.071695
0.036357
0.113133
0.096692
0.095977
0.096960
0.300824
0.319508
0.233217
0.246089
0.378054
0.218506
0.242624
0.100000
0.000000
0.000000
0.000000
0.000000
0.080455
0.094961
0.156956
0.134234
0.118977
0.166314
0.047438
0.139873
0.147422
0.197285
0.113359
0.129935
0.045786
0.097775
0.158944
0.265388
0.227476
0.314039
0.119740
0.204963
0.158872
0.112291
0.628085
0.100000
0.000000
0.000000
0.000000
0.000000
0.122785
0.056319
0.035874
0.125261
0.053452
0.146182
0.089621
0.115500
0.051026
0.087120
0.037134
0.096666
0.119168
0.087191
0.009669
0.127862
0.048032
0.327918
0.320001
0.363752
0.090501
0.052921
0.900749
0.100000
0.000000
0.000000
0.000000
0.000000
0.089644
0.044793
0.089215
0.177065
0.146878
0.074395
0.079693
0.075043
0.054676
0.138405
0.047015
0.113904
0.128380
0.152868
0.116807
0.118470
0.047055
0.271890
0.109325
0.192587
0.271034
0.236958
0.100000
0.100000
0.000000
0.000000
0.000000
0.000000
0.158876
0.122512
0.240981
0.157949
0.069058
0.087612
0.156730
0.123445
0.162804
0.171710
0.020379
0.022532
0.079078
0.143998
0.053935
0.118342
0.343012
0.049924
0.257953
0.201025
0.209635
0.216143
0.398683
0.100000
0.000000
0.000000
0.000000
0.000000
0.053113
0.233286
0.177808
0.150933
0.138042
0.157610
0.099255
0.097343
0.063765
0.129031
0.063496
0.060514
0.070061
0.084842
0.180659
0.150915
0.125896
0.080154
0.184235
0.234798
0.373163
0.319553
0.253096
0.100000
0.000000
0.000000
0.000000
0.000000
0.137350
0.122379
0.125775
0.100228
0.156498
0.243745
0.107061
0.127316
0.068347
0.201233
0.163533
0.090843
0.247689
0.187646
0.077074
0.141919
0.075461
0.319882
0.090206
0.188158
0.349446
0.203785
0.100000
0.100000
0.000000
0.000000
0.000000
0.000000
0.120730
0.133832
0.132488
0.097659
0.161873
0.067839
0.293945
0.072544
0.128124
0.218875
0.092642
0.058204
0.137248
0.323145
0.214663
0.063462
0.119585
0.221498
0.233569
0.194684
0.337065
0.172331
0.464638
0.100000
0.000000
0.000000
0.000000
0.000000
0.099813
0.051995
0.214831
0.125489
0.044465
0.241855
0.059070
0.073233
0.143532
0.169163
0.160932
0.233938
0.092721
0.266824
0.158023
0.155331
0.089022
0.110873
0.044424
0.050892
0.239288
0.572755
0.202418
0.100000
0.000000
0.000000
0.000000
0.000000
0.043718
0.079952
0.141622
0.053358
0.323438
0.119944
0.208112
0.363667
0.065865
0.159423
0.195565
0.293383
0.220008
0.341909
0.180288
0.249517
0.088869
0.310440
0.327770
0.178386
0.358877
0.078049
0.304818
0.100000
0.000000
0.000000
0.000000
0.000000
0.191840
0.074101
0.316624
0.173207
0.098739
0.195424
0.280951
0.132039
0.146318
0.116024
0.120073
0.308354
0.137714
0.274551
0.028373
0.325792
0.222007
0.049269
0.397738
0.193297
0.396558
0.198283
0.194328
0.100000
0.000000
0.000000
0.000000
0.000000
0.043769
0.139630
0.198099
0.018309
0.092905
0.004944
0.060152
0.126412
0.141725
0.144707
0.065341
0.313540
0.031161
0.081640
0.058819
0.213129
0.200543
0.191009
0.189957
0.049665
0.358258
0.416631
0.239828
0.100000
0.000000
0.000000
0.000000
0.000000
0.088875
0.084012
0.224718
0.108039
0.097552
0.285347
0.110825
0.227843
0.194508
0.126762
0.085922
0.155759
0.094235
0.036118
0.115660
0.319487
0.051340
0.230781
0.069606
0.130920
0.265781
0.580105
0.165057
0.100000
0.000000
0.000000
0.000000
0.000000
0.090898
0.127974
0.262606
0.140279
0.151136
0.140921
0.239353
0.224684
0.042681
0.123930
0.175197
0.164865
0.183909
0.140345
0.079934
0.138398
0.070938
0.201213
0.369681
0.082308
0.113552
0.408215
0.167351
0.100000
0.000000
0.000000
0.000000
0.000000
0.118529
0.144575
0.127813
0.228234
0.137739
0.225502
0.207497
0.190625
0.064684
0.191855
0.023750
0.244401
0.144485
0.079728
0.211772
0.154416
0.196789
0.140956
0.149351
0.438937
0.293635
0.107926
0.326056
0.100000
0.000000
0.000000
0.000000
0.000000
0.129736
0.124432
0.347537
0.143183
0.226443
0.103295
0.044699
0.085746
0.107052
0.061542
0.028419
0.077315
0.059066
0.121836
0.316857
0.108335
0.141753
0.279085
0.165618
0.171138
0.296414
0.202470
0.647097
0.100000
0.000000
0.000000
0.000000
0.000000
0.029499
0.116657
0.079465
0.275776
0.069173
0.119296
0.205271
0.129637
0.276447
0.128011
0.123551
0.070538
0.056161
0.078033
0.324664
0.142377
0.174175
0.224896
0.165907
0.508274
0.155357
0.581985
0.166288
0.100000
0.000000
0.000000
0.000000
0.000000
0.084653
0.138098
0.110043
0.120149
0.106824
0.180772
0.130230
0.176485
0.134605
0.020800
0.042475
0.114767
0.076910
0.076417
0.129893
0.309180
0.022037
0.318055
0.127034
0.029742
0.144158
0.472166
0.550237
0.100000
0.000000
0.000000
0.000000
0.000000
0.000000
0.000000
0.000000
0.000000
0.000000
0.000000
0.000000
0.000000
0.000000
0.000000
0.000000
0.000000
0.000000
0.000000
0.000000
0.000000
0.000000
0.000000
0.000000
0.000000
0.000000
0.000000
0.000000
0.000000
0.000000
0.000000
0.000000
0.000000
0.000000
0.000000
0.000000
0.000000
0.000000
0.000000
0.000000
0.000000
0.000000
0.000000
0.000000
0.000000
0.000000
0.000000
0.000000
0.000000
0.000000
0.000000
0.000000
0.000000
0.000000
0.000000
0.000000
0.000000
0.000000
0.000000
0.000000
0.000000
0.000000
0.000000
0.000000
0.000000
0.000000
0.000000
0.000000
0.000000
0.000000
0.000000
0.000000
0.000000
0.000000
0.000000
0.000000
0.000000
0.000000
0.000000
0.000000
0.000000
0.000000
0.000000
0.000000
0.000000
0.000000
0.000000
0.000000
0.000000
0.000000
0.000000
0.000000
0.000000
0.000000
0.000000
0.000000
0.000000
0.000000
0.000000
0.000000
0.000000
0.000000
0.000000
0.000000
0.000000
0.000000
0.000000
0.000000
0.000000
0.000000
0.000000
0.000000
0.000000
</DataArray>
<DataArray NumberOfComponents='1' type='Float32' Name='pressure' format='ascii'>
0.000000
0.000000
0.000000
0.000000
0.000000
0.000000
0.000000
0.000000
0.000000
0.000000
0.000000
0.000000
0.000000
0.000000
0.000000
0.000000
0.000000
0.000000
0.000000
0.000000
0.000000
0.000000
0.000000
0.000000
0.000000
0.000000
0.000000
0.000000
0.000000
0.000000
0.000000
0.000000
0.000000
0.000000
0.000000
0.000000
0.000000
0.000000
0.000000
0.000000
0.000000
0.000000
0.000000
0.000000
0.000000
0.000000
0.000000
0.000000
0.000000
0.000000
0.000000
0.000000
0.000000
0.000000
0.000000
0.000000
0.000000
0.000000
74382.921875
74309.335938
74541.781250
74799.890625
74765.851562
74504.398438
74966.664062
74173.687500
73517.359375
72234.937500
70745.093750
69790.140625
69505.460938
68073.570312
67600.679688
66893.062500
65546.226562
64588.132812
62689.675781
61099.703125
59758.472656
56948.378906
51689.921875
42555.261719
33016.484375
0.000000
0.000000
0.000000
74560.273438
73994.960938
72990.742188
74759.984375
74271.843750
71625.710938
74366.914062
73997.265625
73233.367188
71553.234375
69980.039062
69059.835938
69067.242188
67020.406250
66484.882812
65959.515625
66032.914062
64378.152344
63416.535156
61114.578125
61068.003906
58308.007812
53498.667969
45837.640625
42126.527344
0.000000
0.000000
0.000000
75544.718750
75010.320312
75158.468750
74518.843750
74441.546875
73380.335938
71777.679688
69522.984375
71535.695312
69278.226562
68573.367188
66284.750000
65313.441406
62424.488281
60952.363281
60297.285156
57139.628906
53693.207031
50103.496094
56005.136719
61214.250000
54814.300781
32922.394531
33796.621094
64912.917969
65728.531250
0.000000
0.000000
75203.601562
74099.273438
74795.351562
74243.406250
73776.507812
74060.562500
72032.968750
71382.187500
70572.796875
68940.578125
67526.664062
67176.554688
66758.125000
64170.089844
62568.769531
61276.300781
60085.097656
57530.925781
56464.324219
59707.285156
50420.925781
48280.648438
58076.800781
0.000000
74653.281250
64658.410156
0.000000
0.000000
74774.164062
74556.484375
74456.546875
73438.164062
73967.468750
73569.296875
70231.812500
71131.140625
71008.828125
69889.343750
68919.492188
67859.851562
66644.968750
64684.218750
65212.078125
63088.683594
61666.000000
60351.195312
60920.070312
61813.742188
59319.519531
64796.750000
71862.140625
63092.054688
63547.488281
57528.847656
0.000000
0.000000
75313.078125
75645.593750
75680.507812
72571.726562
72569.617188
72664.078125
71147.648438
72631.945312
70018.351562
71252.265625
68950.789062
68257.960938
65878.718750
65969.929688
63489.687500
64154.132812
63295.761719
63236.031250
59743.957031
60962.664062
61845.660156
65187.664062
65151.886719
74111.960938
61614.500000
48138.070312
0.000000
0.000000
76722.250000
76103.843750
73979.390625
74183.070312
72811.687500
70900.570312
72216.273438
72241.093750
71380.015625
69898.390625
68846.492188
68540.210938
64285.777344
65010.363281
65180.703125
62555.058594
63679.882812
61995.699219
61824.816406
61141.039062
62837.242188
66034.734375
70479.765625
66612.625000
50971.035156
38178.820312
0.000000
0.000000
77334.445312
76526.171875
75136.750000
74082.578125
73531.921875
74019.007812
71888.539062
72748.796875
72788.421875
70101.156250
70809.945312
69137.867188
66855.929688
65110.289062
64706.871094
63539.722656
64984.367188
63846.777344
64035.414062
63648.730469
63250.273438
62578.042969
64204.945312
61784.492188
0.000000
33887.710938
0.000000
0.000000
77323.710938
76216.046875
74920.703125
74805.304688
74041.156250
73400.109375
73924.492188
72790.164062
72976.273438
73576.414062
72090.515625
71827.820312
69979.375000
66646.148438
66859.945312
66243.289062
63492.242188
63096.074219
63239.574219
61719.457031
62485.394531
63006.933594
59538.468750
60323.527344
48512.183594
39494.093750
0.000000
0.000000
77309.640625
76645.945312
76393.453125
75339.414062
75348.898438
73561.179688
74672.468750
74047.453125
75202.164062
75485.906250
74139.617188
71940.843750
68958.046875
69093.039062
67952.937500
67867.031250
65904.867188
64875.285156
62907.031250
60796.992188
59654.824219
57686.910156
56158.753906
54562.894531
52534.101562
43372.566406
0.000000
0.000000
77440.921875
77886.250000
76116.523438
76356.531250
75505.539062
72954.695312
76297.812500
75441.070312
74774.390625
74817.796875
73483.828125
72832.671875
70964.445312
69058.953125
66770.859375
68125.968750
66191.296875
63725.476562
62687.441406
61942.105469
60658.937500
59654.640625
55411.332031
49243.066406
55811.394531
47359.437500
0.000000
0.000000
78643.929688
78557.398438
76439.734375
76528.695312
75032.562500
74695.164062
76129.445312
75298.500000
73754.312500
73824.093750
73157.289062
71640.906250
72148.390625
70415.992188
68620.632812
65876.117188
64686.132812
64825.324219
64173.207031
62259.191406
59019.011719
58493.019531
55888.234375
53321.207031
48727.734375
49671.156250
0.000000
0.000000
78791.960938
77820.500000
77136.664062
77176.296875
77146.968750
77139.351562
75640.453125
76607.062500
75744.171875
74855.812500
71774.335938