<?xml version='1.0' encoding='UTF-8'?>
<VTKFile xmlns='VTK' byte_order='LittleEndian' version='0.1' type='UnstructuredGrid'>
<UnstructuredGrid>
<Piece NumberOfCells='1344' NumberOfPoints='1344'>
<Points>
<DataArray NumberOfComponents='3' type='Float32' Name='Position' format='ascii'>
-0.075000 -0.075000 0.000000
-0.075000 -0.050000 0.000000
-0.075000 -0.025000 0.000000
-0.075000 0.000000 0.000000
-0.075000 0.025000 0.000000
-0.075000 0.050000 0.000000
-0.075000 0.075000 0.000000
-0.075000 0.100000 0.000000
-0.075000 0.125000 0.000000
-0.075000 0.150000 0.000000
-0.075000 0.175000 0.000000
-0.075000 0.200000 0.000000
-0.075000 0.225000 0.000000
-0.075000 0.250000 0.000000
-0.075000 0.275000 0.000000
-0.075000 0.300000 0.000000
-0.075000 0.325000 0.000000
-0.075000 0.350000 0.000000
-0.075000 0.375000 0.000000
-0.075000 0.400000 0.000000
-0.075000 0.425000 0.000000
-0.075000 0.450000 0.000000
-0.075000 0.475000 0.000000
-0.075000 0.500000 0.000000
-0.075000 0.525000 0.000000
-0.075000 0.550000 0.000000
-0.075000 0.575000 0.000000
-0.075000 0.600000 0.000000
-0.050000 -0.075000 0.000000
-0.050000 -0.050000 0.000000
-0.050000 -0.025000 0.000000
-0.050000 0.000000 0.000000
-0.050000 0.025000 0.000000
-0.050000 0.050000 0.000000
-0.050000 0.075000 0.000000
-0.050000 0.100000 0.000000
-0.050000 0.125000 0.000000
-0.050000 0.150000 0.000000
-0.050000 0.175000 0.000000
-0.050000 0.200000 0.000000
-0.050000 0.225000 0.000000
-0.050000 0.250000 0.000000
-0.050000 0.275000 0.000000
-0.050000 0.300000 0.000000
-0.050000 0.325000 0.000000
-0.050000 0.350000 0.000000
-0.050000 0.375000 0.000000
-0.050000 0.400000 0.000000
-0.050000 0.425000 0.000000
-0.050000 0.450000 0.000000
-0.050000 0.475000 0.000000
-0.050000 0.500000 0.000000
-0.050000 0.525000 0.000000
-0.050000 0.550000 0.000000
-0.050000 0.575000 0.000000
-0.050000 0.600000 0.000000
-0.025000 -0.075000 0.000000
-0.025000 -0.050000 0.000000
-0.025000 -0.025000 0.000000
-0.025000 0.000000 0.000000
-0.025000 0.025000 0.000000
-0.025000 0.050000 0.000000
-0.025000 0.075000 0.000000
-0.025000 0.100000 0.000000
-0.025000 0.125000 0.000000
-0.025000 0.150000 0.000000
-0.025000 0.175000 0.000000
-0.025000 0.200000 0.000000
-0.025000 0.225000 0.000000
-0.025000 0.250000 0.000000
-0.025000 0.275000 0.000000
-0.025000 0.300000 0.000000
-0.025000 0.325000 0.000000
-0.025000 0.350000 0.000000
-0.025000 0.375000 0.000000
-0.025000 0.400000 0.000000
-0.025000 0.425000 0.000000
-0.025000 0.450000 0.000000
-0.025000 0.475000 0.000000
-0.025000 0.500000 0.000000
-0.025000 0.525000 0.000000
-0.025000 0.550000 0.000000
-0.025000 0.575000 0.000000
-0.025000 0.600000 0.000000
0.000000 -0.075000 0.000000
0.000000 -0.050000 0.000000
0.000000 -0.025000 0.000000
0.000000 0.000000 0.000000
0.000000 0.025000 0.000000
0.000000 0.050000 0.000000
0.000000 0.075000 0.000000
0.000000 0.100000 0.000000
0.000000 0.125000 0.000000
0.000000 0.150000 0.000000
0.000000 0.175000 0.000000
0.000000 0.200000 0.000000
0.000000 0.225000 0.000000
0.000000 0.250000 0.000000
0.000000 0.275000 0.000000
0.000000 0.300000 0.000000
0.000000 0.325000 0.000000
0.000000 0.350000 0.000000
0.000000 0.375000 0.000000
0.000000 0.400000 0.000000
0.000000 0.425000 0.000000
0.000000 0.450000 0.000000
0.000000 0.475000 0.000000
0.000000 0.500000 0.000000
0.000000 0.525000 0.000000
0.000000 0.550000 0.000000
0.000000 0.575000 0.000000
0.000000 0.600000 0.000000
0.025000 -0.075000 0.000000
0.025000 -0.050000 0.000000
0.025000 -0.025000 0.000000
0.025000 0.000000 0.000000
0.035654 0.021832 0.000000
0.059270 0.029802 0.000000
0.021078 0.039021 0.000000
0.020998 0.114571 0.000000
0.041409 0.194179 0.000000
0.063109 0.268956 0.000000
0.022446 0.212247 0.000000
0.044925 0.246466 0.000000
0.023037 0.273502 0.000000
0.022454 0.306534 0.000000
0.023034 0.368448 0.000000
0.020673 0.414764 0.000000
0.027343 0.448116 0.000000
0.024529 0.468419 0.000000
0.022943 0.498855 0.000000
0.022208 0.528469 0.000000
0.025660 0.551834 0.000000
0.051821 0.557214 0.000000
0.076783 0.577257 0.000000
0.049938 0.581077 0.000000
0.035255 0.600000 0.000000
0.015587 0.600000 0.000000
0.135221 0.600000 0.000000
0.154831 0.600000 0.000000
0.050000 -0.075000 0.000000
0.050000 -0.050000 0.000000
0.050000 -0.025000 0.000000
0.050000 0.000000 0.000000
0.080725 0.025121 0.000000
0.063350 0.052432 0.000000
0.023741 0.073725 0.000000
0.034650 0.095217 0.000000
0.025539 0.150522 0.000000
0.023641 0.180181 0.000000
0.074251 0.244850 0.000000
0.042991 0.277918 0.000000
0.048507 0.301658 0.000000
0.042766 0.325221 0.000000
0.022951 0.338446 0.000000
0.032286 0.393598 0.000000
0.042775 0.427882 0.000000
0.054304 0.463344 0.000000
0.045830 0.486508 0.000000
0.045900 0.510706 0.000000
0.050780 0.532612 0.000000
0.077634 0.519946 0.000000
0.024142 0.575948 0.000000
0.076263 0.600000 0.000000
0.095138 0.600000 0.000000
0.055822 0.600000 0.000000
0.166832 0.577947 0.000000
0.175103 0.600000 0.000000
0.075000 -0.075000 0.000000
0.075000 -0.050000 0.000000
0.075000 -0.025000 0.000000
0.075000 0.000000 0.000000
0.101726 0.046488 0.000000
0.040980 0.060697 0.000000
0.055561 0.082138 0.000000
0.040736 0.130908 0.000000
0.069618 0.221596 0.000000
0.046670 0.224145 0.000000
0.099859 0.218844 0.000000
0.023369 0.241757 0.000000
0.084650 0.282772 0.000000
0.068424 0.311917 0.000000
0.073427 0.337410 0.000000
0.044977 0.350166 0.000000
0.047561 0.377251 0.000000
0.054633 0.409125 0.000000
0.063118 0.442963 0.000000
0.078133 0.470248 0.000000
0.107144 0.512898 0.000000
0.102086 0.535851 0.000000
0.074109 0.543631 0.000000
0.093605 0.559588 0.000000
0.108013 0.579779 0.000000
0.115227 0.600000 0.000000
0.194132 0.600000 0.000000
0.214051 0.600000 0.000000
0.100000 -0.075000 0.000000
0.100000 -0.050000 0.000000
0.100000 -0.025000 0.000000
0.100000 0.000000 0.000000
0.124118 0.050788 0.000000
0.061938 0.141711 0.000000
0.067958 0.173545 0.000000
0.057525 0.113354 0.000000
0.064380 0.196495 0.000000
0.043100 0.163329 0.000000
0.123637 0.253470 0.000000
0.104219 0.241551 0.000000
0.091620 0.262181 0.000000
0.090702 0.307418 0.000000
0.096169 0.334848 0.000000
0.069715 0.360364 0.000000
0.079611 0.406561 0.000000
0.103419 0.394511 0.000000
0.081964 0.429481 0.000000
0.094505 0.452551 0.000000
0.071034 0.496815 0.000000
0.093297 0.490669 0.000000
0.128445 0.528711 0.000000
0.154726 0.531152 0.000000
0.121176 0.554900 0.000000
0.138038 0.577391 0.000000
0.222998 0.579078 0.000000
0.233659 0.600000 0.000000
0.125000 -0.075000 0.000000
0.125000 -0.050000 0.000000
0.125000 -0.025000 0.000000
0.125000 0.000000 0.000000
0.098839 0.077232 0.000000
0.081487 0.065407 0.000000
0.081983 0.153124 0.000000
0.119002 0.205607 0.000000
0.092607 0.198758 0.000000
0.143810 0.212456 0.000000
0.137159 0.236650 0.000000
0.129311 0.277193 0.000000
0.110818 0.287834 0.000000
0.115436 0.315923 0.000000
0.096401 0.371485 0.000000
0.072802 0.383580 0.000000
0.126364 0.403275 0.000000
0.108854 0.422313 0.000000
0.134759 0.425113 0.000000
0.118071 0.444410 0.000000
0.111450 0.471867 0.000000
0.124214 0.496679 0.000000
0.146374 0.508141 0.000000
0.172397 0.554176 0.000000
0.194611 0.576296 0.000000
0.146450 0.554207 0.000000
0.250819 0.576164 0.000000
0.252699 0.600000 0.000000
0.150000 -0.075000 0.000000
0.150000 -0.050000 0.000000
0.150000 -0.025000 0.000000
0.150000 0.000000 0.000000
0.105426 0.024325 0.000000
0.119412 0.083766 0.000000
0.106646 0.105996 0.000000
0.075117 0.096033 0.000000
0.094255 0.174921 0.000000
0.116872 0.170567 0.000000
0.135295 0.188609 0.000000
0.158644 0.248229 0.000000
0.154217 0.269786 0.000000
0.133490 0.306144 0.000000
0.110191 0.350691 0.000000
0.122213 0.374892 0.000000
0.148070 0.380810 0.000000
0.156125 0.401355 0.000000
0.169268 0.417722 0.000000
0.161831 0.440491 0.000000
0.143787 0.452190 0.000000
0.135237 0.474784 0.000000
0.173846 0.513237 0.000000
0.200374 0.512148 0.000000
0.186577 0.535754 0.000000
0.204366 0.554753 0.000000
0.271537 0.600000 0.000000
0.290335 0.600000 0.000000
0.175000 -0.075000 0.000000
0.175000 -0.050000 0.000000
0.175000 -0.025000 0.000000
0.175000 0.000000 0.000000
0.133452 0.023951 0.000000
0.141930 0.067207 0.000000
0.133399 0.101921 0.000000
0.099471 0.132999 0.000000
0.127014 0.123481 0.000000
0.119663 0.150260 0.000000
0.154503 0.164722 0.000000
0.178436 0.145672 0.000000
0.160572 0.194615 0.000000
0.167887 0.219067 0.000000
0.173118 0.278319 0.000000
0.137653 0.338366 0.000000
0.141139 0.357110 0.000000
0.183440 0.392285 0.000000
0.199158 0.416762 0.000000
0.187294 0.440480 0.000000
0.195948 0.464426 0.000000
0.171105 0.467415 0.000000
0.158877 0.486813 0.000000
0.186409 0.490192 0.000000
0.227374 0.509096 0.000000
0.215457 0.532386 0.000000
0.306665 0.576464 0.000000
0.309817 0.600000 0.000000
0.200000 -0.075000 0.000000
0.200000 -0.050000 0.000000
0.200000 -0.025000 0.000000
0.200000 0.000000 0.000000
0.162865 0.022614 0.000000
0.149147 0.043528 0.000000
0.158941 0.078660 0.000000
0.082180 0.119096 0.000000
0.179935 0.123489 0.000000
0.142790 0.145561 0.000000
0.216924 0.121074 0.000000
0.246080 0.128579 0.000000
0.174226 0.169506 0.000000
0.181106 0.238487 0.000000
0.155282 0.306031 0.000000
0.180119 0.308023 0.000000
0.163017 0.326993 0.000000
0.170886 0.349531 0.000000
0.174292 0.372084 0.000000
0.207191 0.391486 0.000000
0.211665 0.441493 0.000000
0.211662 0.486485 0.000000
0.238829 0.486484 0.000000
0.253693 0.513860 0.000000
0.243455 0.535083 0.000000
0.231713 0.555781 0.000000
0.334426 0.576406 0.000000
0.328455 0.600000 0.000000
0.225000 -0.075000 0.000000
0.225000 -0.050000 0.000000
0.225000 -0.025000 0.000000
0.225000 0.000000 0.000000
0.195881 0.024327 0.000000
0.177129 0.042167 0.000000
0.167831 0.104794 0.000000
0.154786 0.120434 0.000000
0.219301 0.063079 0.000000
0.196836 0.078406 0.000000
0.248234 0.155116 0.000000
0.203530 0.144283 0.000000
0.202127 0.172775 0.000000
0.188415 0.192629 0.000000
0.194296 0.261700 0.000000
0.213759 0.300601 0.000000
0.192793 0.327707 0.000000
0.214442 0.339769 0.000000
0.197284 0.355547 0.000000
[...]
<PointData>
<DataArray NumberOfComponents='1' type='Int32' Name='ParticleType' format='ascii'>
3
3
3
3
3
3
3
3
3
3
3
3
3
3
3
3
3
3
3
3
3
3
3
3
3
3
3
3
3
3
3
3
3
3
3
3
3
3
3
3
3
3
3
3
3
3
3
3
3
3
3
3
3
3
3
3
3
3
2
2
2
2
2
2
2
2
2
2
2
2
2
2
2
2
2
2
2
2
2
2
2
2
2
2
3
3
2
2
2
2
2
2
2
2
2
2
2
2
2
2
2
2
2
2
2
2
2
2
2
2
2
2
3
3
2
2
0
0
0
0
0
0
0
0
0
0
0
0
0
0
0
0
0
0
0
0
0
0
0
0
3
3
2
2
0
0
0
0
0
0
0
0
0
0
0
0
0
0
0
0
0
0
0
0
0
0
0
0
3
3
2
2
0
0
0
0
0
0
0
0
0
0
0
0
0
0
0
0
0
0
0
0
0
0
0
0
3
3
2
2
0
0
0
0
0
0
0
0
0
0
0
0
0
0
0
0
0
0
0
0
0
0
0
0
3
3
2
2
0
0
0
0
0
0
0
0
0
0
0
0
0
0
0
0
0
0
0
0
0
0
0
0
3
3
2
2
0
0
0
0
0
0
0
0
0
0
0
0
0
0
0
0
0
0
0
0
0
0
0
0
3
3
2
2
0
0
0
0
0
0
0
0
0
0
0
0
0
0
0
0
0
0
0
0
0
0
0
0
3
3
2
2
0
0
0
0
0
0
0
0
0
0
0
0
0
0
0
0
0
0
0
0
0
0
0
0
3
3
2
2
0
0
0
0
0
0
0
0
0
0
0
0
0
0
0
0
0
0
0
0
0
0
0
0
3
3
2
2
0
0
0
0
0
0
0
0
0
0
0
0
0
0
0
0
0
0
0
0
0
0
0
0
3
3
2
2
0
0
0
0
0
0
0
0
0
0
0
0
0
0
0
0
0
0
0
0
0
0
0
0
3
3
2
2
0
0
0
0
0
0
0
0
0
0
0
0
0
0
0
0
0
0
0
0
0
0
0
0
3
3
2
2
0
0
0
0
0
0
0
0
0
0
0
0
0
0
0
0
0
0
0
0
0
0
0
0
3
3
2
2
0
0
0
0
0
0
0
0
0
0
0
0
0
0
0
0
0
0
0
0
0
0
0
0
3
3
2
2
0
0
0
0
0
0
0
0
0
0
0
0
0
0
0
0
0
0
0
0
0
0
0
0
3
3
2
2
0
0
0
0
0
0
0
0
0
0
0
0
0
0
0
0
0
0
0
0
0
0
0
0
3
3
2
2
0
0
0
0
0
0
0
0
0
0
0
0
0
0
0
0
0
0
0
0
0
0
0
0
3
3
2
2
0
0
0
0
0
0
0
0
0
0
0
0
0
0
0
0
0
0
0
0
0
0
0
0
3
3
2
2
0
0
0
0
0
0
0
0
0
0
0
0
0
0
0
0
0
0
0
0
0
0
0
0
3
3
2
2
0
0
0
0
0
0
0
0
0
0
0
0
0
0
0
0
0
0
0
0
0
0
0
0
3
3
2
2
0
0
0
0
0
0
0
0
0
0
0
0
0
0
0
0
0
0
0
0
0
0
0
0
3
3
2
2
0
0
0
0
0
0
0
0
0
0
0
0
0
0
0
0
0
0
0
0
0
0
0
0
3
3
2
2
0
0
0
0
0
0
0
0
0
0
0
0
0
0
0
0
0
0
0
0
0
0
0
0
3
3
2
2
0
0
0
0
0
0
0
0
0
0
0
0
0
0
0
0
0
0
0
0
0
0
0
0
3
3
2
2
0
0
0
0
0
0
0
0
0
0
0
0
0
0
0
0
0
0
0
0
0
0
0
0
3
3
2
2
0
0
0
0
0
0
0
0
0
0
0
0
0
0
0
0
0
0
0
0
0
0
0
0
3
3
2
2
0
0
0
0
0
0
0
0
0
0
0
0
0
0
0
0
0
0
0
0
0
0
0
0
3
3
2
2
0
0
0
0
0
0
0
0
0
0
0
0
0
0
0
0
0
0
0
0
0
0
0
0
3
3
2
2
0
0
0
0
0
0
0
0
0
0
0
0
0
0
0
0
0
0
0
0
0
0
0
0
3
3
2
2
0
0
0
0
0
0
0
0
0
0
0
0
0
0
0
0
0
0
0
0
0
0
0
0
3
3
2
2
0
0
0
0
0
0
0
0
0
0
0
0
0
0
0
0
0
0
0
0
0
0
0
0
3
3
2
2
0
0
0
0
0
0
0
0
0
0
0
0
0
0
0
0
0
0
0
0
0
0
0
0
3
3
2
2
0
0
0
0
0
0
0
0
0
0
0
0
0
0
0
0
0
0
0
0
0
0
0
0
3
3
2
2
0
0
0
0
0
0
0
0
0
0
0
0
0
0
0
0
0
0
0
0
0
0
0
0
3
3
2
2
0
0
0
0
0
0
0
0
0
0
0
0
0
0
0
0
0
0
0
0
0
0
0
0
3
3
2
2
0
0
0
0
0
0
0
0
0
0
0
0
0
0
0
0
0
0
0
0
0
0
0
0
3
3
2
2
0
0
0
0
0
0
0
0
0
0
0
0
0
0
0
0
0
0
0
0
0
0
0
0
3
3
2
2
0
0
0
0
0
0
0
0
0
0
0
0
0
0
0
0
0
0
0
0
0
0
0
0
3
3
2
2
0
0
0
0
0
0
0
0
0
0
0
0
0
0
0
0
0
0
0
0
0
0
0
0
3
3
2
2
0
0
0
0
0
0
0
0
0
0
0
0
0
0
0
0
0
0
0
0
0
0
0
0
3
3
2
2
2
2
2
2
2
2
2
2
2
2
2
2
2
2
2
2
2
2
2
2
2
2
2
2
3
3
2
2
2
2
2
2
2
2
2
2
2
2
2
2
2
2
2
2
2
2
2
2
2
2
2
2
3
3
3
3
3
3
3
3
3
3
3
3
3
3
3
3
3
3
3
3
3
3
3
3
3
3
3
3
3
3
3
3
3
3
3
3
3
3
3
3
3
3
3
3
3
3
3
3
3
3
3
3
3
3
3
3
</DataArray>
<DataArray NumberOfComponents='1' type='Float32' Name='Velocity' format='ascii'>
0.000000
0.000000
0.000000
0.000000
0.000000
0.000000
0.000000
0.000000
0.000000
0.000000
0.000000
0.000000
0.000000
0.000000
0.000000
0.000000
0.000000
0.000000
0.000000
0.000000
0.000000
0.000000
0.000000
0.000000
0.000000
0.000000
0.000000
0.000000
0.000000
0.000000
0.000000
0.000000
0.000000
0.000000
0.000000
0.000000
0.000000
0.000000
0.000000
0.000000
0.000000
0.000000
0.000000
0.000000
0.000000
0.000000
0.000000
0.000000
0.000000
0.000000
0.000000
0.000000
0.000000
0.000000
0.000000
0.000000
0.000000
0.000000
0.000000
0.000000
0.000000
0.000000
0.000000
0.000000
0.000000
0.000000
0.000000
0.000000
0.000000
0.000000
0.000000
0.000000
0.000000
0.000000
0.000000
0.000000
0.000000
0.000000
0.000000
0.000000
0.000000
0.000000
0.000000
0.000000
0.000000
0.000000
0.000000
0.000000
0.000000
0.000000
0.000000
0.000000
0.000000
0.000000
0.000000
0.000000
0.000000
0.000000
0.000000
0.000000
0.000000
0.000000
0.000000
0.000000
0.000000
0.000000
0.000000
0.000000
0.000000
0.000000
0.000000
0.000000
0.000000
0.000000
0.000000
0.000000
0.094288
0.220286
0.106774
0.087706
0.314957
0.307513
0.173419
0.143339
0.048194
0.130771
0.186667
0.201282
0.090922
0.027385
0.032439
0.296371
0.293337
0.198559
0.100000
0.100000
0.100000
0.100000
0.100000
0.100000
0.000000
0.000000
0.000000
0.000000
0.214658
0.243161
0.078712
0.132230
0.096341
0.198289
0.232918
0.148903
0.089290
0.260062
0.219098
0.367653
0.180904
0.163717
0.286181
0.412944
0.245457
0.075737
0.100000
0.100000
0.100000
0.100000
0.100000
0.100000
0.000000
0.000000
0.000000
0.000000
0.360884
0.133910
0.062356
0.042049
0.398700
0.282441
0.080798
0.085656
0.120124
0.230732
0.331018
0.187502
0.047307
0.112827
0.264126
0.216513
0.200631
0.160298
0.107288
0.056488
0.100000
0.100000
0.100000
0.100000
0.000000
0.000000
0.000000
0.000000
0.273210
0.267404
0.062090
0.287805
0.359996
0.158167
0.384404
0.321355
0.042625
0.413970
0.411809
0.247255
0.281731
0.437608
0.300846
0.213324
0.215075
0.195239
0.141341
0.250119
0.318806
0.100000
0.100000
0.100000
0.000000
0.000000
0.000000
0.000000
0.081758
0.038192
0.133150
0.182359
0.284202
0.214419
0.189493
0.332901
0.404812
0.227931
0.410702
0.438840
0.165228
0.230133
0.151438
0.077420
0.295151
0.040168
0.096629
0.343050
0.100000
0.097341
0.100000
0.100000
0.000000
0.000000
0.000000
0.000000
0.224855
0.096544
0.122658
0.056557
0.180380
0.066477
0.269838
0.165246
0.263091
0.116167
0.309911
0.521341
0.287678
0.046508
0.139435
0.280128
0.182510
0.111573
0.157252
0.246898
0.308617
0.326968
0.100000
0.100000
0.000000
0.000000
0.000000
0.000000
0.193725
0.102219
0.077827
0.246375
0.205512
0.197666
0.198218
0.149554
0.160696
0.218654
0.117920
0.103133
0.135154
0.257342
0.246760
0.102538
0.148503
0.183512
0.316158
0.129958
0.014116
0.323765
0.100000
0.100000
0.000000
0.000000
0.000000
0.000000
0.052812
0.078083
0.170020
0.089505
0.169372
0.190409
0.121986
0.069093
0.088045
0.068385
0.128054
0.248243
0.258052
0.191930
0.115232
0.181897
0.028975
0.093517
0.032278
0.155694
0.214140
0.435411
0.100000
0.100000
0.000000
0.000000
0.000000
0.000000
0.018338
0.145971
0.131006
0.253877
0.099869
0.193774
0.337056
0.337599
0.121659
0.177466
0.125867
0.048343
0.237017
0.132390
0.196514
0.137097
0.317028
0.201694
0.124405
0.117182
0.036832
0.148997
0.100000
0.100000
0.000000
0.000000
0.000000
0.000000
0.122730
0.059319
0.037468
0.050729
0.122715
0.301613
0.246303
0.188833
0.131519
0.111561
0.172686
0.154194
0.217802
0.099687
0.151835
0.311575
0.086198
0.050329
0.228449
0.270237
0.274153
0.192352
0.100000
0.100000
0.000000
0.000000
0.000000
0.000000
0.096176
0.057878
0.106287
0.169367
0.162037
0.144153
0.207077
0.092781
0.088472
0.109010
0.204549
0.111715
0.099518
0.037630
0.243410
0.173937
0.101141
0.339211
0.131899
0.087674
0.032907
0.100000
0.100000
0.100000
0.000000
0.000000
0.000000
0.000000
0.141288
0.084403
0.189338
0.255487
0.144291
0.178480
0.129353
0.284143
0.171217
0.095807
0.059968
0.069773
0.117350
0.105691
0.094743
0.070295
0.063629
0.203610
0.285787
0.361737
0.161403
0.296126
0.100000
0.100000
0.000000
0.000000
0.000000
0.000000
0.146116
0.146982
0.158985
0.240912
0.208568
0.141230
0.259212
0.252464
0.127255
0.184030
0.138129
0.272743
0.148352
0.126590
0.142380
0.361045
0.408057
0.158858
0.284985
0.202595
0.171417
0.201042
0.100000
0.100000
0.000000
0.000000
0.000000
0.000000
0.168366
0.298055
0.035643
0.289519
0.108226
0.167753
0.075837
0.090222
0.345022
0.124686
0.201423
0.045152
0.168308
0.297897
0.335566
0.175828
0.355288
0.170684
0.084712
0.141431
0.144213
0.100000
0.100000
0.100000
0.000000
0.000000
0.000000
0.000000
0.103817
0.066567
0.178438
0.146109
0.068619
0.145086
0.061081
0.027246
0.203903
0.149674
0.099700
0.106612
0.164688
0.234971
0.221071
0.140347
0.411441
0.267431
0.128518
0.198022
0.285781
0.093771
0.100000
0.100000
0.000000
0.000000
0.000000
0.000000
0.068455
0.026270
0.057176
0.040910
0.078759
0.199491
0.174885
0.069141
0.148002
0.184976
0.127890
0.141627
0.035561
0.080464
0.260545
0.300293
0.110577
0.093520
0.119223
0.125731
0.063266
0.114283
0.100000
0.100000
0.000000
0.000000
0.000000
0.000000
0.035307
0.197567
0.205135
0.103655
0.064980
0.014162
0.106627
0.094832
0.149223
0.177181
0.284237
0.179553
0.190256
0.064070
0.202088
0.207286
0.232147
0.213908
0.233985
0.182505
0.126356
0.100000
0.100000
0.100000
0.000000
0.000000
0.000000
0.000000
0.140778
0.132953
0.323834
0.073028
0.190303
0.059558
0.128894
0.060689
0.040609
0.113862
0.134103
0.143561
0.103063
0.166145
0.236930
0.222672
0.126691
0.186424
0.119418
0.189587
0.002986
0.166754
0.154608
0.100000
0.000000
0.000000
0.000000
0.000000
0.043188
0.062401
0.240119
0.052166
0.043790
0.151672
0.153533
0.193668
0.076461
0.180312
0.240297
0.206765
0.397752
0.043128
0.099924
0.252258
0.513235
0.109960
0.153686
0.145270
0.089839
0.059864
0.100000
0.100000
0.000000
0.000000
0.000000
0.000000
0.114651
0.181111
0.051916
0.113825
0.144256
0.307714
0.111407
0.153028
0.174614
0.227682
0.016611
0.227248
0.078564
0.080030
0.152383
0.161002
0.167855
0.181893
0.191304
0.051916
0.065910
0.100000
0.100000
0.100000
0.000000
0.000000
0.000000
0.000000
0.038612
0.239771
0.154691
0.088622
0.166672
0.025905
0.212905
0.114530
0.235128
0.259811
0.238290
0.173661
0.144155
0.103243
0.064558
0.076111
0.239889
0.191658
0.267920
0.063808
0.066207
0.269928
0.375021
0.100000
0.000000
0.000000
0.000000
0.000000
0.043880
0.104070
0.039126
0.136812
0.049829
0.215051
0.135663
0.223599
0.102389
0.035401
0.037492
0.146815
0.068735
0.183528
0.194039
0.046635
0.071767
0.251628
0.142315
0.134199
0.176924
0.099697
0.435413
0.100000
0.000000
0.000000
0.000000
0.000000
0.091105
0.099819
0.180798
0.302792
0.084643
0.236274
0.055065
0.276640
0.167669
0.351027
0.296245
0.102164
0.070790
0.072382
0.049812
0.286371
0.152607
0.100799
0.175951
0.182204
0.107276
0.153505
0.514518
0.100000
0.000000
0.000000
0.000000
0.000000
0.091420
0.180480
0.047978
0.094504
0.135673
0.113681
0.115604
0.258953
0.186674
0.122857
0.029565
0.114664
0.092625
0.230795
0.101298
0.208532
0.113985
0.286939
0.097982
0.085548
0.085413
0.280055
0.113922
0.100000
0.000000
0.000000
0.000000
0.000000
0.094590
0.235954
0.137306
0.192008
0.129160
0.177617
0.102317
0.077239
0.051099
0.034646
0.084637
0.131867
0.073986
0.106041
0.063747
0.301300
0.187964
0.208691
0.320662
0.332134
0.239280
0.090147
0.107089
0.100000
0.000000
0.000000
0.000000
0.000000
0.097311
0.146790
0.129207
0.083611
0.135716
0.329004
0.071164
0.070078
0.182246
0.160921
0.127550
0.198569
0.173477
0.128276
0.096570
0.291175
0.172564
0.216325
0.124605
0.131263
0.263971
0.179657
0.100000
0.100000
0.000000
0.000000
0.000000
0.000000
0.043176
0.078118
0.208223
0.058668
0.144700
0.028261
0.034459
0.076866
0.209528
0.164948
0.147794
0.070791
0.071687
0.107361
0.041455
0.046539
0.138640
0.228916
0.446676
0.117584
0.396132
0.338159
0.214670
0.100000
0.000000
0.000000
0.000000
0.000000
0.049845
0.255230
0.278336
0.040353
0.006772
0.162829
0.116952
0.227697
0.150217
0.078516
0.258172
0.084567
0.293501
0.103253
0.176909
0.139344
0.114990
0.116444
0.195420
0.098179
0.294290
0.318159
0.272433
0.100000
0.000000
0.000000
0.000000
0.000000
0.087310
0.032728
0.096259
0.088047
0.088618
0.064181
0.144598
0.095741
0.228147
0.137530
0.202624
0.155729
0.133305
0.070904
0.068935
0.160411
0.209135
0.242955
0.204183
0.184054
0.254992
0.525271
0.100000
0.100000
0.000000
0.000000
0.000000
0.000000
0.049591
0.219375
0.035250
0.084451
0.139248
0.132339
0.117215
0.215729
0.066523
0.148198
0.074137
0.058400
0.059901
0.257379
0.121889
0.142105
0.191550
0.188738
0.043868
0.105700
0.432021
0.144455
0.231755
0.100000
0.000000
0.000000
0.000000
0.000000
0.124720
0.065360
0.160031
0.147079
0.025065
0.260139
0.030706
0.196982
0.293999
0.223782
0.018528
0.242365
0.132443
0.293353
0.089747
0.153541
0.202913
0.233970
0.032615
0.224929
0.162334
0.485768
0.218657
0.100000
0.000000
0.000000
0.000000
0.000000
0.073775
0.057521
0.257740
0.109017
0.237640
0.059129
0.236745
0.324509
0.309655
0.286936
0.040369
0.155421
0.383432
0.069853
0.078906
0.065396
0.036535
0.139339
0.270031
0.228249
0.273760
0.147057
0.295970
0.100000
0.000000
0.000000
0.000000
0.000000
0.218751
0.126028
0.249778
0.150392
0.274239
0.048101
0.128857
0.139035
0.072658
0.191305
0.190011
0.089067
0.123013
0.017468
0.126118
0.096884
0.325453
0.075351
0.198015
0.120532
0.116128
0.245433
0.311205
0.100000
0.000000
0.000000
0.000000
0.000000
0.173510
0.201911
0.265856
0.164573
0.046726
0.217233
0.088854
0.234219
0.159264
0.036225
0.215140
0.179207
0.041228
0.161252
0.107545
0.164409
0.232321
0.173102
0.206051
0.138043
0.217350
0.596115
0.617273
0.100000
0.000000
0.000000
0.000000
0.000000
0.056492
0.071167
0.281743
0.325968
0.029764
0.285559
0.066984
0.301775
0.087416
0.310720
0.336519
0.238944
0.039730
0.118691
0.028223
0.149031
0.195284
0.141255
0.379395
0.130778
0.148710
0.463952
0.135605
0.100000
0.000000
0.000000
0.000000
0.000000
0.200080
0.200855
0.068764
0.180131
0.115966
0.191555
0.072473
0.158364
0.094935
0.057044
0.136890
0.100569
0.153640
0.092265
0.138333
0.086847
0.168070
0.107687
0.254464
0.205945
0.169783
0.595413
0.344398
0.100000
0.000000
0.000000
0.000000
0.000000
0.176964
0.036791
0.038731
0.176893
0.123137
0.131780
0.064935
0.122951
0.092394
0.205452
0.147329
0.198805
0.099949
0.171878
0.102354
0.262568
0.293210
0.253970
0.220319
0.403125
0.312247
0.212110
0.138620
0.100000
0.000000
0.000000
0.000000
0.000000
0.105739
0.133045
0.203179
0.188170
0.300254
0.031607
0.224695
0.075363
0.107881
0.165335
0.038993
0.082055
0.165648
0.103737
0.069822
0.198908
0.187901
0.225801
0.258378
0.092567
0.512290
0.154839
0.256720
0.100000
0.000000
0.000000
0.000000
0.000000
0.093541
0.137516
0.178038
0.124011
0.108865
0.081351
0.147289
0.074740
0.076200
0.063748
0.099150
0.110275
0.113087
0.172408
0.257119
0.239873
0.354715
0.167441
0.264964
0.264775
0.049638
0.326009
0.292407
0.100000
0.000000
0.000000
0.000000
0.000000
0.113601
0.125863
0.135070
0.133422
0.259633
0.055080
0.145259
0.060924
0.046124
0.058909
0.111138
0.073223
0.092248
0.148422
0.026146
0.098125
0.185045
0.040664
0.041262
0.127480
0.205308
0.458754
0.327335
0.100000
0.000000
0.000000
0.000000
0.000000
0.000000
0.000000
0.000000
0.000000
0.000000
0.000000
0.000000
0.000000
0.000000
0.000000
0.000000
0.000000
0.000000
0.000000
0.000000
0.000000
0.000000
0.000000
0.000000
0.000000
0.000000
0.000000
0.000000
0.000000
0.000000
0.000000
0.000000
0.000000
0.000000
0.000000
0.000000
0.000000
0.000000
0.000000
0.000000
0.000000
0.000000
0.000000
0.000000
0.000000
0.000000
0.000000
0.000000
0.000000
0.000000
0.000000
0.000000
0.000000
0.000000
0.000000
0.000000
0.000000
0.000000
0.000000
0.000000
0.000000
0.000000
0.000000
0.000000
0.000000
0.000000
0.000000
0.000000
0.000000
0.000000
0.000000
0.000000
0.000000
0.000000
0.000000
0.000000
0.000000
0.000000
0.000000
0.000000
0.000000
0.000000
0.000000
0.000000
0.000000
0.000000
0.000000
0.000000
0.000000
0.000000
0.000000
0.000000
0.000000
0.000000
0.000000
0.000000
0.000000
0.000000
0.000000
0.000000
0.000000
0.000000
0.000000
0.000000
0.000000
0.000000
0.000000
0.000000
0.000000
0.000000
0.000000
0.000000
0.000000
</DataArray>
<DataArray NumberOfComponents='1' type='Float32' Name='pressure' format='ascii'>
0.000000
0.000000
0.000000
0.000000
0.000000
0.000000
0.000000
0.000000
0.000000
0.000000
0.000000
0.000000
0.000000
0.000000
0.000000
0.000000
0.000000
0.000000
0.000000
0.000000
0.000000
0.000000
0.000000
0.000000
0.000000
0.000000
0.000000
0.000000
0.000000
0.000000
0.000000
0.000000
0.000000
0.000000
0.000000
0.000000
0.000000
0.000000
0.000000
0.000000
0.000000
0.000000
0.000000
0.000000
0.000000
0.000000
0.000000
0.000000
0.000000
0.000000
0.000000
0.000000
0.000000
0.000000
0.000000
0.000000
0.000000
0.000000
37667.992188
37716.039062
38502.593750
39026.292969
38562.875000
38496.917969
38573.808594
37268.843750
37899.796875
38053.875000
38569.371094
38475.390625
39158.753906
39557.832031
39673.804688
39936.332031
40271.039062
40841.804688
41653.027344
40375.406250
42250.000000
44178.589844
44574.640625
41170.640625
37030.781250
0.000000
0.000000
0.000000
37709.605469
37086.640625
36627.453125
38313.644531
38188.199219
36937.054688
37236.265625
36111.222656
37993.609375
37294.558594
37245.093750
37510.226562
38285.378906
38580.898438
38427.039062
39063.789062
39230.492188
38845.683594
40904.347656
39451.320312
42117.050781
44956.613281
46804.234375
43582.449219
45526.925781
37744.453125
0.000000
0.000000
38433.500000
37893.394531
38040.300781
37463.933594
36981.136719
37196.554688
36685.468750
36514.835938
37095.105469
37311.464844
36910.902344
36799.691406
37593.039062
40269.960938
39095.214844
40791.000000
41621.285156
44710.515625
43084.406250
38987.742188
34953.308594
38617.750000
0.000000
41570.316406
32880.414062
33546.367188
0.000000
0.000000
38061.007812
37348.191406
36708.300781
37645.031250
36998.359375
37093.214844
36073.281250
37028.367188
36373.093750
38549.402344
37767.023438
38153.007812
39059.855469
39462.828125
39375.277344
40699.500000
41546.562500
42484.175781
40732.828125
38040.207031
44702.386719
18894.593750
0.000000
0.000000
44699.984375
34595.335938
0.000000
0.000000
37448.632812
37364.324219
36637.925781
37307.039062
36824.707031
36862.238281
36230.906250
36309.015625
37356.585938
36934.437500
36599.667969
37630.347656
38081.242188
37925.671875
39161.335938
37599.199219
39761.496094
38085.386719
39524.542969
37388.421875
37492.085938
37519.656250
39199.312500
27100.205078
33922.160156
27671.662109
0.000000
0.000000
37555.695312
38284.980469
36113.429688
36821.640625
35932.695312
36405.148438
37190.300781
36672.378906
35799.539062
36221.507812
37451.968750
37474.847656
36672.082031
37848.984375
38892.167969
38198.265625
38749.992188
38142.914062
39597.273438
38314.871094
36270.558594
38007.921875
36181.566406
42967.781250
38428.058594
0.000000
0.000000
0.000000
37290.917969
36502.847656
37055.019531
37494.250000
36366.417969
35181.632812
36437.773438
36303.542969
35713.281250
35950.851562
36194.824219
37091.144531
37540.523438
38340.707031
36866.437500
36562.089844
35824.722656
37657.511719
37320.187500
37201.175781
37307.957031
38527.058594
42679.500000
38664.769531
36923.085938
28031.291016
0.000000
0.000000
37403.617188
36777.980469
37185.105469
37121.972656
34910.500000
36541.500000
36817.226562
36052.824219
36082.625000
35704.414062
35844.003906
35545.671875
36360.054688
36328.281250
36777.570312
35812.527344
35997.929688
36693.093750
36838.441406
37638.417969
36235.593750
35119.687500
37828.046875
36542.378906
31776.146484
23415.472656
0.000000
0.000000
36925.656250
36102.167969
36973.910156
36862.359375
36373.460938
35988.636719
36455.753906
36546.300781
35593.812500
35793.695312
35621.757812
34914.667969
34499.191406
34782.503906
36504.480469
34851.281250
33789.023438
34971.011719
34749.914062
35284.500000
36372.828125
35429.628906
33046.667969
35360.484375
26558.164062
0.000000
0.000000
0.000000
36506.011719
36530.179688
36619.039062
36382.574219
35625.601562
36871.007812
35504.488281
35455.949219
35058.742188
35325.617188
35507.253906
35196.757812
35972.519531
34742.238281
35545.128906
34665.507812
34734.546875
34233.847656
34436.375000
34637.902344
32716.722656
31617.070312
33636.441406
34607.226562
20776.435547
0.000000
0.000000
0.000000
35836.496094
35663.542969
36500.785156
35925.433594
35115.601562
35694.234375
35582.687500
35713.582031
34045.535156
34490.718750
34608.750000
35980.152344
34957.500000
34584.847656
33962.691406
33381.320312
34756.296875
32526.669922
32846.464844
33825.039062
32116.285156
31506.888672
29257.416016
31152.373047
20560.339844
11221.490234
0.000000
0.000000
36002.972656
35789.742188
36047.269531
35220.968750
36256.933594
35639.882812
36179.085938
34660.832031
34429.199219
35441.835938
33679.230469
34346.617188
35170.085938
34882.070312
34059.902344
33612.093750
33501.515625
33224.972656
31472.951172
31619.599609
28098.541016
29666.812500
26881.921875
29910.990234
15092.910156
13455.042969
0.000000
0.000000
35801.929688
35799.167969
35436.292969
35258.140625
35666.339844
35017.351562
34310.550781
34546.851562
34087.566406
34609.796875
33593.835938
34593.546875