<?xml version='1.0' encoding='UTF-8'?>
<VTKFile xmlns='VTK' byte_order='LittleEndian' version='0.1' type='UnstructuredGrid'>
<UnstructuredGrid>
<Piece NumberOfCells='1344' NumberOfPoints='1344'>
<Points>
<DataArray NumberOfComponents='3' type='Float32' Name='Position' format='ascii'>
-0.075000 -0.075000 0.000000
-0.075000 -0.050000 0.000000
-0.075000 -0.025000 0.000000
-0.075000 0.000000 0.000000
-0.075000 0.025000 0.000000
-0.075000 0.050000 0.000000
-0.075000 0.075000 0.000000
-0.075000 0.100000 0.000000
-0.075000 0.125000 0.000000
-0.075000 0.150000 0.000000
-0.075000 0.175000 0.000000
-0.075000 0.200000 0.000000
-0.075000 0.225000 0.000000
-0.075000 0.250000 0.000000
-0.075000 0.275000 0.000000
-0.075000 0.300000 0.000000
-0.075000 0.325000 0.000000
-0.075000 0.350000 0.000000
-0.075000 0.375000 0.000000
-0.075000 0.400000 0.000000
-0.075000 0.425000 0.000000
-0.075000 0.450000 0.000000
-0.075000 0.475000 0.000000
-0.075000 0.500000 0.000000
-0.075000 0.525000 0.000000
-0.075000 0.550000 0.000000
-0.075000 0.575000 0.000000
-0.075000 0.600000 0.000000
-0.050000 -0.075000 0.000000
-0.050000 -0.050000 0.000000
-0.050000 -0.025000 0.000000
-0.050000 0.000000 0.000000
-0.050000 0.025000 0.000000
-0.050000 0.050000 0.000000
-0.050000 0.075000 0.000000
-0.050000 0.100000 0.000000
-0.050000 0.125000 0.000000
-0.050000 0.150000 0.000000
-0.050000 0.175000 0.000000
-0.050000 0.200000 0.000000
-0.050000 0.225000 0.000000
-0.050000 0.250000 0.000000
-0.050000 0.275000 0.000000
-0.050000 0.300000 0.000000
-0.050000 0.325000 0.000000
-0.050000 0.350000 0.000000
-0.050000 0.375000 0.000000
-0.050000 0.400000 0.000000
-0.050000 0.425000 0.000000
-0.050000 0.450000 0.000000
-0.050000 0.475000 0.000000
-0.050000 0.500000 0.000000
-0.050000 0.525000 0.000000
-0.050000 0.550000 0.000000
-0.050000 0.575000 0.000000
-0.050000 0.600000 0.000000
-0.025000 -0.075000 0.000000
-0.025000 -0.050000 0.000000
-0.025000 -0.025000 0.000000
-0.025000 0.000000 0.000000
-0.025000 0.025000 0.000000
-0.025000 0.050000 0.000000
-0.025000 0.075000 0.000000
-0.025000 0.100000 0.000000
-0.025000 0.125000 0.000000
-0.025000 0.150000 0.000000
-0.025000 0.175000 0.000000
-0.025000 0.200000 0.000000
-0.025000 0.225000 0.000000
-0.025000 0.250000 0.000000
-0.025000 0.275000 0.000000
-0.025000 0.300000 0.000000
-0.025000 0.325000 0.000000
-0.025000 0.350000 0.000000
-0.025000 0.375000 0.000000
-0.025000 0.400000 0.000000
-0.025000 0.425000 0.000000
-0.025000 0.450000 0.000000
-0.025000 0.475000 0.000000
-0.025000 0.500000 0.000000
-0.025000 0.525000 0.000000
-0.025000 0.550000 0.000000
-0.025000 0.575000 0.000000
-0.025000 0.600000 0.000000
0.000000 -0.075000 0.000000
0.000000 -0.050000 0.000000
0.000000 -0.025000 0.000000
0.000000 0.000000 0.000000
0.000000 0.025000 0.000000
0.000000 0.050000 0.000000
0.000000 0.075000 0.000000
0.000000 0.100000 0.000000
0.000000 0.125000 0.000000
0.000000 0.150000 0.000000
0.000000 0.175000 0.000000
0.000000 0.200000 0.000000
0.000000 0.225000 0.000000
0.000000 0.250000 0.000000
0.000000 0.275000 0.000000
0.000000 0.300000 0.000000
0.000000 0.325000 0.000000
0.000000 0.350000 0.000000
0.000000 0.375000 0.000000
0.000000 0.400000 0.000000
0.000000 0.425000 0.000000
0.000000 0.450000 0.000000
0.000000 0.475000 0.000000
0.000000 0.500000 0.000000
0.000000 0.525000 0.000000
0.000000 0.550000 0.000000
0.000000 0.575000 0.000000
0.000000 0.600000 0.000000
0.025000 -0.075000 0.000000
0.025000 -0.050000 0.000000
0.025000 -0.025000 0.000000
0.025000 0.000000 0.000000
0.048919 0.024793 0.000000
0.101311 0.022781 0.000000
0.023445 0.025480 0.000000
0.026651 0.116536 0.000000
0.053365 0.136753 0.000000
0.072126 0.273595 0.000000
0.021222 0.187842 0.000000
0.049606 0.204039 0.000000
0.024432 0.237232 0.000000
0.024297 0.260547 0.000000
0.033351 0.361727 0.000000
0.023031 0.413737 0.000000
0.023214 0.488756 0.000000
0.023382 0.515588 0.000000
0.030143 0.538400 0.000000
0.046571 0.558013 0.000000
0.059678 0.579089 0.000000
0.090883 0.581524 0.000000
0.118962 0.578352 0.000000
0.061773 0.600000 0.000000
0.041620 0.600000 0.000000
0.014618 0.600000 0.000000
0.161643 0.600000 0.000000
0.182819 0.600000 0.000000
0.050000 -0.075000 0.000000
0.050000 -0.050000 0.000000
0.050000 -0.025000 0.000000
0.050000 0.000000 0.000000
0.135142 0.021911 0.000000
0.086477 0.048090 0.000000
0.023877 0.070011 0.000000
0.026747 0.091209 0.000000
0.024688 0.139653 0.000000
0.030454 0.160827 0.000000
0.056757 0.245943 0.000000
0.045497 0.270072 0.000000
0.027106 0.289763 0.000000
0.059882 0.343085 0.000000
0.023915 0.342318 0.000000
0.023980 0.383135 0.000000
0.022704 0.446570 0.000000
0.032053 0.467381 0.000000
0.051028 0.492309 0.000000
0.020623 0.562077 0.000000
0.061767 0.536705 0.000000
0.114199 0.531552 0.000000
0.030324 0.584223 0.000000
0.103221 0.600000 0.000000
0.123794 0.600000 0.000000
0.082243 0.600000 0.000000
0.203624 0.577331 0.000000
0.202927 0.600000 0.000000
0.075000 -0.075000 0.000000
0.075000 -0.050000 0.000000
0.075000 -0.025000 0.000000
0.075000 0.000000 0.000000
0.114171 0.042865 0.000000
0.075718 0.026405 0.000000
0.031116 0.049142 0.000000
0.049300 0.109247 0.000000
0.054550 0.225455 0.000000
0.046123 0.175481 0.000000
0.134829 0.255516 0.000000
0.027820 0.212992 0.000000
0.050809 0.294385 0.000000
0.022822 0.312367 0.000000
0.077659 0.359577 0.000000
0.067212 0.315963 0.000000
0.041840 0.399722 0.000000
0.042645 0.431044 0.000000
0.059561 0.445300 0.000000
0.058191 0.470722 0.000000
0.140698 0.535248 0.000000
0.128614 0.556172 0.000000
0.076050 0.557951 0.000000
0.101400 0.554852 0.000000
0.147724 0.577351 0.000000
0.143342 0.600000 0.000000
0.222589 0.600000 0.000000
0.241903 0.600000 0.000000
0.100000 -0.075000 0.000000
0.100000 -0.050000 0.000000
0.100000 -0.025000 0.000000
0.100000 0.000000 0.000000
0.130189 0.080715 0.000000
0.074917 0.100756 0.000000
0.063785 0.159662 0.000000
0.054697 0.085322 0.000000
0.070742 0.191737 0.000000
0.073838 0.127332 0.000000
0.094964 0.263544 0.000000
0.111604 0.247809 0.000000
0.079484 0.242853 0.000000
0.045050 0.326010 0.000000
0.075435 0.384047 0.000000
0.053953 0.373943 0.000000
0.081526 0.431581 0.000000
0.083225 0.458709 0.000000
0.084036 0.482620 0.000000
0.072789 0.505070 0.000000
0.048451 0.517024 0.000000
0.086574 0.532653 0.000000
0.171501 0.532428 0.000000
0.201171 0.537521 0.000000
0.158654 0.554477 0.000000
0.175073 0.580245 0.000000
0.259214 0.576896 0.000000
0.261143 0.600000 0.000000
0.125000 -0.075000 0.000000
0.125000 -0.050000 0.000000
0.125000 -0.025000 0.000000
0.125000 0.000000 0.000000
0.116682 0.099303 0.000000
0.097650 0.067130 0.000000
0.089024 0.146964 0.000000
0.128817 0.230557 0.000000
0.091760 0.225241 0.000000
0.137982 0.203783 0.000000
0.144861 0.285522 0.000000
0.085731 0.334751 0.000000
0.078782 0.295021 0.000000
0.099437 0.375153 0.000000
0.084801 0.405619 0.000000
0.062485 0.413506 0.000000
0.130516 0.443084 0.000000
0.108661 0.468126 0.000000
0.132318 0.470865 0.000000
0.111272 0.492966 0.000000
0.096903 0.510889 0.000000
0.129785 0.510774 0.000000
0.155628 0.513570 0.000000
0.217419 0.555290 0.000000
0.231782 0.578561 0.000000
0.185048 0.555789 0.000000
0.287865 0.576664 0.000000
0.281055 0.600000 0.000000
0.150000 -0.075000 0.000000
0.150000 -0.050000 0.000000
0.150000 -0.025000 0.000000
0.150000 0.000000 0.000000
0.149841 0.039278 0.000000
0.145602 0.117514 0.000000
0.094996 0.091253 0.000000
0.056051 0.047094 0.000000
0.085370 0.171581 0.000000
0.088912 0.201593 0.000000
0.111838 0.210182 0.000000
0.158436 0.266601 0.000000
0.118417 0.277479 0.000000
0.101984 0.295233 0.000000
0.143963 0.357405 0.000000
0.105729 0.442027 0.000000
0.113537 0.396890 0.000000
0.111241 0.418545 0.000000
0.140309 0.391186 0.000000
0.151034 0.452048 0.000000
0.166356 0.471067 0.000000
0.145653 0.489880 0.000000
0.189928 0.514646 0.000000
0.213822 0.511368 0.000000
0.230299 0.530914 0.000000
0.243877 0.553644 0.000000
0.300042 0.600000 0.000000
0.319339 0.600000 0.000000
0.175000 -0.075000 0.000000
0.175000 -0.050000 0.000000
0.175000 -0.025000 0.000000
0.175000 0.000000 0.000000
0.168858 0.023227 0.000000
0.149882 0.096285 0.000000
0.131589 0.132929 0.000000
0.100079 0.116439 0.000000
0.111258 0.140155 0.000000
0.112313 0.165933 0.000000
0.152237 0.185032 0.000000
0.170093 0.168694 0.000000
0.157291 0.217930 0.000000
0.156499 0.240231 0.000000
0.167260 0.291114 0.000000
0.111602 0.346073 0.000000
0.157965 0.376513 0.000000
0.187258 0.419169 0.000000
0.137145 0.415549 0.000000
0.176843 0.443199 0.000000
0.219694 0.460905 0.000000
0.191919 0.465369 0.000000
0.173693 0.494767 0.000000
0.198250 0.487099 0.000000
0.239434 0.504562 0.000000
0.255349 0.529736 0.000000
0.345023 0.575875 0.000000
0.338865 0.600000 0.000000
0.200000 -0.075000 0.000000
0.200000 -0.050000 0.000000
0.200000 -0.025000 0.000000
0.200000 0.000000 0.000000
0.156054 0.064062 0.000000
0.129109 0.058534 0.000000
0.199044 0.119270 0.000000
0.066712 0.067517 0.000000
0.197593 0.146573 0.000000
0.118304 0.186222 0.000000
0.259051 0.123744 0.000000
0.271500 0.102927 0.000000
0.177549 0.194561 0.000000
0.182791 0.247850 0.000000
0.145302 0.314265 0.000000
0.124337 0.304254 0.000000
0.105049 0.323823 0.000000
0.132700 0.335088 0.000000
0.120516 0.369201 0.000000
0.159077 0.424007 0.000000
0.202649 0.441076 0.000000
0.224136 0.484957 0.000000
0.264995 0.506067 0.000000
0.293762 0.511285 0.000000
0.281148 0.531483 0.000000
0.271238 0.553989 0.000000
0.373338 0.576613 0.000000
0.357170 0.600000 0.000000
0.225000 -0.075000 0.000000
0.225000 -0.050000 0.000000
0.225000 -0.025000 0.000000
0.225000 0.000000 0.000000
0.188967 0.032721 0.000000
0.170471 0.086215 0.000000
0.157114 0.148941 0.000000
0.138605 0.163659 0.000000
0.210900 0.077975 0.000000
0.203005 0.098035 0.000000
0.260633 0.157598 0.000000
0.216687 0.148283 0.000000
0.194072 0.170048 0.000000
0.218217 0.181497 0.000000
0.189166 0.270093 0.000000
0.188054 0.356311 0.000000
0.165973 0.346569 0.000000
0.182490 0.383409 0.000000
0.169073 0.402428 0.000000
[...]
<PointData>
<DataArray NumberOfComponents='1' type='Int32' Name='ParticleType' format='ascii'>
3
3
3
3
3
3
3
3
3
3
3
3
3
3
3
3
3
3
3
3
3
3
3
3
3
3
3
3
3
3
3
3
3
3
3
3
3
3
3
3
3
3
3
3
3
3
3
3
3
3
3
3
3
3
3
3
3
3
2
2
2
2
2
2
2
2
2
2
2
2
2
2
2
2
2
2
2
2
2
2
2
2
2
2
3
3
2
2
2
2
2
2
2
2
2
2
2
2
2
2
2
2
2
2
2
2
2
2
2
2
2
2
3
3
2
2
0
0
0
0
0
0
0
0
0
0
0
0
0
0
0
0
0
0
0
0
0
0
0
0
3
3
2
2
0
0
0
0
0
0
0
0
0
0
0
0
0
0
0
0
0
0
0
0
0
0
0
0
3
3
2
2
0
0
0
0
0
0
0
0
0
0
0
0
0
0
0
0
0
0
0
0
0
0
0
0
3
3
2
2
0
0
0
0
0
0
0
0
0
0
0
0
0
0
0
0
0
0
0
0
0
0
0
0
3
3
2
2
0
0
0
0
0
0
0
0
0
0
0
0
0
0
0
0
0
0
0
0
0
0
0
0
3
3
2
2
0
0
0
0
0
0
0
0
0
0
0
0
0
0
0
0
0
0
0
0
0
0
0
0
3
3
2
2
0
0
0
0
0
0
0
0
0
0
0
0
0
0
0
0
0
0
0
0
0
0
0
0
3
3
2
2
0
0
0
0
0
0
0
0
0
0
0
0
0
0
0
0
0
0
0
0
0
0
0
0
3
3
2
2
0
0
0
0
0
0
0
0
0
0
0
0
0
0
0
0
0
0
0
0
0
0
0
0
3
3
2
2
0
0
0
0
0
0
0
0
0
0
0
0
0
0
0
0
0
0
0
0
0
0
0
0
3
3
2
2
0
0
0
0
0
0
0
0
0
0
0
0
0
0
0
0
0
0
0
0
0
0
0
0
3
3
2
2
0
0
0
0
0
0
0
0
0
0
0
0
0
0
0
0
0
0
0
0
0
0
0
0
3
3
2
2
0
0
0
0
0
0
0
0
0
0
0
0
0
0
0
0
0
0
0
0
0
0
0
0
3
3
2
2
0
0
0
0
0
0
0
0
0
0
0
0
0
0
0
0
0
0
0
0
0
0
0
0
3
3
2
2
0
0
0
0
0
0
0
0
0
0
0
0
0
0
0
0
0
0
0
0
0
0
0
0
3
3
2
2
0
0
0
0
0
0
0
0
0
0
0
0
0
0
0
0
0
0
0
0
0
0
0
0
3
3
2
2
0
0
0
0
0
0
0
0
0
0
0
0
0
0
0
0
0
0
0
0
0
0
0
0
3
3
2
2
0
0
0
0
0
0
0
0
0
0
0
0
0
0
0
0
0
0
0
0
0
0
0
0
3
3
2
2
0
0
0
0
0
0
0
0
0
0
0
0
0
0
0
0
0
0
0
0
0
0
0
0
3
3
2
2
0
0
0
0
0
0
0
0
0
0
0
0
0
0
0
0
0
0
0
0
0
0
0
0
3
3
2
2
0
0
0
0
0
0
0
0
0
0
0
0
0
0
0
0
0
0
0
0
0
0
0
0
3
3
2
2
0
0
0
0
0
0
0
0
0
0
0
0
0
0
0
0
0
0
0
0
0
0
0
0
3
3
2
2
0
0
0
0
0
0
0
0
0
0
0
0
0
0
0
0
0
0
0
0
0
0
0
0
3
3
2
2
0
0
0
0
0
0
0
0
0
0
0
0
0
0
0
0
0
0
0
0
0
0
0
0
3
3
2
2
0
0
0
0
0
0
0
0
0
0
0
0
0
0
0
0
0
0
0
0
0
0
0
0
3
3
2
2
0
0
0
0
0
0
0
0
0
0
0
0
0
0
0
0
0
0
0
0
0
0
0
0
3
3
2
2
0
0
0
0
0
0
0
0
0
0
0
0
0
0
0
0
0
0
0
0
0
0
0
0
3
3
2
2
0
0
0
0
0
0
0
0
0
0
0
0
0
0
0
0
0
0
0
0
0
0
0
0
3
3
2
2
0
0
0
0
0
0
0
0
0
0
0
0
0
0
0
0
0
0
0
0
0
0
0
0
3
3
2
2
0
0
0
0
0
0
0
0
0
0
0
0
0
0
0
0
0
0
0
0
0
0
0
0
3
3
2
2
0
0
0
0
0
0
0
0
0
0
0
0
0
0
0
0
0
0
0
0
0
0
0
0
3
3
2
2
0
0
0
0
0
0
0
0
0
0
0
0
0
0
0
0
0
0
0
0
0
0
0
0
3
3
2
2
0
0
0
0
0
0
0
0
0
0
0
0
0
0
0
0
0
0
0
0
0
0
0
0
3
3
2
2
0
0
0
0
0
0
0
0
0
0
0
0
0
0
0
0
0
0
0
0
0
0
0
0
3
3
2
2
0
0
0
0
0
0
0
0
0
0
0
0
0
0
0
0
0
0
0
0
0
0
0
0
3
3
2
2
0
0
0
0
0
0
0
0
0
0
0
0
0
0
0
0
0
0
0
0
0
0
0
0
3
3
2
2
0
0
0
0
0
0
0
0
0
0
0
0
0
0
0
0
0
0
0
0
0
0
0
0
3
3
2
2
0
0
0
0
0
0
0
0
0
0
0
0
0
0
0
0
0
0
0
0
0
0
0
0
3
3
2
2
0
0
0
0
0
0
0
0
0
0
0
0
0
0
0
0
0
0
0
0
0
0
0
0
3
3
2
2
0
0
0
0
0
0
0
0
0
0
0
0
0
0
0
0
0
0
0
0
0
0
0
0
3
3
2
2
2
2
2
2
2
2
2
2
2
2
2
2
2
2
2
2
2
2
2
2
2
2
2
2
3
3
2
2
2
2
2
2
2
2
2
2
2
2
2
2
2
2
2
2
2
2
2
2
2
2
2
2
3
3
3
3
3
3
3
3
3
3
3
3
3
3
3
3
3
3
3
3
3
3
3
3
3
3
3
3
3
3
3
3
3
3
3
3
3
3
3
3
3
3
3
3
3
3
3
3
3
3
3
3
3
3
3
3
</DataArray>
<DataArray NumberOfComponents='1' type='Float32' Name='Velocity' format='ascii'>
0.000000
0.000000
0.000000
0.000000
0.000000
0.000000
0.000000
0.000000
0.000000
0.000000
0.000000
0.000000
0.000000
0.000000
0.000000
0.000000
0.000000
0.000000
0.000000
0.000000
0.000000
0.000000
0.000000
0.000000
0.000000
0.000000
0.000000
0.000000
0.000000
0.000000
0.000000
0.000000
0.000000
0.000000
0.000000
0.000000
0.000000
0.000000
0.000000
0.000000
0.000000
0.000000
0.000000
0.000000
0.000000
0.000000
0.000000
0.000000
0.000000
0.000000
0.000000
0.000000
0.000000
0.000000
0.000000
0.000000
0.000000
0.000000
0.000000
0.000000
0.000000
0.000000
0.000000
0.000000
0.000000
0.000000
0.000000
0.000000
0.000000
0.000000
0.000000
0.000000
0.000000
0.000000
0.000000
0.000000
0.000000
0.000000
0.000000
0.000000
0.000000
0.000000
0.000000
0.000000
0.000000
0.000000
0.000000
0.000000
0.000000
0.000000
0.000000
0.000000
0.000000
0.000000
0.000000
0.000000
0.000000
0.000000
0.000000
0.000000
0.000000
0.000000
0.000000
0.000000
0.000000
0.000000
0.000000
0.000000
0.000000
0.000000
0.000000
0.000000
0.000000
0.000000
0.000000
0.000000
0.305851
0.209282
0.046109
0.133872
0.386509
0.146846
0.137364
0.079265
0.044320
0.065429
0.038022
0.092357
0.356232
0.229701
0.332100
0.378853
0.100000
0.100000
0.100000
0.100000
0.100000
0.100000
0.100000
0.100000
0.000000
0.000000
0.000000
0.000000
0.259811
0.283672
0.131746
0.093808
0.091174
0.207832
0.060844
0.145746
0.092132
0.171573
0.079386
0.084893
0.197670
0.157527
0.281697
0.237168
0.229663
0.119507
0.100000
0.100000
0.100000
0.100000
0.100000
0.100000
0.000000
0.000000
0.000000
0.000000
0.123358
0.208971
0.218368
0.124275
0.082518
0.152794
0.116519
0.030604
0.280298
0.061756
0.070940
0.196821
0.247343
0.049900
0.113669
0.062992
0.090416
0.167619
0.206055
0.272284
0.100000
0.100000
0.100000
0.100000
0.000000
0.000000
0.000000
0.000000
0.107093
0.198170
0.231403
0.196380
0.104282
0.248384
0.177748
0.157032
0.067526
0.168675
0.086381
0.184291
0.300118
0.280370
0.153958
0.038088
0.100518
0.279191
0.222464
0.260416
0.179883
0.100000
0.100000
0.100000
0.000000
0.000000
0.000000
0.000000
0.233332
0.069872
0.064394
0.082654
0.282490
0.149437
0.103594
0.156915
0.106615
0.162347
0.260481
0.393716
0.210931
0.273228
0.277119
0.242665
0.162013
0.180593
0.146325
0.048607
0.100000
0.061299
0.100000
0.100000
0.000000
0.000000
0.000000
0.000000
0.051251
0.160673
0.204579
0.231876
0.152929
0.152357
0.093604
0.277770
0.212756
0.206347
0.178492
0.091402
0.395318
0.153190
0.139937
0.064753
0.350315
0.152174
0.202667
0.226071
0.148809
0.104069
0.100000
0.100000
0.000000
0.000000
0.000000
0.000000
0.170961
0.290794
0.104799
0.242882
0.098040
0.253430
0.073333
0.081026
0.333469
0.209169
0.175735
0.436991
0.138971
0.174305
0.243329
0.203621
0.100931
0.293825
0.130459
0.128932
0.273169
0.021995
0.100000
0.100000
0.000000
0.000000
0.000000
0.000000
0.371704
0.338361
0.104087
0.200261
0.077672
0.228592
0.261063
0.180088
0.223478
0.332852
0.091874
0.093053
0.055654
0.318517
0.137246
0.059272
0.167873
0.190100
0.070160
0.117658
0.169702
0.183427
0.100000
0.100000
0.000000
0.000000
0.000000
0.000000
0.245241
0.145851
0.264086
0.131453
0.139913
0.011669
0.205865
0.224726
0.348164
0.144869
0.178132
0.049503
0.095908
0.064997
0.363059
0.089377
0.214527
0.368161
0.120887
0.324316
0.083756
0.125119
0.100000
0.100000
0.000000
0.000000
0.000000
0.000000
0.203187
0.184309
0.093631
0.021207
0.265678
0.130705
0.219295
0.124614
0.248562
0.197244
0.136484
0.080765
0.150348
0.150705
0.211504
0.168177
0.311535
0.316542
0.250708
0.190313
0.252435
0.092517
0.100000
0.100000
0.000000
0.000000
0.000000
0.000000
0.065640
0.171991
0.180340
0.218797
0.111157
0.155084
0.194694
0.204211
0.018563
0.117441
0.194925
0.181299
0.264006
0.120844
0.036384
0.139059
0.166546
0.113096
0.178762
0.135238
0.278015
0.100000
0.118803
0.100000
0.000000
0.000000
0.000000
0.000000
0.120110
0.198543
0.163259
0.228100
0.183277
0.220282
0.051174
0.070982
0.053607
0.172590
0.152030
0.241528
0.156702
0.187990
0.086730
0.139597
0.082858
0.296865
0.109839
0.178724
0.207177
0.300739
0.125295
0.100000
0.000000
0.000000
0.000000
0.000000
0.122992
0.114832
0.074672
0.109247
0.212018
0.234924
0.163568
0.236800
0.134569
0.212759
0.370587
0.028082
0.084298
0.155640
0.243744
0.154215
0.028897
0.149825
0.054395
0.136754
0.032885
0.256952
0.100000
0.100000
0.000000
0.000000
0.000000
0.000000
0.194137
0.275527
0.171992
0.177557
0.041577
0.271786
0.251689
0.253838
0.082607
0.087488
0.376907
0.054191
0.074244
0.207512
0.174784
0.204218
0.116173
0.128099
0.272484
0.200176
0.156559
0.100000
0.131981
0.100000
0.000000
0.000000
0.000000
0.000000
0.223485
0.123493
0.099126
0.097916
0.235294
0.113815
0.064888
0.403555
0.105945
0.337425
0.125485
0.152446
0.069532
0.072878
0.307552
0.060199
0.096140
0.119580
0.227673
0.189321
0.248656
0.223862
0.100000
0.100000
0.000000
0.000000
0.000000
0.000000
0.113933
0.141300
0.104361
0.097040
0.193612
0.087243
0.060424
0.140545
0.138736
0.155797
0.128667
0.114825
0.070651
0.036804
0.159044
0.171968
0.259548
0.177763
0.173588
0.301360
0.190193
0.165074
0.100000
0.100000
0.000000
0.000000
0.000000
0.000000
0.113227
0.028005
0.019003
0.012037
0.022004
0.322748
0.111528
0.028444
0.172039
0.042489
0.306490
0.286007
0.224900
0.246003
0.188145
0.131365
0.118231
0.205147
0.183320
0.129867
0.312053
0.047051
0.069933
0.100000
0.000000
0.000000
0.000000
0.000000
0.100732
0.070384
0.183301
0.109673
0.081318
0.031945
0.105046
0.172238
0.139598
0.232519
0.129760
0.180016
0.200351
0.090327
0.130320
0.270695
0.184169
0.132487
0.198192
0.207153
0.279736
0.182081
0.102197
0.100000
0.000000
0.000000
0.000000
0.000000
0.098787
0.106556
0.246027
0.125768
0.120662
0.160769
0.099007
0.234805
0.154671
0.283039
0.119620
0.147357
0.102722
0.099033
0.314984
0.380381
0.172403
0.124551
0.070399
0.112991
0.217274
0.248238
0.273064
0.100000
0.000000
0.000000
0.000000
0.000000
0.106004
0.114054
0.064930
0.064108
0.048698
0.118453
0.201043
0.061828
0.061816
0.109829
0.096248
0.160492
0.213073
0.285421
0.242683
0.135461
0.225000
0.146671
0.329012
0.263137
0.279953
0.034882
0.100000
0.100000
0.000000
0.000000
0.000000
0.000000
0.157295
0.119623
0.094986
0.155317
0.128682
0.126697
0.062354
0.188344
0.255530
0.097983
0.247780
0.127483
0.090909
0.048718
0.045583
0.160584
0.209913
0.242755
0.233582
0.230537
0.185271
0.184607
0.347843
0.100000
0.000000
0.000000
0.000000
0.000000
0.081066
0.024869
0.117701
0.178936
0.057996
0.204369
0.184419
0.012582
0.211591
0.022076
0.097504
0.216217
0.158072
0.213438
0.150474
0.039392
0.125953
0.126515
0.105399
0.125523
0.204655
0.318785
0.095362
0.100000
0.000000
0.000000
0.000000
0.000000
0.173008
0.106897
0.068166
0.193576
0.044912
0.184195
0.112962
0.054880
0.059796
0.375761
0.084680
0.130085
0.126022
0.097366
0.023501
0.301106
0.187852
0.262328
0.157848
0.140696
0.203484
0.260862
0.135483
0.100000
0.000000
0.000000
0.000000
0.000000
0.133677
0.004194
0.051674
0.160215
0.177078
0.098586
0.196946
0.131693
0.278301
0.252626
0.076756
0.167047
0.097445
0.331916
0.264220
0.240080
0.213695
0.037030
0.032578
0.204971
0.296140
0.253371
0.129686
0.100000
0.000000
0.000000
0.000000
0.000000
0.019265
0.059398
0.168402
0.150282
0.222853
0.106391
0.082271
0.281434
0.115910
0.062536
0.132507
0.142864
0.126801
0.241480
0.061006
0.156494
0.126336
0.110962
0.160701
0.326216
0.077081
0.361160
0.406508
0.100000
0.000000
0.000000
0.000000
0.000000
0.137724
0.092526
0.090363
0.222063
0.114141
0.024721
0.221258
0.185589
0.203114
0.086673
0.141890
0.092317
0.093250
0.104656
0.216040
0.087382
0.151935
0.129134
0.327352
0.289439
0.180158
0.261250
0.100000
0.100000
0.000000
0.000000
0.000000
0.000000
0.096599
0.071495
0.198015
0.069910
0.086509
0.029864
0.156791
0.133377
0.143068
0.210678
0.134065
0.314769
0.177417
0.102825
0.112929
0.028707
0.126020
0.069979
0.197327
0.071208
0.103315
0.101995
0.181185
0.100000
0.000000
0.000000
0.000000
0.000000
0.217619
0.097858
0.108469
0.085757
0.215845
0.140651
0.027564
0.097892
0.171695
0.055850
0.157447
0.106366
0.248241
0.261178
0.142533
0.052812
0.136797
0.330635
0.145508
0.216963
0.011135
0.245373
0.203361
0.100000
0.000000
0.000000
0.000000
0.000000
0.097678
0.056326
0.046940
0.078303
0.144205
0.062322
0.080079
0.289476
0.042049
0.273713
0.043683
0.172425
0.015216
0.077573
0.117276
0.057125
0.158848
0.026479
0.095617
0.136941
0.042005
0.136705
0.100000
0.100000
0.000000
0.000000
0.000000
0.000000
0.109356
0.016466
0.040845
0.209742
0.152946
0.130198
0.141459
0.076452
0.052617
0.212549
0.106541
0.204802
0.241297
0.253481
0.145399
0.194300
0.118867
0.235095
0.341758
0.135187
0.098154
0.246470
0.552254
0.100000
0.000000
0.000000
0.000000
0.000000
0.041249
0.066774
0.137336
0.144750
0.137007
0.353354
0.247969
0.153553
0.121249
0.166271
0.225848
0.262742
0.315918
0.206020
0.168111
0.082658
0.110679
0.166133
0.337797
0.048265
0.120278
0.202942
0.477165
0.100000
0.000000
0.000000
0.000000
0.000000
0.117283
0.079344
0.143294
0.155474
0.143052
0.275161
0.229204
0.029189
0.102272
0.130882
0.292685
0.093872
0.083909
0.102489
0.091328
0.292370
0.176172
0.294290
0.089632
0.072073
0.158180
0.072606
0.312765
0.100000
0.000000
0.000000
0.000000
0.000000
0.097814
0.107645
0.099568
0.061509
0.094814
0.344296
0.202116
0.034408
0.171765
0.064866
0.064221
0.066068
0.101536
0.260643
0.074823
0.077041
0.076184
0.132902
0.189556
0.127239
0.086941
0.225586
0.319647
0.100000
0.000000
0.000000
0.000000
0.000000
0.050550
0.171356
0.104970
0.118746
0.014546
0.195875
0.187779
0.098603
0.234716
0.140641
0.097808
0.014736
0.071262
0.193885
0.247473
0.028571
0.105936
0.143427
0.364276
0.068280
0.155481
0.506275
0.086348
0.100000
0.000000
0.000000
0.000000
0.000000
0.010827
0.115249
0.249668
0.241091
0.233346
0.138305
0.198769
0.253820
0.200362
0.247300
0.123805
0.115555
0.079457
0.133472
0.137936
0.079185
0.095884
0.084981
0.155681
0.233529
0.150602
0.189084
0.388292
0.100000
0.000000
0.000000
0.000000
0.000000
0.058180
0.126909
0.106943
0.050889
0.213027
0.187996
0.240083
0.140583
0.113613
0.243695
0.101540
0.143285
0.120633
0.161556
0.149665
0.142609
0.013209
0.120078
0.059032
0.176332
0.144709
0.297301
0.437225
0.100000
0.000000
0.000000
0.000000
0.000000
0.120572
0.104214
0.278064
0.087427
0.080242
0.187969
0.151241
0.152250
0.064218
0.176840
0.147599
0.223863
0.058242
0.189940
0.153822
0.148974
0.188039
0.322926
0.154038
0.208476
0.151854
0.063223
0.242261
0.100000
0.000000
0.000000
0.000000
0.000000
0.090031
0.174583
0.339956
0.123899
0.123089
0.122541
0.192170
0.163353
0.201724
0.215465
0.217802
0.193184
0.072958
0.068856
0.024761
0.130330
0.045806
0.111235
0.095261
0.119750
0.230570
0.156203
0.181693
0.100000
0.000000
0.000000
0.000000
0.000000
0.129981
0.024347
0.076894
0.009054
0.166173
0.237239
0.088830
0.132963
0.196219
0.040163
0.182369
0.290644
0.171864
0.068959
0.080618
0.144087
0.019708
0.009999
0.067001
0.062937
0.176603
0.560973
0.439703
0.100000
0.000000
0.000000
0.000000
0.000000
0.021668
0.161286
0.080899
0.087907
0.144263
0.106820
0.103701
0.006683
0.059583
0.107793
0.106058
0.110241
0.233377
0.120659
0.103972
0.112010
0.124408
0.287442
0.168511
0.058835
0.468816
0.166375
0.191792
0.100000
0.000000
0.000000
0.000000
0.000000
0.000000
0.000000
0.000000
0.000000
0.000000
0.000000
0.000000
0.000000
0.000000
0.000000
0.000000
0.000000
0.000000
0.000000
0.000000
0.000000
0.000000
0.000000
0.000000
0.000000
0.000000
0.000000
0.000000
0.000000
0.000000
0.000000
0.000000
0.000000
0.000000
0.000000
0.000000
0.000000
0.000000
0.000000
0.000000
0.000000
0.000000
0.000000
0.000000
0.000000
0.000000
0.000000
0.000000
0.000000
0.000000
0.000000
0.000000
0.000000
0.000000
0.000000
0.000000
0.000000
0.000000
0.000000
0.000000
0.000000
0.000000
0.000000
0.000000
0.000000
0.000000
0.000000
0.000000
0.000000
0.000000
0.000000
0.000000
0.000000
0.000000
0.000000
0.000000
0.000000
0.000000
0.000000
0.000000
0.000000
0.000000
0.000000
0.000000
0.000000
0.000000
0.000000
0.000000
0.000000
0.000000
0.000000
0.000000
0.000000
0.000000
0.000000
0.000000
0.000000
0.000000
0.000000
0.000000
0.000000
0.000000
0.000000
0.000000
0.000000
0.000000
0.000000
0.000000
0.000000
0.000000
0.000000
0.000000
0.000000
</DataArray>
<DataArray NumberOfComponents='1' type='Float32' Name='pressure' format='ascii'>
0.000000
0.000000
0.000000
0.000000
0.000000
0.000000
0.000000
0.000000
0.000000
0.000000
0.000000
0.000000
0.000000
0.000000
0.000000
0.000000
0.000000
0.000000
0.000000
0.000000
0.000000
0.000000
0.000000
0.000000
0.000000
0.000000
0.000000
0.000000
0.000000
0.000000
0.000000
0.000000
0.000000
0.000000
0.000000
0.000000
0.000000
0.000000
0.000000
0.000000
0.000000
0.000000
0.000000
0.000000
0.000000
0.000000
0.000000
0.000000
0.000000
0.000000
0.000000
0.000000
0.000000
0.000000
0.000000
0.000000
0.000000
0.000000
39966.644531
39908.597656
40125.792969
38441.125000
39118.851562
37742.300781
37831.769531
38399.558594
39843.800781
40157.281250
39077.171875
39512.625000
38820.515625
39690.171875
40220.355469
40270.140625
40639.984375
41602.355469
42957.167969
44887.769531
45453.859375
47084.984375
46557.390625
43283.164062
35281.703125
0.000000
0.000000
0.000000
39931.125000
40275.695312
40159.445312
37909.617188
39916.109375
38313.585938
37886.472656
37666.187500
39429.972656
39662.476562
39008.160156
39661.863281
38633.535156
39035.929688
40549.042969
39491.035156
39804.234375
40318.199219
42181.964844
45021.449219
45076.285156
47233.707031
48428.816406
47820.359375
46381.070312
0.000000
0.000000
0.000000
39661.496094
39896.433594
39946.953125
38987.382812
40409.324219
39892.511719
37739.742188
39336.914062
38967.914062
39487.605469
38515.226562
39278.207031
40484.285156
41216.980469
46203.667969
49130.449219
49878.242188
54719.250000
63501.601562
60424.628906
48152.359375
54670.097656
49991.230469
36442.074219
0.000000
16124.252930
0.000000
0.000000
39806.710938
39218.191406
38804.933594
39800.687500
40602.441406
39169.421875
40071.410156
38838.757812
39135.664062
39668.777344
38626.238281
39308.636719
38854.539062
39852.589844
41930.511719
42271.894531
44898.507812
55006.136719
50968.933594
42110.175781
60581.898438
46808.949219
34089.808594
54091.625000
27154.466797
15492.210938
0.000000
0.000000
39559.105469
39130.226562
39240.179688
40119.601562
39349.031250
38628.234375
38822.867188
39370.390625
38080.093750
38904.230469
38632.523438
40022.796875
39957.996094
39372.933594
40725.429688
42252.613281
43009.390625
43841.273438
37729.050781
38541.320312
51111.593750
45884.773438
34445.816406
0.000000
0.000000
0.000000
0.000000
0.000000
41133.863281
41498.332031
38886.988281
40114.421875
38761.093750
38689.867188
38691.757812
38928.421875
39009.492188
38599.378906
38252.144531
40085.132812
40556.308594
39420.160156
40838.968750
41062.500000
42211.125000
44003.933594
47959.226562
46721.140625
32618.195312
28908.839844
31205.646484
29852.669922
27408.734375
16342.712891
0.000000
0.000000
41164.019531
40450.417969
38284.210938
38413.101562
38984.656250
38002.804688
38719.605469
38385.421875
38348.996094
38903.527344
39533.859375
39411.703125
39914.250000
39757.886719
38628.492188
41177.492188
38738.722656
41377.917969
43988.175781
39526.941406
37403.101562
25266.150391
25288.589844
27068.447266
29425.521484
20294.833984
0.000000
0.000000
40720.832031
39805.820312
39128.070312
40128.679688
40007.675781
39352.074219
38702.687500
38725.183594
38752.402344
37388.066406
38316.671875
38219.570312
38426.183594
40963.789062
38501.574219
39722.699219
37665.101562
38255.687500
36536.984375
37001.515625
33323.691406
30800.875000
27767.244141
24351.859375
22190.878906
24183.837891
0.000000
0.000000
40266.746094
39877.253906
40021.671875
39098.500000
38352.890625
37161.722656
39714.687500
38730.316406
38716.179688
37916.980469
38032.621094
37867.222656
37051.445312
38033.332031
37139.062500
35058.234375
37939.421875
36489.078125
33005.996094
34611.796875
35345.242188
33261.039062
30009.957031
27958.867188
30905.308594
25471.996094
0.000000
0.000000
39183.535156
38139.085938
39034.910156
40289.386719
38227.289062
38552.050781
38063.363281
38104.308594
38049.121094
38059.347656
37542.214844
37139.230469
37666.648438
38595.296875
38799.171875
38013.796875
39211.847656
37313.320312
35609.746094
31877.876953
28910.574219
28710.642578
28642.656250
25213.830078
30357.501953
25301.816406
0.000000
0.000000
39126.554688
39841.816406
39684.863281
37986.300781
38564.351562
37387.062500
39029.984375
38211.941406
37255.613281
37314.453125
37528.925781
37938.148438
37442.164062
36912.437500
37824.582031
36920.585938
37572.589844
33738.015625
33908.503906
30421.314453
30399.728516
29519.044922
28457.609375
26467.408203
28118.292969
24736.615234
0.000000
0.000000
38853.796875
39591.046875
39330.097656
39238.660156
38771.835938
37100.316406
38712.886719
38081.429688
36451.390625
37668.445312
36520.835938
36933.488281
37311.015625
36913.050781
35323.980469
35852.890625
34750.089844
35247.546875
32038.623047
32860.484375
29951.125000
28367.277344
27807.111328
28971.726562
22803.705078
23653.500000
0.000000
0.000000
38430.019531
39226.199219
39091.933594
38340.527344
38585.218750
38406.277344
38023.613281
37258.023438
36744.058594
37428.972656
36220.562500
36767.339844