<?xml version='1.0' encoding='UTF-8'?>
<VTKFile xmlns='VTK' byte_order='LittleEndian' version='0.1' type='UnstructuredGrid'>
<UnstructuredGrid>
<Piece NumberOfCells='1344' NumberOfPoints='1344'>
<Points>
<DataArray NumberOfComponents='3' type='Float32' Name='Position' format='ascii'>
-0.075000 -0.075000 0.000000
-0.075000 -0.050000 0.000000
-0.075000 -0.025000 0.000000
-0.075000 0.000000 0.000000
-0.075000 0.025000 0.000000
-0.075000 0.050000 0.000000
-0.075000 0.075000 0.000000
-0.075000 0.100000 0.000000
-0.075000 0.125000 0.000000
-0.075000 0.150000 0.000000
-0.075000 0.175000 0.000000
-0.075000 0.200000 0.000000
-0.075000 0.225000 0.000000
-0.075000 0.250000 0.000000
-0.075000 0.275000 0.000000
-0.075000 0.300000 0.000000
-0.075000 0.325000 0.000000
-0.075000 0.350000 0.000000
-0.075000 0.375000 0.000000
-0.075000 0.400000 0.000000
-0.075000 0.425000 0.000000
-0.075000 0.450000 0.000000
-0.075000 0.475000 0.000000
-0.075000 0.500000 0.000000
-0.075000 0.525000 0.000000
-0.075000 0.550000 0.000000
-0.075000 0.575000 0.000000
-0.075000 0.600000 0.000000
-0.050000 -0.075000 0.000000
-0.050000 -0.050000 0.000000
-0.050000 -0.025000 0.000000
-0.050000 0.000000 0.000000
-0.050000 0.025000 0.000000
-0.050000 0.050000 0.000000
-0.050000 0.075000 0.000000
-0.050000 0.100000 0.000000
-0.050000 0.125000 0.000000
-0.050000 0.150000 0.000000
-0.050000 0.175000 0.000000
-0.050000 0.200000 0.000000
-0.050000 0.225000 0.000000
-0.050000 0.250000 0.000000
-0.050000 0.275000 0.000000
-0.050000 0.300000 0.000000
-0.050000 0.325000 0.000000
-0.050000 0.350000 0.000000
-0.050000 0.375000 0.000000
-0.050000 0.400000 0.000000
-0.050000 0.425000 0.000000
-0.050000 0.450000 0.000000
-0.050000 0.475000 0.000000
-0.050000 0.500000 0.000000
-0.050000 0.525000 0.000000
-0.050000 0.550000 0.000000
-0.050000 0.575000 0.000000
-0.050000 0.600000 0.000000
-0.025000 -0.075000 0.000000
-0.025000 -0.050000 0.000000
-0.025000 -0.025000 0.000000
-0.025000 0.000000 0.000000
-0.025000 0.025000 0.000000
-0.025000 0.050000 0.000000
-0.025000 0.075000 0.000000
-0.025000 0.100000 0.000000
-0.025000 0.125000 0.000000
-0.025000 0.150000 0.000000
-0.025000 0.175000 0.000000
-0.025000 0.200000 0.000000
-0.025000 0.225000 0.000000
-0.025000 0.250000 0.000000
-0.025000 0.275000 0.000000
-0.025000 0.300000 0.000000
-0.025000 0.325000 0.000000
-0.025000 0.350000 0.000000
-0.025000 0.375000 0.000000
-0.025000 0.400000 0.000000
-0.025000 0.425000 0.000000
-0.025000 0.450000 0.000000
-0.025000 0.475000 0.000000
-0.025000 0.500000 0.000000
-0.025000 0.525000 0.000000
-0.025000 0.550000 0.000000
-0.025000 0.575000 0.000000
-0.025000 0.600000 0.000000
0.000000 -0.075000 0.000000
0.000000 -0.050000 0.000000
0.000000 -0.025000 0.000000
0.000000 0.000000 0.000000
0.000000 0.025000 0.000000
0.000000 0.050000 0.000000
0.000000 0.075000 0.000000
0.000000 0.100000 0.000000
0.000000 0.125000 0.000000
0.000000 0.150000 0.000000
0.000000 0.175000 0.000000
0.000000 0.200000 0.000000
0.000000 0.225000 0.000000
0.000000 0.250000 0.000000
0.000000 0.275000 0.000000
0.000000 0.300000 0.000000
0.000000 0.325000 0.000000
0.000000 0.350000 0.000000
0.000000 0.375000 0.000000
0.000000 0.400000 0.000000
0.000000 0.425000 0.000000
0.000000 0.450000 0.000000
0.000000 0.475000 0.000000
0.000000 0.500000 0.000000
0.000000 0.525000 0.000000
0.000000 0.550000 0.000000
0.000000 0.575000 0.000000
0.000000 0.600000 0.000000
0.025000 -0.075000 0.000000
0.025000 -0.050000 0.000000
0.025000 -0.025000 0.000000
0.025000 0.000000 0.000000
0.023429 0.025710 0.000000
0.066332 0.023517 0.000000
0.022794 0.058925 0.000000
0.024532 0.117215 0.000000
0.021663 0.186217 0.000000
0.044636 0.226473 0.000000
0.023208 0.223362 0.000000
0.024352 0.250474 0.000000
0.021373 0.286256 0.000000
0.031381 0.309588 0.000000
0.023225 0.358644 0.000000
0.022598 0.388539 0.000000
0.027077 0.419714 0.000000
0.023632 0.443105 0.000000
0.027182 0.468222 0.000000
0.022491 0.491848 0.000000
0.024098 0.522158 0.000000
0.047310 0.533996 0.000000
0.043040 0.558949 0.000000
0.025483 0.578625 0.000000
0.034060 0.600000 0.000000
0.014643 0.600000 0.000000
0.112132 0.600000 0.000000
0.131860 0.600000 0.000000
0.050000 -0.075000 0.000000
0.050000 -0.050000 0.000000
0.050000 -0.025000 0.000000
0.050000 0.000000 0.000000
0.098580 0.023063 0.000000
0.043353 0.029923 0.000000
0.043295 0.067803 0.000000
0.024005 0.088408 0.000000
0.024786 0.142441 0.000000
0.030499 0.164815 0.000000
0.066425 0.203268 0.000000
0.053506 0.249503 0.000000
0.049027 0.295358 0.000000
0.051893 0.330256 0.000000
0.024057 0.332354 0.000000
0.044088 0.377080 0.000000
0.043485 0.403680 0.000000
0.048905 0.433328 0.000000
0.049043 0.459568 0.000000
0.056237 0.485741 0.000000
0.043332 0.505396 0.000000
0.065357 0.519255 0.000000
0.021237 0.549068 0.000000
0.056668 0.578864 0.000000
0.072960 0.600000 0.000000
0.052403 0.600000 0.000000
0.141623 0.577955 0.000000
0.151280 0.600000 0.000000
0.075000 -0.075000 0.000000
0.075000 -0.050000 0.000000
0.075000 -0.025000 0.000000
0.075000 0.000000 0.000000
0.080136 0.041853 0.000000
0.058564 0.053517 0.000000
0.064608 0.083474 0.000000
0.049017 0.128059 0.000000
0.071494 0.165611 0.000000
0.042811 0.201944 0.000000
0.089411 0.200709 0.000000
0.039537 0.267997 0.000000
0.075056 0.242767 0.000000
0.067422 0.282051 0.000000
0.070728 0.313979 0.000000
0.049144 0.351434 0.000000
0.073486 0.364880 0.000000
0.065906 0.392274 0.000000
0.076991 0.414164 0.000000
0.073712 0.435065 0.000000
0.078125 0.488220 0.000000
0.089753 0.509349 0.000000
0.084483 0.536872 0.000000
0.068793 0.555007 0.000000
0.084363 0.576983 0.000000
0.092650 0.600000 0.000000
0.170669 0.600000 0.000000
0.190279 0.600000 0.000000
0.100000 -0.075000 0.000000
0.100000 -0.050000 0.000000
0.100000 -0.025000 0.000000
0.100000 0.000000 0.000000
0.115999 0.038034 0.000000
0.069164 0.118676 0.000000
0.083211 0.139049 0.000000
0.043431 0.099851 0.000000
0.055639 0.181802 0.000000
0.053848 0.151506 0.000000
0.112872 0.227251 0.000000
0.084669 0.224786 0.000000
0.101913 0.249275 0.000000
0.084979 0.269838 0.000000
0.089990 0.293643 0.000000
0.076527 0.342734 0.000000
0.098653 0.367343 0.000000
0.089752 0.389427 0.000000
0.104733 0.417437 0.000000
0.100548 0.439091 0.000000
0.073428 0.459538 0.000000
0.095895 0.469951 0.000000
0.109311 0.527643 0.000000
0.138910 0.535791 0.000000
0.099916 0.554408 0.000000
0.112255 0.577509 0.000000
0.199596 0.577612 0.000000
0.208866 0.600000 0.000000
0.125000 -0.075000 0.000000
0.125000 -0.050000 0.000000
0.125000 -0.025000 0.000000
0.125000 0.000000 0.000000
0.101524 0.055783 0.000000
0.085034 0.076437 0.000000
0.101844 0.126427 0.000000
0.097890 0.178334 0.000000
0.099621 0.157184 0.000000
0.115871 0.196426 0.000000
0.132547 0.211365 0.000000
0.129938 0.244614 0.000000
0.118074 0.267595 0.000000
0.114911 0.292185 0.000000
0.093688 0.319502 0.000000
0.104581 0.340731 0.000000
0.124015 0.366309 0.000000
0.116170 0.391582 0.000000
0.128376 0.412016 0.000000
0.134199 0.438600 0.000000
0.115601 0.455835 0.000000
0.108746 0.492063 0.000000
0.126110 0.511752 0.000000
0.154116 0.556464 0.000000
0.171086 0.576905 0.000000
0.125125 0.555442 0.000000
0.227108 0.576252 0.000000
0.228303 0.600000 0.000000
0.150000 -0.075000 0.000000
0.150000 -0.050000 0.000000
0.150000 -0.025000 0.000000
0.150000 0.000000 0.000000
0.135019 0.023278 0.000000
0.121210 0.070224 0.000000
0.109186 0.090652 0.000000
0.085038 0.100565 0.000000
0.125617 0.152096 0.000000
0.129765 0.174998 0.000000
0.153454 0.195602 0.000000
0.151167 0.227889 0.000000
0.141451 0.266345 0.000000
0.137599 0.295175 0.000000
0.121868 0.318282 0.000000
0.127533 0.340346 0.000000
0.149631 0.369380 0.000000
0.141836 0.390281 0.000000
0.152208 0.425257 0.000000
0.164141 0.448384 0.000000
0.146074 0.463419 0.000000
0.129204 0.481740 0.000000
0.150145 0.512805 0.000000
0.176718 0.512548 0.000000
0.167863 0.535269 0.000000
0.184285 0.555105 0.000000
0.247585 0.600000 0.000000
0.266957 0.600000 0.000000
0.175000 -0.075000 0.000000
0.175000 -0.050000 0.000000
0.175000 -0.025000 0.000000
0.175000 0.000000 0.000000
0.162390 0.026018 0.000000
0.145007 0.045254 0.000000
0.137538 0.084664 0.000000
0.137019 0.132164 0.000000
0.148534 0.103323 0.000000
0.154669 0.149836 0.000000
0.154221 0.174423 0.000000
0.182541 0.169370 0.000000
0.171420 0.219568 0.000000
0.170380 0.243745 0.000000
0.165579 0.268253 0.000000
0.153069 0.315392 0.000000
0.152534 0.341493 0.000000
0.169164 0.384015 0.000000
0.170738 0.412238 0.000000
0.186019 0.431160 0.000000
0.206718 0.449396 0.000000
0.183739 0.463408 0.000000
0.153693 0.486324 0.000000
0.175587 0.486918 0.000000
0.200687 0.506890 0.000000
0.197581 0.532677 0.000000
0.281540 0.575346 0.000000
0.286023 0.600000 0.000000
0.200000 -0.075000 0.000000
0.200000 -0.050000 0.000000
0.200000 -0.025000 0.000000
0.200000 0.000000 0.000000
0.186928 0.024448 0.000000
0.175423 0.050817 0.000000
0.154443 0.065663 0.000000
0.116653 0.113871 0.000000
0.190670 0.114981 0.000000
0.160673 0.124668 0.000000
0.180476 0.140850 0.000000
0.198231 0.154396 0.000000
0.181256 0.194295 0.000000
0.189432 0.270415 0.000000
0.162593 0.293293 0.000000
0.175865 0.322651 0.000000
0.172547 0.353119 0.000000
0.193890 0.345257 0.000000
0.195001 0.373229 0.000000
0.188887 0.396938 0.000000
0.208557 0.425813 0.000000
0.203146 0.476215 0.000000
0.220822 0.496697 0.000000
0.240574 0.511536 0.000000
0.222344 0.528543 0.000000
0.212155 0.553396 0.000000
0.307566 0.575572 0.000000
0.306126 0.600000 0.000000
0.225000 -0.075000 0.000000
0.225000 -0.050000 0.000000
0.225000 -0.025000 0.000000
0.225000 0.000000 0.000000
0.208936 0.025993 0.000000
0.204091 0.051119 0.000000
0.179065 0.072440 0.000000
0.171961 0.097895 0.000000
0.220190 0.103444 0.000000
0.210446 0.126631 0.000000
0.222531 0.163449 0.000000
0.205963 0.185864 0.000000
0.197365 0.210877 0.000000
0.194505 0.245141 0.000000
0.211369 0.285019 0.000000
0.233031 0.294227 0.000000
0.199440 0.317522 0.000000
0.216235 0.342491 0.000000
0.217360 0.374535 0.000000
[...]
<PointData>
<DataArray NumberOfComponents='1' type='Int32' Name='ParticleType' format='ascii'>
3
3
3
3
3
3
3
3
3
3
3
3
3
3
3
3
3
3
3
3
3
3
3
3
3
3
3
3
3
3
3
3
3
3
3
3
3
3
3
3
3
3
3
3
3
3
3
3
3
3
3
3
3
3
3
3
3
3
2
2
2
2
2
2
2
2
2
2
2
2
2
2
2
2
2
2
2
2
2
2
2
2
2
2
3
3
2
2
2
2
2
2
2
2
2
2
2
2
2
2
2
2
2
2
2
2
2
2
2
2
2
2
3
3
2
2
0
0
0
0
0
0
0
0
0
0
0
0
0
0
0
0
0
0
0
0
0
0
0
0
3
3
2
2
0
0
0
0
0
0
0
0
0
0
0
0
0
0
0
0
0
0
0
0
0
0
0
0
3
3
2
2
0
0
0
0
0
0
0
0
0
0
0
0
0
0
0
0
0
0
0
0
0
0
0
0
3
3
2
2
0
0
0
0
0
0
0
0
0
0
0
0
0
0
0
0
0
0
0
0
0
0
0
0
3
3
2
2
0
0
0
0
0
0
0
0
0
0
0
0
0
0
0
0
0
0
0
0
0
0
0
0
3
3
2
2
0
0
0
0
0
0
0
0
0
0
0
0
0
0
0
0
0
0
0
0
0
0
0
0
3
3
2
2
0
0
0
0
0
0
0
0
0
0
0
0
0
0
0
0
0
0
0
0
0
0
0
0
3
3
2
2
0
0
0
0
0
0
0
0
0
0
0
0
0
0
0
0
0
0
0
0
0
0
0
0
3
3
2
2
0
0
0
0
0
0
0
0
0
0
0
0
0
0
0
0
0
0
0
0
0
0
0
0
3
3
2
2
0
0
0
0
0
0
0
0
0
0
0
0
0
0
0
0
0
0
0
0
0
0
0
0
3
3
2
2
0
0
0
0
0
0
0
0
0
0
0
0
0
0
0
0
0
0
0
0
0
0
0
0
3
3
2
2
0
0
0
0
0
0
0
0
0
0
0
0
0
0
0
0
0
0
0
0
0
0
0
0
3
3
2
2
0
0
0
0
0
0
0
0
0
0
0
0
0
0
0
0
0
0
0
0
0
0
0
0
3
3
2
2
0
0
0
0
0
0
0
0
0
0
0
0
0
0
0
0
0
0
0
0
0
0
0
0
3
3
2
2
0
0
0
0
0
0
0
0
0
0
0
0
0
0
0
0
0
0
0
0
0
0
0
0
3
3
2
2
0
0
0
0
0
0
0
0
0
0
0
0
0
0
0
0
0
0
0
0
0
0
0
0
3
3
2
2
0
0
0
0
0
0
0
0
0
0
0
0
0
0
0
0
0
0
0
0
0
0
0
0
3
3
2
2
0
0
0
0
0
0
0
0
0
0
0
0
0
0
0
0
0
0
0
0
0
0
0
0
3
3
2
2
0
0
0
0
0
0
0
0
0
0
0
0
0
0
0
0
0
0
0
0
0
0
0
0
3
3
2
2
0
0
0
0
0
0
0
0
0
0
0
0
0
0
0
0
0
0
0
0
0
0
0
0
3
3
2
2
0
0
0
0
0
0
0
0
0
0
0
0
0
0
0
0
0
0
0
0
0
0
0
0
3
3
2
2
0
0
0
0
0
0
0
0
0
0
0
0
0
0
0
0
0
0
0
0
0
0
0
0
3
3
2
2
0
0
0
0
0
0
0
0
0
0
0
0
0
0
0
0
0
0
0
0
0
0
0
0
3
3
2
2
0
0
0
0
0
0
0
0
0
0
0
0
0
0
0
0
0
0
0
0
0
0
0
0
3
3
2
2
0
0
0
0
0
0
0
0
0
0
0
0
0
0
0
0
0
0
0
0
0
0
0
0
3
3
2
2
0
0
0
0
0
0
0
0
0
0
0
0
0
0
0
0
0
0
0
0
0
0
0
0
3
3
2
2
0
0
0
0
0
0
0
0
0
0
0
0
0
0
0
0
0
0
0
0
0
0
0
0
3
3
2
2
0
0
0
0
0
0
0
0
0
0
0
0
0
0
0
0
0
0
0
0
0
0
0
0
3
3
2
2
0
0
0
0
0
0
0
0
0
0
0
0
0
0
0
0
0
0
0
0
0
0
0
0
3
3
2
2
0
0
0
0
0
0
0
0
0
0
0
0
0
0
0
0
0
0
0
0
0
0
0
0
3
3
2
2
0
0
0
0
0
0
0
0
0
0
0
0
0
0
0
0
0
0
0
0
0
0
0
0
3
3
2
2
0
0
0
0
0
0
0
0
0
0
0
0
0
0
0
0
0
0
0
0
0
0
0
0
3
3
2
2
0
0
0
0
0
0
0
0
0
0
0
0
0
0
0
0
0
0
0
0
0
0
0
0
3
3
2
2
0
0
0
0
0
0
0
0
0
0
0
0
0
0
0
0
0
0
0
0
0
0
0
0
3
3
2
2
0
0
0
0
0
0
0
0
0
0
0
0
0
0
0
0
0
0
0
0
0
0
0
0
3
3
2
2
0
0
0
0
0
0
0
0
0
0
0
0
0
0
0
0
0
0
0
0
0
0
0
0
3
3
2
2
0
0
0
0
0
0
0
0
0
0
0
0
0
0
0
0
0
0
0
0
0
0
0
0
3
3
2
2
0
0
0
0
0
0
0
0
0
0
0
0
0
0
0
0
0
0
0
0
0
0
0
0
3
3
2
2
0
0
0
0
0
0
0
0
0
0
0
0
0
0
0
0
0
0
0
0
0
0
0
0
3
3
2
2
0
0
0
0
0
0
0
0
0
0
0
0
0
0
0
0
0
0
0
0
0
0
0
0
3
3
2
2
2
2
2
2
2
2
2
2
2
2
2
2
2
2
2
2
2
2
2
2
2
2
2
2
3
3
2
2
2
2
2
2
2
2
2
2
2
2
2
2
2
2
2
2
2
2
2
2
2
2
2
2
3
3
3
3
3
3
3
3
3
3
3
3
3
3
3
3
3
3
3
3
3
3
3
3
3
3
3
3
3
3
3
3
3
3
3
3
3
3
3
3
3
3
3
3
3
3
3
3
3
3
3
3
3
3
3
3
</DataArray>
<DataArray NumberOfComponents='1' type='Float32' Name='Velocity' format='ascii'>
0.000000
0.000000
0.000000
0.000000
0.000000
0.000000
0.000000
0.000000
0.000000
0.000000
0.000000
0.000000
0.000000
0.000000
0.000000
0.000000
0.000000
0.000000
0.000000
0.000000
0.000000
0.000000
0.000000
0.000000
0.000000
0.000000
0.000000
0.000000
0.000000
0.000000
0.000000
0.000000
0.000000
0.000000
0.000000
0.000000
0.000000
0.000000
0.000000
0.000000
0.000000
0.000000
0.000000
0.000000
0.000000
0.000000
0.000000
0.000000
0.000000
0.000000
0.000000
0.000000
0.000000
0.000000
0.000000
0.000000
0.000000
0.000000
0.000000
0.000000
0.000000
0.000000
0.000000
0.000000
0.000000
0.000000
0.000000
0.000000
0.000000
0.000000
0.000000
0.000000
0.000000
0.000000
0.000000
0.000000
0.000000
0.000000
0.000000
0.000000
0.000000
0.000000
0.000000
0.000000
0.000000
0.000000
0.000000
0.000000
0.000000
0.000000
0.000000
0.000000
0.000000
0.000000
0.000000
0.000000
0.000000
0.000000
0.000000
0.000000
0.000000
0.000000
0.000000
0.000000
0.000000
0.000000
0.000000
0.000000
0.000000
0.000000
0.000000
0.000000
0.000000
0.000000
0.000000
0.000000
0.081325
0.017184
0.105408
0.284905
0.045804
0.233970
0.196370
0.429750
0.034553
0.174640
0.127781
0.022789
0.191748
0.093638
0.369386
0.435277
0.497495
0.474974
0.614763
0.100000
0.100000
0.100000
0.100000
0.100000
0.000000
0.000000
0.000000
0.000000
0.118495
0.081705
0.078053
0.022120
0.191384
0.159455
0.142977
0.386327
0.169264
0.175383
0.304952
0.391871
0.134215
0.091249
0.379628
0.346492
0.345992
0.180881
0.410934
0.100000
0.100000
0.100000
0.100000
0.100000
0.000000
0.000000
0.000000
0.000000
0.112209
0.068756
0.209456
0.189390
0.042647
0.091468
0.099357
0.314505
0.050525
0.229335
0.123381
0.133210
0.125450
0.248290
0.276035
0.340922
0.094801
0.172817
0.364966
0.540531
0.100000
0.100000
0.100000
0.100000
0.000000
0.000000
0.000000
0.000000
0.009520
0.111698
0.107420
0.152381
0.188006
0.097170
0.195858
0.080390
0.135364
0.245316
0.110643
0.332925
0.133333
0.124736
0.227800
0.274131
0.464982
0.049020
0.324217
0.389212
0.378769
0.100000
0.100000
0.100000
0.000000
0.000000
0.000000
0.000000
0.204812
0.148228
0.010444
0.118945
0.134331
0.095591
0.096806
0.296342
0.010101
0.233327
0.169590
0.178150
0.129934
0.287258
0.038814
0.122685
0.149963
0.312184
0.358381
0.282124
0.100000
0.396479
0.100000
0.100000
0.000000
0.000000
0.000000
0.000000
0.135058
0.249269
0.302828
0.021417
0.345623
0.108183
0.140871
0.085165
0.188612
0.036883
0.093649
0.077963
0.267962
0.136420
0.115717
0.047506
0.096228
0.105530
0.238197
0.044552
0.236026
0.364634
0.100000
0.100000
0.000000
0.000000
0.000000
0.000000
0.016886
0.071786
0.206387
0.174317
0.227727
0.136390
0.136767
0.224565
0.064278
0.051842
0.092080
0.299486
0.337940
0.161425
0.293216
0.169830
0.156592
0.168483
0.014538
0.070440
0.189528
0.266862
0.100000
0.100000
0.000000
0.000000
0.000000
0.000000
0.098284
0.188393
0.120006
0.068144
0.140468
0.181832
0.018637
0.085321
0.114339
0.299129
0.133210
0.120290
0.092720
0.208995
0.054808
0.147835
0.025243
0.216704
0.239013
0.091351
0.155300
0.212726
0.100000
0.100000
0.000000
0.000000
0.000000
0.000000
0.086986
0.035793
0.229892
0.136011
0.281526
0.267791
0.214807
0.195467
0.061691
0.090488
0.326933
0.193439
0.141909
0.121868
0.115724
0.065772
0.127666
0.239188
0.116732
0.378169
0.223580
0.406805
0.100000
0.100000
0.000000
0.000000
0.000000
0.000000
0.144984
0.288910
0.039852
0.240434
0.058653
0.156226
0.111335
0.239778
0.185316
0.097016
0.094180
0.248294
0.093406
0.088918
0.233383
0.101224
0.047947
0.083741
0.029573
0.046823
0.278560
0.337673
0.100000
0.100000
0.000000
0.000000
0.000000
0.000000
0.178318
0.104106
0.137642
0.164180
0.151122
0.214899
0.030277
0.184604
0.079780
0.213496
0.282690
0.238830
0.469433
0.156190
0.251357
0.197909
0.140872
0.212716
0.131278
0.306241
0.192885
0.100000
0.100000
0.100000
0.000000
0.000000
0.000000
0.000000
0.143185
0.178720
0.219798
0.019456
0.165290
0.133174
0.325670
0.035726
0.183591
0.167090
0.131131
0.277507
0.159034
0.115141
0.215061
0.236277
0.147847
0.188877
0.064716
0.383898
0.391931
0.432317
0.100000
0.100000
0.000000
0.000000
0.000000
0.000000
0.056809
0.103454
0.120199
0.084684
0.149518
0.116883
0.293536
0.153923
0.127283
0.107798
0.062807
0.135896
0.136614
0.179587
0.168985
0.120851
0.193494
0.265112
0.062655
0.323937
0.729108
0.616429
0.100000
0.100000
0.000000
0.000000
0.000000
0.000000
0.040628
0.169604
0.082167
0.122383
0.111415
0.188584
0.256918
0.290724
0.093562
0.207777
0.234449
0.040574
0.097674
0.168346
0.065834
0.170614
0.190874
0.238937
0.151685
0.138606
0.298098
0.435620
0.100000
0.100000
0.000000
0.000000
0.000000
0.000000
0.279706
0.159521
0.081288
0.110516
0.115458
0.042308
0.116222
0.212548
0.229836
0.104254
0.244011
0.040453
0.020792
0.224542
0.132956
0.420061
0.230147
0.290246
0.311695
0.142980
0.073397
0.116536
0.100000
0.100000
0.000000
0.000000
0.000000
0.000000
0.079487
0.124361
0.018287
0.060371
0.048376
0.261188
0.179591
0.232855
0.137047
0.148600
0.107852
0.016015
0.143447
0.179364
0.133120
0.173804
0.297140
0.169268
0.171515
0.256162
0.111313
0.201131
0.100000
0.100000
0.000000
0.000000
0.000000
0.000000
0.104570
0.111768
0.107863
0.093588
0.090786
0.181701
0.109162
0.093871
0.105954
0.327542
0.113417
0.130778
0.169906
0.200506
0.263227
0.020546
0.151167
0.132899
0.115021
0.269972
0.249344
0.100000
0.100000
0.100000
0.000000
0.000000
0.000000
0.000000
0.053569
0.041320
0.093003
0.054089
0.197054
0.203900
0.077683
0.100131
0.077399
0.147822
0.332753
0.078587
0.102896
0.204342
0.115007
0.114930
0.251181
0.177976
0.200294
0.386807
0.472728
0.389761
0.100000
0.100000
0.000000
0.000000
0.000000
0.000000
0.026841
0.081104
0.054282
0.145763
0.102231
0.127168
0.142915
0.172816
0.302395
0.326343
0.197585
0.177914
0.154038
0.049450
0.043283
0.243353
0.093034
0.240946
0.301403
0.121781
0.111019
0.330098
0.100000
0.100000
0.000000
0.000000
0.000000
0.000000
0.088431
0.020811
0.090242
0.051061
0.139638
0.093797
0.097053
0.087721
0.072189
0.127697
0.109033
0.147486
0.171625
0.179044
0.260009
0.100597
0.246680
0.195437
0.086406
0.268453
0.262035
0.100000
0.100000
0.100000
0.000000
0.000000
0.000000
0.000000
0.058036
0.070407
0.035820
0.256909
0.147273
0.131734
0.136839
0.089317
0.211654
0.305531
0.023646
0.210313
0.086362
0.212417
0.213582
0.076901
0.402600
0.115557
0.188937
0.059922
0.166291
0.071113
0.100000
0.100000
0.000000
0.000000
0.000000
0.000000
0.130233
0.083017
0.031951
0.126887
0.136166
0.130536
0.029647
0.051069
0.107451
0.093823
0.058990
0.189287
0.135946
0.320032
0.127278
0.171802
0.302044
0.187186
0.160199
0.092501
0.128667
0.455410
0.100000
0.100000
0.000000
0.000000
0.000000
0.000000
0.026909
0.061439
0.073054
0.338951
0.124462
0.196854
0.123807
0.121335
0.130094
0.319575
0.179639
0.146278
0.235706
0.343995
0.186451
0.211487
0.157649
0.168762
0.122539
0.044781
0.192043
0.136137
0.100000
0.100000
0.000000
0.000000
0.000000
0.000000
0.129700
0.133485
0.157237
0.211416
0.083179
0.105037
0.312796
0.162481
0.042405
0.220710
0.197178
0.205439
0.051760
0.190184
0.086456
0.112405
0.032699
0.059658
0.128253
0.124229
0.061325
0.030614
0.100000
0.100000
0.000000
0.000000
0.000000
0.000000
0.069205
0.010924
0.227581
0.143981
0.047918
0.058542
0.101498
0.013075
0.123643
0.022396
0.072491
0.073093
0.120718
0.179867
0.112392
0.305906
0.121178
0.233554
0.070695
0.178587
0.192560
0.237362
0.205884
0.100000
0.000000
0.000000
0.000000
0.000000
0.155401
0.057123
0.131488
0.043780
0.202073
0.172628
0.084050
0.294511
0.175642
0.089348
0.270664
0.083850
0.246462
0.246076
0.058695
0.131517
0.016982
0.051229
0.303016
0.059124
0.235651
0.157969
0.100000
0.100000
0.000000
0.000000
0.000000
0.000000
0.124925
0.186897
0.141238
0.063821
0.074798
0.120377
0.135977
0.100359
0.227787
0.021786
0.215909
0.139565
0.143998
0.143000
0.209251
0.059062
0.416522
0.359293
0.105375
0.150253
0.117616
0.148512
0.100000
0.100000
0.000000
0.000000
0.000000
0.000000
0.040146
0.103398
0.218539
0.149685
0.058917
0.033068
0.251461
0.141410
0.063962
0.070497
0.173284
0.113359
0.096190
0.226166
0.112908
0.063464
0.242678
0.161766
0.343632
0.144677
0.242126
0.141791
0.052349
0.100000
0.000000
0.000000
0.000000
0.000000
0.178137
0.106169
0.070227
0.320534
0.067722
0.081769
0.112546
0.287140
0.079887
0.048770
0.063423
0.134563
0.070141
0.146580
0.131406
0.181638
0.269191
0.288394
0.234138
0.154983
0.100035
0.213899
0.100000
0.100000
0.000000
0.000000
0.000000
0.000000
0.132613
0.114097
0.268521
0.065528
0.077256
0.135285
0.189914
0.059032
0.085715
0.221980
0.103176
0.049063
0.117592
0.074124
0.209181
0.144351
0.300512
0.395299
0.423602
0.355419
0.067825
0.071355
0.030153
0.100000
0.000000
0.000000
0.000000
0.000000
0.161232
0.108868
0.244459
0.292120
0.061058
0.031155
0.060387
0.128565
0.348337
0.155339
0.198859
0.131597
0.005948
0.378346
0.222137
0.075471
0.230105
0.233260
0.348879
0.260785
0.143212
0.100000
0.314102
0.100000
0.000000
0.000000
0.000000
0.000000
0.153249
0.190971
0.206751
0.098321
0.037880
0.142051
0.061774
0.133184
0.171635
0.138440
0.055294
0.146148
0.025117
0.153917
0.094380
0.192656
0.059310
0.302403
0.113411
0.329940
0.191731
0.036304
0.396251
0.100000
0.000000
0.000000
0.000000
0.000000
0.040441
0.305036
0.042123
0.155511
0.142406
0.153860
0.266008
0.138239
0.443837
0.218129
0.134419
0.201722
0.114449
0.357652
0.090813
0.189786
0.126601
0.062849
0.249365
0.251264
0.228628
0.318103
0.239011
0.100000
0.000000
0.000000
0.000000
0.000000
0.030176
0.252905
0.086998
0.184914
0.283761
0.145014
0.250715
0.231988
0.097636
0.281381
0.038795
0.064332
0.298113
0.337394
0.120394
0.149102
0.102449
0.338735
0.267736
0.023079
0.183347
0.150341
0.259452
0.100000
0.000000
0.000000
0.000000
0.000000
0.074958
0.139394
0.114108
0.145373
0.170184
0.068756
0.445532
0.331703
0.288093
0.369201
0.206002
0.264636
0.192972
0.126149
0.367281
0.096136
0.062062
0.212295
0.191874
0.316214
0.311634
0.435742
0.398430
0.100000
0.000000
0.000000
0.000000
0.000000
0.040920
0.192199
0.170889
0.361576
0.271007
0.016171
0.167050
0.199536
0.216655
0.201702
0.281669
0.164870
0.118746
0.339880
0.263551
0.212931
0.159699
0.191830
0.139225
0.133961
0.218860
0.243630
0.240132
0.100000
0.000000
0.000000
0.000000
0.000000
0.160870
0.157837
0.133000
0.106577
0.340965
0.242684
0.231939
0.181704
0.227805
0.339008
0.297126
0.122781
0.097771
0.160376
0.045338
0.165425
0.131918
0.067708
0.196220
0.173231
0.193396
0.323268
0.172895
0.100000
0.000000
0.000000
0.000000
0.000000
0.107261
0.254901
0.125648
0.175307
0.118529
0.233157
0.222474
0.146090
0.139620
0.188834
0.302173
0.077572
0.337461
0.187543
0.338946
0.112546
0.172115
0.185583
0.104500
0.186537
0.327987
0.294814
0.319133
0.100000
0.000000
0.000000
0.000000
0.000000
0.103703
0.216695
0.136037
0.132933
0.054290
0.375883
0.149690
0.055652
0.318781
0.068084
0.155711
0.116361
0.030533
0.154679
0.129861
0.042002
0.149933
0.296870
0.201653
0.085981
0.200485
0.135798
0.139942
0.100000
0.000000
0.000000
0.000000
0.000000
0.097925
0.060732
0.023144
0.082400
0.078676
0.038969
0.170711
0.128442
0.290731
0.198201
0.087032
0.053538
0.152708
0.061365
0.066707
0.073632
0.184267
0.411372
0.148610
0.128247
0.266039
0.247616
0.204237
0.100000
0.000000
0.000000
0.000000
0.000000
0.000000
0.000000
0.000000
0.000000
0.000000
0.000000
0.000000
0.000000
0.000000
0.000000
0.000000
0.000000
0.000000
0.000000
0.000000
0.000000
0.000000
0.000000
0.000000
0.000000
0.000000
0.000000
0.000000
0.000000
0.000000
0.000000
0.000000
0.000000
0.000000
0.000000
0.000000
0.000000
0.000000
0.000000
0.000000
0.000000
0.000000
0.000000
0.000000
0.000000
0.000000
0.000000
0.000000
0.000000
0.000000
0.000000
0.000000
0.000000
0.000000
0.000000
0.000000
0.000000
0.000000
0.000000
0.000000
0.000000
0.000000
0.000000
0.000000
0.000000
0.000000
0.000000
0.000000
0.000000
0.000000
0.000000
0.000000
0.000000
0.000000
0.000000
0.000000
0.000000
0.000000
0.000000
0.000000
0.000000
0.000000
0.000000
0.000000
0.000000
0.000000
0.000000
0.000000
0.000000
0.000000
0.000000
0.000000
0.000000
0.000000
0.000000
0.000000
0.000000
0.000000
0.000000
0.000000
0.000000
0.000000
0.000000
0.000000
0.000000
0.000000
0.000000
0.000000
0.000000
0.000000
0.000000
0.000000
0.000000
</DataArray>
<DataArray NumberOfComponents='1' type='Float32' Name='pressure' format='ascii'>
0.000000
0.000000
0.000000
0.000000
0.000000
0.000000
0.000000
0.000000
0.000000
0.000000
0.000000
0.000000
0.000000
0.000000
0.000000
0.000000
0.000000
0.000000
0.000000
0.000000
0.000000
0.000000
0.000000
0.000000
0.000000
0.000000
0.000000
0.000000
0.000000
0.000000
0.000000
0.000000
0.000000
0.000000
0.000000
0.000000
0.000000
0.000000
0.000000
0.000000
0.000000
0.000000
0.000000
0.000000
0.000000
0.000000
0.000000
0.000000
0.000000
0.000000
0.000000
0.000000
0.000000
0.000000
0.000000
0.000000
0.000000
0.000000
107872.085938
107995.210938
108455.578125
108004.531250
107447.617188
106559.242188
106289.164062
105976.382812
106584.304688
106225.226562
106307.187500
105715.500000
105815.117188
104920.546875
103790.976562
103380.953125
102600.484375
100911.195312
98312.539062
96933.945312
93348.875000
89056.046875
80762.593750
67588.218750
47779.894531
0.000000
0.000000
0.000000
107698.960938
108114.273438
108765.765625
106879.578125
106829.289062
106561.648438
106462.148438
105831.296875
105630.835938
104290.062500
106146.890625
105432.273438
104900.945312
103643.968750
102923.531250
103329.375000
101986.742188
100300.695312
98643.554688
98266.570312
94105.492188
91491.390625
84837.351562
74235.890625
58503.722656
0.000000
0.000000
0.000000
107233.656250
107573.726562
107799.117188
108196.171875
105744.585938
106450.429688
105600.601562
106151.101562
105228.445312
103824.710938
104975.960938
104405.875000
102501.546875
102276.992188
101084.453125
100057.109375
97542.523438
94329.859375
89000.335938
92514.375000
86036.789062
67962.148438
0.000000
41307.058594
120686.890625
124497.023438
0.000000
0.000000
107038.421875
105965.601562
107027.843750
107896.226562
107758.804688
107046.515625
105972.390625
106304.078125
105706.382812
104835.539062
104185.109375
104782.789062
102621.828125
102583.406250
101964.289062
99671.414062
100185.179688
98827.296875
95273.406250
99370.304688
78461.468750
93415.382812
98106.273438
73182.976562
134373.359375
127506.789062
0.000000
0.000000
108014.992188
107924.515625
108001.992188
106474.546875
106547.414062
107075.968750
106317.703125
105411.375000
106304.265625
105171.515625
105287.140625
105835.695312
104542.039062
104125.203125
104172.171875
104173.617188
103007.953125
104075.601562
102699.843750
105629.539062
106520.882812
99119.007812
114451.500000
112211.195312
130422.273438
130598.031250
0.000000
0.000000
108742.125000
108908.859375
107553.734375
106788.875000
107273.515625
105825.148438
106258.007812
105533.304688
105791.085938
105871.367188
106476.945312
105379.179688
105003.351562
103467.585938
104263.328125
104792.695312
105599.117188
104224.648438
102285.507812
105806.828125
111200.828125
118870.585938
114572.937500
127922.132812
133731.312500
127604.117188
0.000000
0.000000
108248.882812
108016.742188
107529.703125
107026.656250
106374.812500
106656.460938
106647.265625
106351.125000
106713.539062
105696.515625
106183.148438
105835.929688
105519.453125
105540.968750
105694.281250
105629.437500
106397.007812
106825.617188
107270.859375
107967.867188
111623.445312
126688.406250
135961.593750
122471.148438
125580.664062
119209.890625
0.000000
0.000000
107586.078125
107400.742188
108070.273438
107639.062500
107300.515625
107230.500000
106432.992188
106048.789062
106058.296875
106787.695312
105593.929688
106175.351562
104737.648438
106529.164062
106395.703125
106184.140625
107792.382812
109335.328125
109054.507812
109565.242188
115826.914062
116451.835938
121544.179688
125745.117188
109419.148438
101003.703125
0.000000
0.000000
107324.476562
107912.265625
107740.054688
107753.648438
107422.929688
106712.367188
107049.492188
106804.601562
107312.492188
106347.796875
106390.820312
106370.164062
106763.390625
106631.476562
105350.453125
106462.695312
108066.054688
107701.421875
110083.390625
110254.609375
113046.984375
112896.453125
114142.867188
118966.664062
102626.992188
91350.382812
0.000000
0.000000
107374.429688
107831.554688
107944.742188
107289.968750
107223.625000
107404.664062
107110.117188
107451.070312
106184.390625
107808.875000
106757.679688
106731.984375
106418.781250
105895.460938
107322.000000
107487.437500
106844.289062
108651.640625
108154.140625
111141.742188
112352.976562
111876.375000
114313.296875
120987.656250
89948.429688
75319.460938
0.000000
0.000000
107294.875000
107357.867188
107960.343750
107028.398438
107655.109375
107074.609375
107515.140625
106816.992188
106693.671875
106386.664062
106826.992188
106714.359375
106409.742188
107684.984375
107484.257812
106547.015625
107633.625000
107766.289062
108947.109375
110089.914062
108932.765625
108681.671875
106859.531250
114349.812500
85292.781250
0.000000
0.000000
0.000000
107374.164062
107600.632812
107997.890625
107434.609375
107429.523438
107042.757812
107173.226562
106269.203125
107172.203125
106592.085938
107723.429688
106389.562500
107027.382812
106209.671875
106845.046875
106928.640625
107719.132812
108043.906250