<?xml version='1.0' encoding='UTF-8'?>
<VTKFile xmlns='VTK' byte_order='LittleEndian' version='0.1' type='UnstructuredGrid'>
<UnstructuredGrid>
<Piece NumberOfCells='1344' NumberOfPoints='1344'>
<Points>
<DataArray NumberOfComponents='3' type='Float32' Name='Position' format='ascii'>
-0.075000 -0.075000 0.000000
-0.075000 -0.050000 0.000000
-0.075000 -0.025000 0.000000
-0.075000 0.000000 0.000000
-0.075000 0.025000 0.000000
-0.075000 0.050000 0.000000
-0.075000 0.075000 0.000000
-0.075000 0.100000 0.000000
-0.075000 0.125000 0.000000
-0.075000 0.150000 0.000000
-0.075000 0.175000 0.000000
-0.075000 0.200000 0.000000
-0.075000 0.225000 0.000000
-0.075000 0.250000 0.000000
-0.075000 0.275000 0.000000
-0.075000 0.300000 0.000000
-0.075000 0.325000 0.000000
-0.075000 0.350000 0.000000
-0.075000 0.375000 0.000000
-0.075000 0.400000 0.000000
-0.075000 0.425000 0.000000
-0.075000 0.450000 0.000000
-0.075000 0.475000 0.000000
-0.075000 0.500000 0.000000
-0.075000 0.525000 0.000000
-0.075000 0.550000 0.000000
-0.075000 0.575000 0.000000
-0.075000 0.600000 0.000000
-0.050000 -0.075000 0.000000
-0.050000 -0.050000 0.000000
-0.050000 -0.025000 0.000000
-0.050000 0.000000 0.000000
-0.050000 0.025000 0.000000
-0.050000 0.050000 0.000000
-0.050000 0.075000 0.000000
-0.050000 0.100000 0.000000
-0.050000 0.125000 0.000000
-0.050000 0.150000 0.000000
-0.050000 0.175000 0.000000
-0.050000 0.200000 0.000000
-0.050000 0.225000 0.000000
-0.050000 0.250000 0.000000
-0.050000 0.275000 0.000000
-0.050000 0.300000 0.000000
-0.050000 0.325000 0.000000
-0.050000 0.350000 0.000000
-0.050000 0.375000 0.000000
-0.050000 0.400000 0.000000
-0.050000 0.425000 0.000000
-0.050000 0.450000 0.000000
-0.050000 0.475000 0.000000
-0.050000 0.500000 0.000000
-0.050000 0.525000 0.000000
-0.050000 0.550000 0.000000
-0.050000 0.575000 0.000000
-0.050000 0.600000 0.000000
-0.025000 -0.075000 0.000000
-0.025000 -0.050000 0.000000
-0.025000 -0.025000 0.000000
-0.025000 0.000000 0.000000
-0.025000 0.025000 0.000000
-0.025000 0.050000 0.000000
-0.025000 0.075000 0.000000
-0.025000 0.100000 0.000000
-0.025000 0.125000 0.000000
-0.025000 0.150000 0.000000
-0.025000 0.175000 0.000000
-0.025000 0.200000 0.000000
-0.025000 0.225000 0.000000
-0.025000 0.250000 0.000000
-0.025000 0.275000 0.000000
-0.025000 0.300000 0.000000
-0.025000 0.325000 0.000000
-0.025000 0.350000 0.000000
-0.025000 0.375000 0.000000
-0.025000 0.400000 0.000000
-0.025000 0.425000 0.000000
-0.025000 0.450000 0.000000
-0.025000 0.475000 0.000000
-0.025000 0.500000 0.000000
-0.025000 0.525000 0.000000
-0.025000 0.550000 0.000000
-0.025000 0.575000 0.000000
-0.025000 0.600000 0.000000
0.000000 -0.075000 0.000000
0.000000 -0.050000 0.000000
0.000000 -0.025000 0.000000
0.000000 0.000000 0.000000
0.000000 0.025000 0.000000
0.000000 0.050000 0.000000
0.000000 0.075000 0.000000
0.000000 0.100000 0.000000
0.000000 0.125000 0.000000
0.000000 0.150000 0.000000
0.000000 0.175000 0.000000
0.000000 0.200000 0.000000
0.000000 0.225000 0.000000
0.000000 0.250000 0.000000
0.000000 0.275000 0.000000
0.000000 0.300000 0.000000
0.000000 0.325000 0.000000
0.000000 0.350000 0.000000
0.000000 0.375000 0.000000
0.000000 0.400000 0.000000
0.000000 0.425000 0.000000
0.000000 0.450000 0.000000
0.000000 0.475000 0.000000
0.000000 0.500000 0.000000
0.000000 0.525000 0.000000
0.000000 0.550000 0.000000
0.000000 0.575000 0.000000
0.000000 0.600000 0.000000
0.025000 -0.075000 0.000000
0.025000 -0.050000 0.000000
0.025000 -0.025000 0.000000
0.025000 0.000000 0.000000
0.025312 0.023598 0.000000
0.041888 0.039429 0.000000
0.022172 0.057471 0.000000
0.026223 0.112372 0.000000
0.023001 0.189430 0.000000
0.030378 0.214207 0.000000
0.025521 0.233815 0.000000
0.023110 0.259077 0.000000
0.025648 0.288556 0.000000
0.025862 0.311505 0.000000
0.023255 0.335753 0.000000
0.026519 0.360181 0.000000
0.024849 0.383616 0.000000
0.027699 0.407037 0.000000
0.024643 0.430265 0.000000
0.023722 0.455840 0.000000
0.028198 0.479076 0.000000
0.024448 0.501701 0.000000
0.022998 0.553709 0.000000
0.026991 0.578528 0.000000
0.035685 0.600000 0.000000
0.015093 0.600000 0.000000
0.094115 0.600000 0.000000
0.113414 0.600000 0.000000
0.050000 -0.075000 0.000000
0.050000 -0.050000 0.000000
0.050000 -0.025000 0.000000
0.050000 0.000000 0.000000
0.061665 0.021040 0.000000
0.060068 0.052959 0.000000
0.041550 0.070089 0.000000
0.023764 0.090065 0.000000
0.022556 0.141630 0.000000
0.029542 0.164712 0.000000
0.047259 0.186673 0.000000
0.054260 0.221666 0.000000
0.045087 0.271835 0.000000
0.052883 0.296365 0.000000
0.053622 0.319190 0.000000
0.052038 0.343771 0.000000
0.052616 0.365534 0.000000
0.050029 0.397393 0.000000
0.052540 0.423308 0.000000
0.049743 0.450752 0.000000
0.056401 0.469550 0.000000
0.051082 0.495994 0.000000
0.024966 0.525513 0.000000
0.048437 0.561745 0.000000
0.065045 0.580882 0.000000
0.054746 0.600000 0.000000
0.121140 0.578237 0.000000
0.133578 0.600000 0.000000
0.075000 -0.075000 0.000000
0.075000 -0.050000 0.000000
0.075000 -0.025000 0.000000
0.075000 0.000000 0.000000
0.081295 0.038520 0.000000
0.087537 0.062394 0.000000
0.062412 0.083557 0.000000
0.045841 0.126091 0.000000
0.068298 0.134025 0.000000
0.066422 0.176997 0.000000
0.071874 0.200687 0.000000
0.051180 0.250156 0.000000
0.073266 0.257117 0.000000
0.075629 0.281431 0.000000
0.077207 0.309604 0.000000
0.076661 0.334818 0.000000
0.081440 0.361739 0.000000
0.069131 0.382941 0.000000
0.078063 0.407368 0.000000
0.071082 0.435478 0.000000
0.081604 0.474362 0.000000
0.076756 0.499198 0.000000
0.059549 0.517355 0.000000
0.044561 0.536930 0.000000
0.073234 0.555052 0.000000
0.075598 0.600000 0.000000
0.153016 0.600000 0.000000
0.172303 0.600000 0.000000
0.100000 -0.075000 0.000000
0.100000 -0.050000 0.000000
0.100000 -0.025000 0.000000
0.100000 0.000000 0.000000
0.097081 0.023873 0.000000
0.094425 0.080683 0.000000
0.079154 0.106364 0.000000
0.053244 0.102029 0.000000
0.081889 0.158129 0.000000
0.049678 0.154267 0.000000
0.094728 0.206481 0.000000
0.075901 0.224595 0.000000
0.093647 0.242487 0.000000
0.100657 0.266183 0.000000
0.099938 0.290605 0.000000
0.102498 0.314423 0.000000
0.101658 0.338320 0.000000
0.100039 0.372812 0.000000
0.099357 0.401516 0.000000
0.098195 0.424461 0.000000
0.090482 0.450958 0.000000
0.100794 0.487851 0.000000
0.097668 0.515215 0.000000
0.114134 0.532922 0.000000
0.079401 0.533060 0.000000
0.093398 0.576664 0.000000
0.177438 0.576776 0.000000
0.191981 0.600000 0.000000
0.125000 -0.075000 0.000000
0.125000 -0.050000 0.000000
0.125000 -0.025000 0.000000
0.125000 0.000000 0.000000
0.115512 0.044251 0.000000
0.117106 0.068728 0.000000
0.099408 0.106972 0.000000
0.090664 0.136253 0.000000
0.115673 0.138595 0.000000
0.100830 0.170339 0.000000
0.112484 0.188106 0.000000
0.115615 0.213832 0.000000
0.117699 0.246519 0.000000
0.124220 0.276042 0.000000
0.128613 0.299461 0.000000
0.126518 0.331390 0.000000
0.119472 0.355600 0.000000
0.123505 0.383176 0.000000
0.127654 0.404622 0.000000
0.120395 0.431996 0.000000
0.111280 0.459071 0.000000
0.122238 0.495740 0.000000
0.134315 0.514854 0.000000
0.128113 0.554633 0.000000
0.149195 0.576664 0.000000
0.099809 0.551593 0.000000
0.205964 0.576557 0.000000
0.210005 0.600000 0.000000
0.150000 -0.075000 0.000000
0.150000 -0.050000 0.000000
0.150000 -0.025000 0.000000
0.150000 0.000000 0.000000
0.125933 0.025054 0.000000
0.144595 0.047043 0.000000
0.127438 0.090057 0.000000
0.122615 0.116172 0.000000
0.142075 0.133609 0.000000
0.125632 0.162298 0.000000
0.139661 0.177164 0.000000
0.139041 0.206054 0.000000
0.136997 0.228546 0.000000
0.142845 0.251726 0.000000
0.150242 0.277715 0.000000
0.144687 0.313203 0.000000
0.148945 0.339823 0.000000
0.142870 0.368729 0.000000
0.153127 0.396627 0.000000
0.151194 0.420443 0.000000
0.141215 0.441166 0.000000
0.131376 0.467927 0.000000
0.147675 0.486133 0.000000
0.161911 0.506361 0.000000
0.144426 0.535853 0.000000
0.160768 0.553404 0.000000
0.228548 0.596571 0.000000
0.246777 0.600000 0.000000
0.175000 -0.075000 0.000000
0.175000 -0.050000 0.000000
0.175000 -0.025000 0.000000
0.175000 0.000000 0.000000
0.152743 0.024881 0.000000
0.171413 0.046937 0.000000
0.142514 0.071605 0.000000
0.148284 0.110287 0.000000
0.175398 0.117923 0.000000
0.156606 0.150970 0.000000
0.165579 0.172119 0.000000
0.163823 0.198509 0.000000
0.173042 0.218476 0.000000
0.163893 0.238670 0.000000
0.170843 0.268146 0.000000
0.168161 0.294448 0.000000
0.171012 0.317583 0.000000
0.166671 0.354457 0.000000
0.168887 0.375744 0.000000
0.177573 0.400153 0.000000
0.186573 0.422437 0.000000
0.168856 0.439481 0.000000
0.159504 0.464153 0.000000
0.175775 0.483873 0.000000
0.190059 0.506770 0.000000
0.171176 0.529367 0.000000
0.255015 0.576608 0.000000
0.265245 0.600000 0.000000
0.200000 -0.075000 0.000000
0.200000 -0.050000 0.000000
0.200000 -0.025000 0.000000
0.200000 0.000000 0.000000
0.180287 0.022924 0.000000
0.196608 0.047127 0.000000
0.171573 0.070503 0.000000
0.161353 0.090473 0.000000
0.197660 0.113374 0.000000
0.179839 0.138069 0.000000
0.189260 0.161635 0.000000
0.186248 0.188865 0.000000
0.199940 0.208432 0.000000
0.187671 0.248898 0.000000
0.195544 0.277482 0.000000
0.195941 0.299977 0.000000
0.185617 0.334988 0.000000
0.202036 0.351394 0.000000
0.197689 0.375366 0.000000
0.203913 0.398904 0.000000
0.208337 0.429475 0.000000
0.186714 0.455440 0.000000
0.200837 0.482554 0.000000
0.215691 0.508589 0.000000
0.199544 0.529212 0.000000
0.186196 0.551527 0.000000
0.280986 0.574388 0.000000
0.284306 0.600000 0.000000
0.225000 -0.075000 0.000000
0.225000 -0.050000 0.000000
0.225000 -0.025000 0.000000
0.225000 0.000000 0.000000
0.207631 0.025572 0.000000
0.222270 0.048296 0.000000
0.203708 0.071244 0.000000
0.190606 0.089880 0.000000
0.228103 0.114101 0.000000
0.209462 0.134319 0.000000
0.211984 0.163023 0.000000
0.216796 0.186273 0.000000
0.224820 0.212519 0.000000
0.203969 0.232229 0.000000
0.213083 0.253333 0.000000
0.219712 0.282370 0.000000
0.207126 0.320175 0.000000
0.222046 0.347272 0.000000
0.221320 0.380333 0.000000
[...]
<PointData>
<DataArray NumberOfComponents='1' type='Int32' Name='ParticleType' format='ascii'>
3
3
3
3
3
3
3
3
3
3
3
3
3
3
3
3
3
3
3
3
3
3
3
3
3
3
3
3
3
3
3
3
3
3
3
3
3
3
3
3
3
3
3
3
3
3
3
3
3
3
3
3
3
3
3
3
3
3
2
2
2
2
2
2
2
2
2
2
2
2
2
2
2
2
2
2
2
2
2
2
2
2
2
2
3
3
2
2
2
2
2
2
2
2
2
2
2
2
2
2
2
2
2
2
2
2
2
2
2
2
2
2
3
3
2
2
0
0
0
0
0
0
0
0
0
0
0
0
0
0
0
0
0
0
0
0
0
0
0
0
3
3
2
2
0
0
0
0
0
0
0
0
0
0
0
0
0
0
0
0
0
0
0
0
0
0
0
0
3
3
2
2
0
0
0
0
0
0
0
0
0
0
0
0
0
0
0
0
0
0
0
0
0
0
0
0
3
3
2
2
0
0
0
0
0
0
0
0
0
0
0
0
0
0
0
0
0
0
0
0
0
0
0
0
3
3
2
2
0
0
0
0
0
0
0
0
0
0
0
0
0
0
0
0
0
0
0
0
0
0
0
0
3
3
2
2
0
0
0
0
0
0
0
0
0
0
0
0
0
0
0
0
0
0
0
0
0
0
0
0
3
3
2
2
0
0
0
0
0
0
0
0
0
0
0
0
0
0
0
0
0
0
0
0
0
0
0
0
3
3
2
2
0
0
0
0
0
0
0
0
0
0
0
0
0
0
0
0
0
0
0
0
0
0
0
0
3
3
2
2
0
0
0
0
0
0
0
0
0
0
0
0
0
0
0
0
0
0
0
0
0
0
0
0
3
3
2
2
0
0
0
0
0
0
0
0
0
0
0
0
0
0
0
0
0
0
0
0
0
0
0
0
3
3
2
2
0
0
0
0
0
0
0
0
0
0
0
0
0
0
0
0
0
0
0
0
0
0
0
0
3
3
2
2
0
0
0
0
0
0
0
0
0
0
0
0
0
0
0
0
0
0
0
0
0
0
0
0
3
3
2
2
0
0
0
0
0
0
0
0
0
0
0
0
0
0
0
0
0
0
0
0
0
0
0
0
3
3
2
2
0
0
0
0
0
0
0
0
0
0
0
0
0
0
0
0
0
0
0
0
0
0
0
0
3
3
2
2
0
0
0
0
0
0
0
0
0
0
0
0
0
0
0
0
0
0
0
0
0
0
0
0
3
3
2
2
0
0
0
0
0
0
0
0
0
0
0
0
0
0
0
0
0
0
0
0
0
0
0
0
3
3
2
2
0
0
0
0
0
0
0
0
0
0
0
0
0
0
0
0
0
0
0
0
0
0
0
0
3
3
2
2
0
0
0
0
0
0
0
0
0
0
0
0
0
0
0
0
0
0
0
0
0
0
0
0
3
3
2
2
0
0
0
0
0
0
0
0
0
0
0
0
0
0
0
0
0
0
0
0
0
0
0
0
3
3
2
2
0
0
0
0
0
0
0
0
0
0
0
0
0
0
0
0
0
0
0
0
0
0
0
0
3
3
2
2
0
0
0
0
0
0
0
0
0
0
0
0
0
0
0
0
0
0
0
0
0
0
0
0
3
3
2
2
0
0
0
0
0
0
0
0
0
0
0
0
0
0
0
0
0
0
0
0
0
0
0
0
3
3
2
2
0
0
0
0
0
0
0
0
0
0
0
0
0
0
0
0
0
0
0
0
0
0
0
0
3
3
2
2
0
0
0
0
0
0
0
0
0
0
0
0
0
0
0
0
0
0
0
0
0
0
0
0
3
3
2
2
0
0
0
0
0
0
0
0
0
0
0
0
0
0
0
0
0
0
0
0
0
0
0
0
3
3
2
2
0
0
0
0
0
0
0
0
0
0
0
0
0
0
0
0
0
0
0
0
0
0
0
0
3
3
2
2
0
0
0
0
0
0
0
0
0
0
0
0
0
0
0
0
0
0
0
0
0
0
0
0
3
3
2
2
0
0
0
0
0
0
0
0
0
0
0
0
0
0
0
0
0
0
0
0
0
0
0
0
3
3
2
2
0
0
0
0
0
0
0
0
0
0
0
0
0
0
0
0
0
0
0
0
0
0
0
0
3
3
2
2
0
0
0
0
0
0
0
0
0
0
0
0
0
0
0
0
0
0
0
0
0
0
0
0
3
3
2
2
0
0
0
0
0
0
0
0
0
0
0
0
0
0
0
0
0
0
0
0
0
0
0
0
3
3
2
2
0
0
0
0
0
0
0
0
0
0
0
0
0
0
0
0
0
0
0
0
0
0
0
0
3
3
2
2
0
0
0
0
0
0
0
0
0
0
0
0
0
0
0
0
0
0
0
0
0
0
0
0
3
3
2
2
0
0
0
0
0
0
0
0
0
0
0
0
0
0
0
0
0
0
0
0
0
0
0
0
3
3
2
2
0
0
0
0
0
0
0
0
0
0
0
0
0
0
0
0
0
0
0
0
0
0
0
0
3
3
2
2
0
0
0
0
0
0
0
0
0
0
0
0
0
0
0
0
0
0
0
0
0
0
0
0
3
3
2
2
0
0
0
0
0
0
0
0
0
0
0
0
0
0
0
0
0
0
0
0
0
0
0
0
3
3
2
2
0
0
0
0
0
0
0
0
0
0
0
0
0
0
0
0
0
0
0
0
0
0
0
0
3
3
2
2
0
0
0
0
0
0
0
0
0
0
0
0
0
0
0
0
0
0
0
0
0
0
0
0
3
3
2
2
0
0
0
0
0
0
0
0
0
0
0
0
0
0
0
0
0
0
0
0
0
0
0
0
3
3
2
2
2
2
2
2
2
2
2
2
2
2
2
2
2
2
2
2
2
2
2
2
2
2
2
2
3
3
2
2
2
2
2
2
2
2
2
2
2
2
2
2
2
2
2
2
2
2
2
2
2
2
2
2
3
3
3
3
3
3
3
3
3
3
3
3
3
3
3
3
3
3
3
3
3
3
3
3
3
3
3
3
3
3
3
3
3
3
3
3
3
3
3
3
3
3
3
3
3
3
3
3
3
3
3
3
3
3
3
3
</DataArray>
<DataArray NumberOfComponents='1' type='Float32' Name='Velocity' format='ascii'>
0.000000
0.000000
0.000000
0.000000
0.000000
0.000000
0.000000
0.000000
0.000000
0.000000
0.000000
0.000000
0.000000
0.000000
0.000000
0.000000
0.000000
0.000000
0.000000
0.000000
0.000000
0.000000
0.000000
0.000000
0.000000
0.000000
0.000000
0.000000
0.000000
0.000000
0.000000
0.000000
0.000000
0.000000
0.000000
0.000000
0.000000
0.000000
0.000000
0.000000
0.000000
0.000000
0.000000
0.000000
0.000000
0.000000
0.000000
0.000000
0.000000
0.000000
0.000000
0.000000
0.000000
0.000000
0.000000
0.000000
0.000000
0.000000
0.000000
0.000000
0.000000
0.000000
0.000000
0.000000
0.000000
0.000000
0.000000
0.000000
0.000000
0.000000
0.000000
0.000000
0.000000
0.000000
0.000000
0.000000
0.000000
0.000000
0.000000
0.000000
0.000000
0.000000
0.000000
0.000000
0.000000
0.000000
0.000000
0.000000
0.000000
0.000000
0.000000
0.000000
0.000000
0.000000
0.000000
0.000000
0.000000
0.000000
0.000000
0.000000
0.000000
0.000000
0.000000
0.000000
0.000000
0.000000
0.000000
0.000000
0.000000
0.000000
0.000000
0.000000
0.000000
0.000000
0.000000
0.000000
0.075287
0.152106
0.020495
0.099881
0.119128
0.103722
0.129026
0.163210
0.241606
0.139010
0.179307
0.080998
0.123566
0.092952
0.129104
0.155184
0.264525
0.315873
0.137811
0.100000
0.100000
0.100000
0.100000
0.100000
0.000000
0.000000
0.000000
0.000000
0.201610
0.074803
0.139370
0.046917
0.081761
0.106117
0.225027
0.079361
0.184839
0.168192
0.152446
0.156842
0.178916
0.227783
0.213696
0.309724
0.027573
0.214585
0.130605
0.056736
0.100000
0.100000
0.100000
0.100000
0.000000
0.000000
0.000000
0.000000
0.310783
0.227454
0.102186
0.026113
0.143504
0.186145
0.226647
0.240595
0.109554
0.172002
0.227151
0.110107
0.068062
0.076938
0.254869
0.080234
0.119902
0.170580
0.220916
0.220247
0.161491
0.100000
0.100000
0.100000
0.000000
0.000000
0.000000
0.000000
0.120775
0.061487
0.098126
0.143865
0.157272
0.144092
0.058203
0.133556
0.078716
0.042099
0.078246
0.150259
0.206920
0.135882
0.075843
0.078818
0.073919
0.118755
0.204385
0.193372
0.120504
0.100000
0.100000
0.100000
0.000000
0.000000
0.000000
0.000000
0.079136
0.088457
0.185269
0.193305
0.105062
0.162035
0.329215
0.151260
0.221047
0.070226
0.024119
0.147222
0.099087
0.077722
0.189899
0.235847
0.145553
0.155013
0.094143
0.192982
0.100000
0.066104
0.100000
0.100000
0.000000
0.000000
0.000000
0.000000
0.023598
0.159828
0.278226
0.090138
0.175974
0.219029
0.269072
0.160111
0.077060
0.066453
0.091037
0.137320
0.075451
0.159290
0.188083
0.175943
0.143544
0.092767
0.051761
0.146473
0.101268
0.095418
0.100000
0.100000
0.000000
0.000000
0.000000
0.000000
0.045824
0.075989
0.210334
0.141585
0.253784
0.157004
0.143945
0.342863
0.217844
0.122645
0.145866
0.202499
0.056900
0.439085
0.226288
0.307989
0.120102
0.161458
0.142015
0.140212
0.284111
0.245450
0.100000
0.100000
0.000000
0.000000
0.000000
0.000000
0.079368
0.091327
0.041135
0.210973
0.053135
0.185621
0.173373
0.182074
0.137885
0.097505
0.040553
0.191618
0.160696
0.098088
0.180458
0.283232
0.049019
0.274272
0.300379
0.328406
0.346281
0.309826
0.498141
0.100000
0.000000
0.000000
0.000000
0.000000
0.044237
0.105487
0.181981
0.131827
0.023649
0.260076
0.050766
0.113592
0.244703
0.153297
0.229899
0.237170
0.257614
0.165200
0.185272
0.147579
0.220290
0.227924
0.173950
0.232363
0.287195
0.075543
0.400897
0.100000
0.000000
0.000000
0.000000
0.000000
0.085096
0.072297
0.007752
0.049729
0.275131
0.004878
0.211504
0.055975
0.089459
0.056205
0.133659
0.149427
0.052132
0.049605
0.126627
0.017710
0.268293
0.149804
0.114428
0.295295
0.227867
0.189957
0.100000
0.100000
0.000000
0.000000
0.000000
0.000000
0.108350
0.039660
0.058082
0.137552
0.022653
0.061031
0.217277
0.134182
0.065930
0.119463
0.169553
0.201334
0.306259
0.233434
0.234642
0.223447
0.287037
0.279146
0.232071
0.419868
0.280710
0.116013
0.100000
0.100000
0.000000
0.000000
0.000000
0.000000
0.073098
0.139972
0.100647
0.147388
0.038179
0.084480
0.089377
0.123722
0.118620
0.159956
0.092568
0.121650
0.112857
0.113305
0.159977
0.111151
0.144084
0.176169
0.085202
0.116133
0.092842
0.157918
0.255464
0.100000
0.000000
0.000000
0.000000
0.000000
0.018769
0.081071
0.065903
0.058292
0.078489
0.059782
0.162367
0.144993
0.195212
0.124225
0.216082
0.017484
0.130514
0.260277
0.208733
0.194183
0.136756
0.211220
0.178206
0.334875
0.229439
0.389327
0.100000
0.100000
0.000000
0.000000
0.000000
0.000000
0.018569
0.024714
0.048864
0.076932
0.057926
0.071873
0.154283
0.115993
0.098766
0.085990
0.274609
0.275406
0.099539
0.222357
0.153372
0.175060
0.090406
0.199278
0.072471
0.122085
0.029182
0.490340
0.100000
0.100000
0.000000
0.000000
0.000000
0.000000
0.027150
0.037177
0.020740
0.129429
0.053850
0.181642
0.217968
0.155754
0.167643
0.077182
0.045290
0.040775
0.247069
0.308982
0.273576
0.331910
0.178247
0.076165
0.238742
0.120220
0.288832
0.366965
0.100000
0.100000
0.000000
0.000000
0.000000
0.000000
0.040071
0.111524
0.095256
0.205666
0.123673
0.240675
0.084748
0.224558
0.104904
0.196987
0.033532
0.332740
0.138481
0.066601
0.121638
0.090101
0.022054
0.129699
0.103568
0.246065
0.129020
0.288709
0.100000
0.100000
0.000000
0.000000
0.000000
0.000000
0.080698
0.060137
0.109864
0.108952
0.144138
0.071481
0.108015
0.169797
0.062169
0.066808
0.156834
0.251074
0.186699
0.128713
0.175882
0.095812
0.051850
0.083098
0.078983
0.468804
0.193052
0.100000
0.100000
0.100000
0.000000
0.000000
0.000000
0.000000
0.055225
0.065946
0.118722
0.109495
0.053240
0.059384
0.140750
0.135374
0.007433
0.066066
0.196579
0.230079
0.212652
0.132015
0.011154
0.152090
0.197305
0.117741
0.064818
0.283424
0.221912
0.136158
0.100000
0.100000
0.000000
0.000000
0.000000
0.000000
0.084176
0.085458
0.079587
0.024705
0.165509
0.064364
0.045168
0.162103
0.186066
0.247974
0.073598
0.022189
0.086997
0.132256
0.140501
0.121678
0.194967
0.239318
0.203031
0.177761
0.124263
0.030112
0.100000
0.100000
0.000000
0.000000
0.000000
0.000000
0.035877
0.090278
0.060799
0.042966
0.110892
0.036554
0.055890
0.024006
0.011646
0.120680
0.192355
0.079062
0.150022
0.162137
0.089227
0.103152
0.228162
0.151684
0.200638
0.219168
0.102304
0.100000
0.100000
0.100000
0.000000
0.000000
0.000000
0.000000
0.083283
0.059005
0.064207
0.096987
0.082606
0.067014
0.048118
0.043628
0.113069
0.095983
0.081612
0.032804
0.070123
0.162241
0.041749
0.250135
0.069592
0.193166
0.283349
0.118048
0.100369
0.069387
0.100000
0.100000
0.000000
0.000000
0.000000
0.000000
0.057926
0.018513
0.018935
0.030937
0.110140
0.075767
0.163728
0.087243
0.270566
0.176452
0.034413
0.190168
0.039309
0.075915
0.035902
0.147199
0.221566
0.328228
0.170669
0.223991
0.109991
0.399136
0.100000
0.100000
0.000000
0.000000
0.000000
0.000000
0.077586
0.086708
0.104021
0.077812
0.130021
0.119906
0.128980
0.023503
0.050527
0.097527
0.200478
0.242080
0.110438
0.139164
0.105607
0.043882
0.119969
0.175226
0.318908
0.171301
0.183996
0.210647
0.100000
0.100000
0.000000
0.000000
0.000000
0.000000
0.094989
0.115916
0.065953
0.100284
0.137499
0.046218
0.113379
0.071642
0.165541
0.247535
0.095180
0.194133
0.128090
0.076071
0.204237
0.105021
0.054833
0.175527
0.081785
0.200049
0.108340
0.100000
0.100000
0.100000
0.000000
0.000000
0.000000
0.000000
0.028558
0.173414
0.139241
0.040540
0.022406
0.180870
0.206110
0.173498
0.151645
0.259344
0.065299
0.122902
0.117948
0.061559
0.130525
0.061652
0.095375
0.013876
0.035518
0.183924
0.137029
0.599833
0.100000
0.100000
0.000000
0.000000
0.000000
0.000000
0.095312
0.133679
0.047863
0.106821
0.191366
0.061105
0.086894
0.110650
0.210824
0.150501
0.061772
0.164154
0.066430
0.131791
0.133065
0.118098
0.073030
0.058542
0.185983
0.177446
0.432568
0.503921
0.100000
0.100000
0.000000
0.000000
0.000000
0.000000
0.062357
0.065729
0.049753
0.075213
0.035513
0.136045
0.195545
0.084019
0.145503
0.115263
0.181948
0.052039
0.123022
0.098782
0.151101
0.193287
0.165493
0.039841
0.066250
0.194081
0.407415
0.335143
0.100000
0.100000
0.000000
0.000000
0.000000
0.000000
0.027185
0.046515
0.128290
0.070638
0.119727
0.104659
0.143028
0.081755
0.145645
0.146980
0.073658
0.133194
0.028950
0.180475
0.305708
0.305404
0.095588
0.196490
0.141347
0.076483
0.094653
0.181905
0.100000
0.100000
0.000000
0.000000
0.000000
0.000000
0.081027
0.029044
0.319491
0.076330
0.149147
0.200638
0.224372
0.198832
0.127560
0.067169
0.049882
0.073849
0.181161
0.137551
0.088479
0.363494
0.121536
0.186221
0.122881
0.237071
0.258770
0.281713
0.100000
0.100000
0.000000
0.000000
0.000000
0.000000
0.300245
0.283768
0.185968
0.173972
0.188021
0.098215
0.126332
0.132949
0.235334
0.169371
0.068750
0.063256
0.303719
0.076428
0.117041
0.353961
0.174959
0.154155
0.111692
0.233238
0.448000
0.014058
0.100000
0.100000
0.000000
0.000000
0.000000
0.000000
0.179311
0.022996
0.100044
0.085389
0.197448
0.144019
0.466329
0.011619
0.045538
0.158200
0.250010
0.267569
0.131465
0.116646
0.135522
0.141762
0.127433
0.157121
0.303742
0.056593
0.182446
0.401395
0.100000
0.100000
0.000000
0.000000
0.000000
0.000000
0.044255
0.162646
0.028270
0.053888
0.049069
0.140608
0.064088
0.096104
0.137679
0.137585
0.148229
0.319379
0.185073
0.075774
0.120213
0.251084
0.081396
0.048557
0.208986
0.161333
0.634499
0.166111
0.146502
0.100000
0.000000
0.000000
0.000000
0.000000
0.081989
0.063369
0.092255
0.040002
0.006199
0.203206
0.373635
0.185927
0.252125
0.310781
0.207127
0.229611
0.128351
0.106592
0.065890
0.152604
0.056173
0.131226
0.173834
0.137634
0.155002
0.115078
0.100000
0.100000
0.000000
0.000000
0.000000
0.000000
0.130042
0.067035
0.203771
0.239211
0.160126
0.116355
0.439780
0.316047
0.167022
0.103703
0.048465
0.081478
0.053049
0.099540
0.081554
0.164102
0.231494
0.115983
0.290126
0.169806
0.028012
0.165072
0.186836
0.100000
0.000000
0.000000
0.000000
0.000000
0.097064
0.130457
0.066798
0.239918
0.435808
0.289233
0.091268
0.182713
0.175462
0.206809
0.132023
0.161704
0.039428
0.245731
0.074444
0.049275
0.300832
0.052810
0.227188
0.182517
0.180516
0.041176
0.331500
0.100000
0.000000
0.000000
0.000000
0.000000
0.206859
0.025139
0.224835
0.183758
0.098465
0.204512
0.208709
0.394381
0.060065
0.233876
0.064844
0.140599
0.144675
0.064502
0.223155
0.033219
0.194665
0.317781
0.110514
0.103238
0.302010
0.376480
0.041461
0.100000
0.000000
0.000000
0.000000
0.000000
0.018228
0.153370
0.205967
0.178895
0.248051
0.249784
0.078092
0.055439
0.177013
0.082195
0.147175
0.189708
0.070547
0.038994
0.283816
0.132618
0.258952
0.043247
0.023079
0.226877
0.210277
0.168088
0.260323
0.100000
0.000000
0.000000
0.000000
0.000000
0.006998
0.133288
0.114678
0.029955
0.118053
0.157524
0.256673
0.232699
0.136554
0.338585
0.066581
0.082325
0.280178
0.080795
0.181128
0.103489
0.211908
0.255811
0.301223
0.166916
0.287637
0.160056
0.134160
0.100000
0.000000
0.000000
0.000000
0.000000
0.073213
0.038896
0.135677
0.184803
0.210530
0.204324
0.179784
0.284279
0.077201
0.010946
0.351195
0.326188
0.239202
0.209178
0.172030
0.226966
0.281803
0.096053
0.131655
0.064034
0.390384
0.147062
0.087955
0.100000
0.000000
0.000000
0.000000
0.000000
0.082124
0.121275
0.096512
0.090989
0.282527
0.067172
0.173377
0.091176
0.175678
0.050186
0.029633
0.252988
0.120282
0.107277
0.069285
0.129123
0.200768
0.199595
0.151850
0.041565
0.200379
0.212106
0.074477
0.100000
0.000000
0.000000
0.000000
0.000000
0.000000
0.000000
0.000000
0.000000
0.000000
0.000000
0.000000
0.000000
0.000000
0.000000
0.000000
0.000000
0.000000
0.000000
0.000000
0.000000
0.000000
0.000000
0.000000
0.000000
0.000000
0.000000
0.000000
0.000000
0.000000
0.000000
0.000000
0.000000
0.000000
0.000000
0.000000
0.000000
0.000000
0.000000
0.000000
0.000000
0.000000
0.000000
0.000000
0.000000
0.000000
0.000000
0.000000
0.000000
0.000000
0.000000
0.000000
0.000000
0.000000
0.000000
0.000000
0.000000
0.000000
0.000000
0.000000
0.000000
0.000000
0.000000
0.000000
0.000000
0.000000
0.000000
0.000000
0.000000
0.000000
0.000000
0.000000
0.000000
0.000000
0.000000
0.000000
0.000000
0.000000
0.000000
0.000000
0.000000
0.000000
0.000000
0.000000
0.000000
0.000000
0.000000
0.000000
0.000000
0.000000
0.000000
0.000000
0.000000
0.000000
0.000000
0.000000
0.000000
0.000000
0.000000
0.000000
0.000000
0.000000
0.000000
0.000000
0.000000
0.000000
0.000000
0.000000
0.000000
0.000000
0.000000
0.000000
0.000000
</DataArray>
<DataArray NumberOfComponents='1' type='Float32' Name='pressure' format='ascii'>
0.000000
0.000000
0.000000
0.000000
0.000000
0.000000
0.000000
0.000000
0.000000
0.000000
0.000000
0.000000
0.000000
0.000000
0.000000
0.000000
0.000000
0.000000
0.000000
0.000000
0.000000
0.000000
0.000000
0.000000
0.000000
0.000000
0.000000
0.000000
0.000000
0.000000
0.000000
0.000000
0.000000
0.000000
0.000000
0.000000
0.000000
0.000000
0.000000
0.000000
0.000000
0.000000
0.000000
0.000000
0.000000
0.000000
0.000000
0.000000
0.000000
0.000000
0.000000
0.000000
0.000000
0.000000
0.000000
0.000000
0.000000
0.000000
37445.019531
37306.328125
37053.328125
37770.218750
37082.074219
36419.816406
35927.480469
36316.562500
35384.085938
35396.902344
34594.128906
35205.074219
34484.382812
34125.707031
34922.433594
34636.085938
34381.527344
33857.710938
34953.855469
35675.269531
35184.203125
36797.906250
37121.765625
36441.078125
32439.169922
0.000000
0.000000
0.000000
37568.410156
37694.382812
36523.671875
37268.769531
36654.871094
35771.707031
36001.050781
35871.941406
34654.265625
34801.925781
34659.968750
35563.562500
34501.050781
34115.910156
35841.351562
35238.207031
34593.519531
34373.058594
34856.878906
36108.480469
34962.765625
37310.304688
38597.664062
39037.769531
41385.886719
34665.078125
0.000000
0.000000
38168.402344
37926.445312
35546.109375
37478.785156
36516.511719
36080.308594
35866.609375
35176.195312
35132.285156
35096.796875
34473.757812
34020.390625
34744.031250
33964.964844
35154.710938
35080.878906
34788.714844
35662.199219
34723.085938
36644.027344
37719.718750
41886.949219
29420.654297
40697.882812
0.000000
16663.566406
0.000000
0.000000
38615.835938
36960.257812
36784.101562
36283.726562
35968.843750
36127.691406
35392.503906
36170.867188
34972.937500
34842.117188
35253.460938
35003.199219
35095.656250
34412.027344
34824.519531
33669.726562
34198.265625
34272.964844
34848.046875
33854.570312
37921.328125
34537.769531
33161.625000
22938.267578
28497.173828
19883.380859
0.000000
0.000000
38477.269531
37063.039062
37665.558594
35861.417969
36458.753906
36523.355469
36611.507812
35835.355469
35348.582031
34783.460938
34411.363281
34041.035156
33935.625000
34189.480469
33557.164062
34104.105469
34037.558594
33783.976562
32730.814453
31631.675781
33452.792969
35794.417969
27946.730469
0.000000
22376.310547
23481.597656
0.000000
0.000000
38055.863281
38108.367188
36160.078125
36934.136719
35048.519531
36042.015625
35383.636719
34727.132812
35320.230469
35441.097656
34897.316406
35561.625000
34545.371094
34563.769531
34206.437500
33909.933594
33242.648438
32989.765625
32819.976562
32356.367188
29787.560547
28317.902344
29907.425781
27295.945312
30440.101562
24512.027344
0.000000
0.000000
37571.531250
37384.257812
37264.632812
35820.648438
36237.949219
36102.410156
35809.878906
35430.609375
35517.570312
35120.937500
34279.250000
34338.035156
34158.964844
33914.871094
33886.214844
33220.964844
32836.281250
32385.517578
32008.859375
30818.408203
29653.748047
25019.332031
29991.347656
24829.222656
31466.248047
26354.201172
0.000000
0.000000
37560.882812
37323.652344
36782.847656
36577.828125
36039.777344
36310.000000
35831.812500
35990.128906
34990.582031
35386.339844
35274.617188
35234.531250
34721.968750
34292.070312
33528.210938
33062.554688
32958.863281
31519.664062
32229.386719
31182.281250
30700.029297
29078.666016
28709.125000
27504.937500
28442.107422
25473.816406
0.000000
0.000000
38066.703125
38194.460938
36712.105469
37002.140625
36840.097656
35893.351562
35914.914062
35532.503906
36377.187500
34843.824219
34811.453125
34849.742188
34263.941406
34113.234375
33980.632812
33333.570312
33266.691406
31687.326172
31786.894531
31441.814453
30483.730469
30105.156250
28513.857422
28448.171875
30650.644531
23422.099609
0.000000
0.000000
37120.570312
36622.359375
37042.839844
37070.675781
36021.519531
36418.457031
36268.363281
35970.148438
35368.695312
35510.070312
35916.082031
34801.562500
35130.265625
33914.695312
33713.167969
33224.234375
32026.330078
32294.017578
30528.484375
30040.185547
29891.855469
28168.587891
28853.910156
27810.638672
28417.902344
21429.164062
0.000000
0.000000
37124.253906
37146.738281
36884.339844
36332.660156
36907.113281
36464.804688
36411.132812
35527.417969
35647.136719
35625.066406
33607.277344
35169.171875
34610.960938
33526.070312
34022.953125
32509.695312
31521.304688
31148.884766
30698.154297
30043.681641
29597.263672
28889.814453
28252.136719
27841.175781
23438.556641
17533.949219
0.000000
0.000000
36925.312500
36872.351562
37783.257812
37128.574219
36579.675781
36056.496094
35396.714844
36520.062500
34514.816406
36306.867188
35410.535156
34984.375000
34135.414062
33693.289062
33088.960938
32786.070312
32017.958984
31513.568359
29973.195312
29247.060547
29271.126953
28911.750000
27902.425781
26619.570312
25094.273438
0.000000
0.000000
0.000000
36881.375000
37069.675781
36920.214844
36597.312500
36411.859375
36621.675781
36082.367188
36276.503906
35461.894531
35150.804688
34577.835938