<?xml version='1.0' encoding='UTF-8'?>
<VTKFile xmlns='VTK' byte_order='LittleEndian' version='0.1' type='UnstructuredGrid'>
<UnstructuredGrid>
<Piece NumberOfCells='1344' NumberOfPoints='1344'>
<Points>
<DataArray NumberOfComponents='3' type='Float32' Name='Position' format='ascii'>
-0.075000 -0.075000 0.000000
-0.075000 -0.050000 0.000000
-0.075000 -0.025000 0.000000
-0.075000 0.000000 0.000000
-0.075000 0.025000 0.000000
-0.075000 0.050000 0.000000
-0.075000 0.075000 0.000000
-0.075000 0.100000 0.000000
-0.075000 0.125000 0.000000
-0.075000 0.150000 0.000000
-0.075000 0.175000 0.000000
-0.075000 0.200000 0.000000
-0.075000 0.225000 0.000000
-0.075000 0.250000 0.000000
-0.075000 0.275000 0.000000
-0.075000 0.300000 0.000000
-0.075000 0.325000 0.000000
-0.075000 0.350000 0.000000
-0.075000 0.375000 0.000000
-0.075000 0.400000 0.000000
-0.075000 0.425000 0.000000
-0.075000 0.450000 0.000000
-0.075000 0.475000 0.000000
-0.075000 0.500000 0.000000
-0.075000 0.525000 0.000000
-0.075000 0.550000 0.000000
-0.075000 0.575000 0.000000
-0.075000 0.600000 0.000000
-0.050000 -0.075000 0.000000
-0.050000 -0.050000 0.000000
-0.050000 -0.025000 0.000000
-0.050000 0.000000 0.000000
-0.050000 0.025000 0.000000
-0.050000 0.050000 0.000000
-0.050000 0.075000 0.000000
-0.050000 0.100000 0.000000
-0.050000 0.125000 0.000000
-0.050000 0.150000 0.000000
-0.050000 0.175000 0.000000
-0.050000 0.200000 0.000000
-0.050000 0.225000 0.000000
-0.050000 0.250000 0.000000
-0.050000 0.275000 0.000000
-0.050000 0.300000 0.000000
-0.050000 0.325000 0.000000
-0.050000 0.350000 0.000000
-0.050000 0.375000 0.000000
-0.050000 0.400000 0.000000
-0.050000 0.425000 0.000000
-0.050000 0.450000 0.000000
-0.050000 0.475000 0.000000
-0.050000 0.500000 0.000000
-0.050000 0.525000 0.000000
-0.050000 0.550000 0.000000
-0.050000 0.575000 0.000000
-0.050000 0.600000 0.000000
-0.025000 -0.075000 0.000000
-0.025000 -0.050000 0.000000
-0.025000 -0.025000 0.000000
-0.025000 0.000000 0.000000
-0.025000 0.025000 0.000000
-0.025000 0.050000 0.000000
-0.025000 0.075000 0.000000
-0.025000 0.100000 0.000000
-0.025000 0.125000 0.000000
-0.025000 0.150000 0.000000
-0.025000 0.175000 0.000000
-0.025000 0.200000 0.000000
-0.025000 0.225000 0.000000
-0.025000 0.250000 0.000000
-0.025000 0.275000 0.000000
-0.025000 0.300000 0.000000
-0.025000 0.325000 0.000000
-0.025000 0.350000 0.000000
-0.025000 0.375000 0.000000
-0.025000 0.400000 0.000000
-0.025000 0.425000 0.000000
-0.025000 0.450000 0.000000
-0.025000 0.475000 0.000000
-0.025000 0.500000 0.000000
-0.025000 0.525000 0.000000
-0.025000 0.550000 0.000000
-0.025000 0.575000 0.000000
-0.025000 0.600000 0.000000
0.000000 -0.075000 0.000000
0.000000 -0.050000 0.000000
0.000000 -0.025000 0.000000
0.000000 0.000000 0.000000
0.000000 0.025000 0.000000
0.000000 0.050000 0.000000
0.000000 0.075000 0.000000
0.000000 0.100000 0.000000
0.000000 0.125000 0.000000
0.000000 0.150000 0.000000
0.000000 0.175000 0.000000
0.000000 0.200000 0.000000
0.000000 0.225000 0.000000
0.000000 0.250000 0.000000
0.000000 0.275000 0.000000
0.000000 0.300000 0.000000
0.000000 0.325000 0.000000
0.000000 0.350000 0.000000
0.000000 0.375000 0.000000
0.000000 0.400000 0.000000
0.000000 0.425000 0.000000
0.000000 0.450000 0.000000
0.000000 0.475000 0.000000
0.000000 0.500000 0.000000
0.000000 0.525000 0.000000
0.000000 0.550000 0.000000
0.000000 0.575000 0.000000
0.000000 0.600000 0.000000
0.025000 -0.075000 0.000000
0.025000 -0.050000 0.000000
0.025000 -0.025000 0.000000
0.025000 0.000000 0.000000
0.024743 0.023881 0.000000
0.042432 0.037556 0.000000
0.022792 0.057242 0.000000
0.025704 0.111655 0.000000
0.022850 0.190585 0.000000
0.029976 0.214833 0.000000
0.025893 0.235508 0.000000
0.022736 0.260896 0.000000
0.024783 0.291276 0.000000
0.026538 0.312804 0.000000
0.024625 0.337571 0.000000
0.025931 0.360800 0.000000
0.024774 0.384856 0.000000
0.028319 0.408429 0.000000
0.024213 0.431489 0.000000
0.023998 0.457998 0.000000
0.027158 0.481538 0.000000
0.026918 0.503322 0.000000
0.023015 0.553565 0.000000
0.027476 0.578764 0.000000
0.035629 0.600000 0.000000
0.013907 0.600000 0.000000
0.095571 0.600000 0.000000
0.114983 0.600000 0.000000
0.050000 -0.075000 0.000000
0.050000 -0.050000 0.000000
0.050000 -0.025000 0.000000
0.050000 0.000000 0.000000
0.063126 0.020473 0.000000
0.059901 0.052863 0.000000
0.041475 0.068928 0.000000
0.023741 0.089984 0.000000
0.022984 0.141795 0.000000
0.028634 0.164697 0.000000
0.047497 0.189322 0.000000
0.053244 0.222125 0.000000
0.045178 0.273885 0.000000
0.053647 0.297467 0.000000
0.053771 0.321186 0.000000
0.053392 0.344513 0.000000
0.051086 0.367303 0.000000
0.050078 0.399774 0.000000
0.053408 0.425001 0.000000
0.047666 0.451792 0.000000
0.056982 0.470880 0.000000
0.051226 0.497168 0.000000
0.023937 0.527388 0.000000
0.048474 0.562844 0.000000
0.065889 0.580950 0.000000
0.054998 0.600000 0.000000
0.122248 0.578183 0.000000
0.134270 0.600000 0.000000
0.075000 -0.075000 0.000000
0.075000 -0.050000 0.000000
0.075000 -0.025000 0.000000
0.075000 0.000000 0.000000
0.083463 0.040194 0.000000
0.084902 0.062350 0.000000
0.061661 0.083411 0.000000
0.045238 0.126654 0.000000
0.068211 0.135372 0.000000
0.064238 0.177122 0.000000
0.072908 0.201880 0.000000
0.049818 0.251542 0.000000
0.072900 0.256319 0.000000
0.075507 0.280053 0.000000
0.078286 0.307230 0.000000
0.077825 0.334654 0.000000
0.080830 0.360715 0.000000
0.068583 0.383584 0.000000
0.078571 0.405323 0.000000
0.070955 0.436583 0.000000
0.080790 0.475207 0.000000
0.076355 0.500959 0.000000
0.061452 0.519475 0.000000
0.046365 0.538455 0.000000
0.073754 0.556018 0.000000
0.076339 0.600000 0.000000
0.153807 0.600000 0.000000
0.172689 0.600000 0.000000
0.100000 -0.075000 0.000000
0.100000 -0.050000 0.000000
0.100000 -0.025000 0.000000
0.100000 0.000000 0.000000
0.098440 0.023801 0.000000
0.095067 0.081451 0.000000
0.077957 0.105355 0.000000
0.053324 0.103499 0.000000
0.081506 0.159942 0.000000
0.048862 0.154894 0.000000
0.094478 0.205988 0.000000
0.075232 0.226344 0.000000
0.093497 0.242343 0.000000
0.100222 0.265950 0.000000
0.100088 0.291620 0.000000
0.101235 0.315441 0.000000
0.102275 0.340553 0.000000
0.098517 0.373641 0.000000
0.100238 0.401834 0.000000
0.098682 0.425330 0.000000
0.089439 0.450834 0.000000
0.100307 0.486897 0.000000
0.099401 0.514220 0.000000
0.115471 0.532684 0.000000
0.081837 0.533958 0.000000
0.094741 0.576061 0.000000
0.178432 0.576906 0.000000
0.191180 0.600000 0.000000
0.125000 -0.075000 0.000000
0.125000 -0.050000 0.000000
0.125000 -0.025000 0.000000
0.125000 0.000000 0.000000
0.115753 0.044813 0.000000
0.116626 0.069686 0.000000
0.097386 0.108053 0.000000
0.090289 0.137090 0.000000
0.116087 0.138960 0.000000
0.100328 0.168468 0.000000
0.110810 0.190911 0.000000
0.116801 0.215276 0.000000
0.118726 0.247628 0.000000
0.124840 0.276615 0.000000
0.128209 0.299165 0.000000
0.127470 0.330862 0.000000
0.120456 0.356523 0.000000
0.122442 0.383984 0.000000
0.129053 0.405278 0.000000
0.118813 0.433648 0.000000
0.111463 0.458005 0.000000
0.122056 0.494626 0.000000
0.135283 0.514533 0.000000
0.128541 0.554408 0.000000
0.150037 0.576690 0.000000
0.100796 0.551329 0.000000
0.206508 0.576603 0.000000
0.210063 0.600000 0.000000
0.150000 -0.075000 0.000000
0.150000 -0.050000 0.000000
0.150000 -0.025000 0.000000
0.150000 0.000000 0.000000
0.126131 0.025032 0.000000
0.145268 0.048011 0.000000
0.125550 0.092543 0.000000
0.122219 0.116841 0.000000
0.141613 0.135500 0.000000
0.124795 0.163946 0.000000
0.137719 0.179149 0.000000
0.140771 0.204634 0.000000
0.136077 0.228072 0.000000
0.141818 0.252519 0.000000
0.150192 0.277314 0.000000
0.143720 0.314251 0.000000
0.149567 0.339800 0.000000
0.141426 0.369357 0.000000
0.153457 0.398686 0.000000
0.150571 0.421755 0.000000
0.142191 0.442009 0.000000
0.131598 0.468847 0.000000
0.147574 0.487317 0.000000
0.163331 0.507186 0.000000
0.145122 0.536629 0.000000
0.161789 0.554164 0.000000
0.228834 0.597527 0.000000
0.247166 0.600000 0.000000
0.175000 -0.075000 0.000000
0.175000 -0.050000 0.000000
0.175000 -0.025000 0.000000
0.175000 0.000000 0.000000
0.152298 0.025330 0.000000
0.171437 0.046687 0.000000
0.140026 0.071648 0.000000
0.148235 0.111609 0.000000
0.173108 0.115723 0.000000
0.157911 0.150417 0.000000
0.164500 0.171153 0.000000
0.166139 0.197456 0.000000
0.170915 0.219245 0.000000
0.164906 0.238076 0.000000
0.170974 0.269382 0.000000
0.169843 0.294082 0.000000
0.170230 0.317566 0.000000
0.164974 0.357737 0.000000
0.168887 0.378666 0.000000
0.179706 0.401870 0.000000
0.185401 0.422825 0.000000
0.169347 0.441594 0.000000
0.159988 0.465463 0.000000
0.176350 0.483103 0.000000
0.191174 0.506250 0.000000
0.171663 0.528467 0.000000
0.255467 0.576600 0.000000
0.265692 0.600000 0.000000
0.200000 -0.075000 0.000000
0.200000 -0.050000 0.000000
0.200000 -0.025000 0.000000
0.200000 0.000000 0.000000
0.179757 0.023067 0.000000
0.197614 0.047093 0.000000
0.171176 0.070210 0.000000
0.159447 0.089578 0.000000
0.197469 0.113778 0.000000
0.179890 0.136369 0.000000
0.190459 0.160107 0.000000
0.185776 0.186759 0.000000
0.200824 0.207458 0.000000
0.187231 0.248234 0.000000
0.195278 0.277831 0.000000
0.195827 0.302394 0.000000
0.183606 0.336503 0.000000
0.200986 0.351488 0.000000
0.197615 0.374080 0.000000
0.205682 0.398316 0.000000
0.208285 0.429550 0.000000
0.188296 0.457217 0.000000
0.202730 0.484440 0.000000
0.218441 0.508862 0.000000
0.202135 0.528988 0.000000
0.185762 0.549972 0.000000
0.282864 0.575125 0.000000
0.284700 0.600000 0.000000
0.225000 -0.075000 0.000000
0.225000 -0.050000 0.000000
0.225000 -0.025000 0.000000
0.225000 0.000000 0.000000
0.207067 0.025514 0.000000
0.222853 0.048065 0.000000
0.202379 0.071930 0.000000
0.188823 0.089300 0.000000
0.227457 0.114103 0.000000
0.209943 0.132212 0.000000
0.211247 0.162964 0.000000
0.216989 0.185730 0.000000
0.223200 0.214568 0.000000
0.204736 0.230948 0.000000
0.211118 0.255063 0.000000
0.220448 0.280229 0.000000
0.205240 0.322145 0.000000
0.223631 0.348408 0.000000
0.220810 0.377944 0.000000
[...]
<PointData>
<DataArray NumberOfComponents='1' type='Int32' Name='ParticleType' format='ascii'>
3
3
3
3
3
3
3
3
3
3
3
3
3
3
3
3
3
3
3
3
3
3
3
3
3
3
3
3
3
3
3
3
3
3
3
3
3
3
3
3
3
3
3
3
3
3
3
3
3
3
3
3
3
3
3
3
3
3
2
2
2
2
2
2
2
2
2
2
2
2
2
2
2
2
2
2
2
2
2
2
2
2
2
2
3
3
2
2
2
2
2
2
2
2
2
2
2
2
2
2
2
2
2
2
2
2
2
2
2
2
2
2
3
3
2
2
0
0
0
0
0
0
0
0
0
0
0
0
0
0
0
0
0
0
0
0
0
0
0
0
3
3
2
2
0
0
0
0
0
0
0
0
0
0
0
0
0
0
0
0
0
0
0
0
0
0
0
0
3
3
2
2
0
0
0
0
0
0
0
0
0
0
0
0
0
0
0
0
0
0
0
0
0
0
0
0
3
3
2
2
0
0
0
0
0
0
0
0
0
0
0
0
0
0
0
0
0
0
0
0
0
0
0
0
3
3
2
2
0
0
0
0
0
0
0
0
0
0
0
0
0
0
0
0
0
0
0
0
0
0
0
0
3
3
2
2
0
0
0
0
0
0
0
0
0
0
0
0
0
0
0
0
0
0
0
0
0
0
0
0
3
3
2
2
0
0
0
0
0
0
0
0
0
0
0
0
0
0
0
0
0
0
0
0
0
0
0
0
3
3
2
2
0
0
0
0
0
0
0
0
0
0
0
0
0
0
0
0
0
0
0
0
0
0
0
0
3
3
2
2
0
0
0
0
0
0
0
0
0
0
0
0
0
0
0
0
0
0
0
0
0
0
0
0
3
3
2
2
0
0
0
0
0
0
0
0
0
0
0
0
0
0
0
0
0
0
0
0
0
0
0
0
3
3
2
2
0
0
0
0
0
0
0
0
0
0
0
0
0
0
0
0
0
0
0
0
0
0
0
0
3
3
2
2
0
0
0
0
0
0
0
0
0
0
0
0
0
0
0
0
0
0
0
0
0
0
0
0
3
3
2
2
0
0
0
0
0
0
0
0
0
0
0
0
0
0
0
0
0
0
0
0
0
0
0
0
3
3
2
2
0
0
0
0
0
0
0
0
0
0
0
0
0
0
0
0
0
0
0
0
0
0
0
0
3
3
2
2
0
0
0
0
0
0
0
0
0
0
0
0
0
0
0
0
0
0
0
0
0
0
0
0
3
3
2
2
0
0
0
0
0
0
0
0
0
0
0
0
0
0
0
0
0
0
0
0
0
0
0
0
3
3
2
2
0
0
0
0
0
0
0
0
0
0
0
0
0
0
0
0
0
0
0
0
0
0
0
0
3
3
2
2
0
0
0
0
0
0
0
0
0
0
0
0
0
0
0
0
0
0
0
0
0
0
0
0
3
3
2
2
0
0
0
0
0
0
0
0
0
0
0
0
0
0
0
0
0
0
0
0
0
0
0
0
3
3
2
2
0
0
0
0
0
0
0
0
0
0
0
0
0
0
0
0
0
0
0
0
0
0
0
0
3
3
2
2
0
0
0
0
0
0
0
0
0
0
0
0
0
0
0
0
0
0
0
0
0
0
0
0
3
3
2
2
0
0
0
0
0
0
0
0
0
0
0
0
0
0
0
0
0
0
0
0
0
0
0
0
3
3
2
2
0
0
0
0
0
0
0
0
0
0
0
0
0
0
0
0
0
0
0
0
0
0
0
0
3
3
2
2
0
0
0
0
0
0
0
0
0
0
0
0
0
0
0
0
0
0
0
0
0
0
0
0
3
3
2
2
0
0
0
0
0
0
0
0
0
0
0
0
0
0
0
0
0
0
0
0
0
0
0
0
3
3
2
2
0
0
0
0
0
0
0
0
0
0
0
0
0
0
0
0
0
0
0
0
0
0
0
0
3
3
2
2
0
0
0
0
0
0
0
0
0
0
0
0
0
0
0
0
0
0
0
0
0
0
0
0
3
3
2
2
0
0
0
0
0
0
0
0
0
0
0
0
0
0
0
0
0
0
0
0
0
0
0
0
3
3
2
2
0
0
0
0
0
0
0
0
0
0
0
0
0
0
0
0
0
0
0
0
0
0
0
0
3
3
2
2
0
0
0
0
0
0
0
0
0
0
0
0
0
0
0
0
0
0
0
0
0
0
0
0
3
3
2
2
0
0
0
0
0
0
0
0
0
0
0
0
0
0
0
0
0
0
0
0
0
0
0
0
3
3
2
2
0
0
0
0
0
0
0
0
0
0
0
0
0
0
0
0
0
0
0
0
0
0
0
0
3
3
2
2
0
0
0
0
0
0
0
0
0
0
0
0
0
0
0
0
0
0
0
0
0
0
0
0
3
3
2
2
0
0
0
0
0
0
0
0
0
0
0
0
0
0
0
0
0
0
0
0
0
0
0
0
3
3
2
2
0
0
0
0
0
0
0
0
0
0
0
0
0
0
0
0
0
0
0
0
0
0
0
0
3
3
2
2
0
0
0
0
0
0
0
0
0
0
0
0
0
0
0
0
0
0
0
0
0
0
0
0
3
3
2
2
0
0
0
0
0
0
0
0
0
0
0
0
0
0
0
0
0
0
0
0
0
0
0
0
3
3
2
2
0
0
0
0
0
0
0
0
0
0
0
0
0
0
0
0
0
0
0
0
0
0
0
0
3
3
2
2
0
0
0
0
0
0
0
0
0
0
0
0
0
0
0
0
0
0
0
0
0
0
0
0
3
3
2
2
0
0
0
0
0
0
0
0
0
0
0
0
0
0
0
0
0
0
0
0
0
0
0
0
3
3
2
2
2
2
2
2
2
2
2
2
2
2
2
2
2
2
2
2
2
2
2
2
2
2
2
2
3
3
2
2
2
2
2
2
2
2
2
2
2
2
2
2
2
2
2
2
2
2
2
2
2
2
2
2
3
3
3
3
3
3
3
3
3
3
3
3
3
3
3
3
3
3
3
3
3
3
3
3
3
3
3
3
3
3
3
3
3
3
3
3
3
3
3
3
3
3
3
3
3
3
3
3
3
3
3
3
3
3
3
3
</DataArray>
<DataArray NumberOfComponents='1' type='Float32' Name='Velocity' format='ascii'>
0.000000
0.000000
0.000000
0.000000
0.000000
0.000000
0.000000
0.000000
0.000000
0.000000
0.000000
0.000000
0.000000
0.000000
0.000000
0.000000
0.000000
0.000000
0.000000
0.000000
0.000000
0.000000
0.000000
0.000000
0.000000
0.000000
0.000000
0.000000
0.000000
0.000000
0.000000
0.000000
0.000000
0.000000
0.000000
0.000000
0.000000
0.000000
0.000000
0.000000
0.000000
0.000000
0.000000
0.000000
0.000000
0.000000
0.000000
0.000000
0.000000
0.000000
0.000000
0.000000
0.000000
0.000000
0.000000
0.000000
0.000000
0.000000
0.000000
0.000000
0.000000
0.000000
0.000000
0.000000
0.000000
0.000000
0.000000
0.000000
0.000000
0.000000
0.000000
0.000000
0.000000
0.000000
0.000000
0.000000
0.000000
0.000000
0.000000
0.000000
0.000000
0.000000
0.000000
0.000000
0.000000
0.000000
0.000000
0.000000
0.000000
0.000000
0.000000
0.000000
0.000000
0.000000
0.000000
0.000000
0.000000
0.000000
0.000000
0.000000
0.000000
0.000000
0.000000
0.000000
0.000000
0.000000
0.000000
0.000000
0.000000
0.000000
0.000000
0.000000
0.000000
0.000000
0.000000
0.000000
0.093392
0.249580
0.082461
0.092543
0.128926
0.058286
0.235239
0.206172
0.289616
0.197220
0.251533
0.104783
0.148141
0.197773
0.156787
0.266328
0.284230
0.297205
0.068492
0.100000
0.100000
0.100000
0.100000
0.100000
0.000000
0.000000
0.000000
0.000000
0.123985
0.009895
0.097286
0.038843
0.078767
0.077492
0.295943
0.114611
0.232609
0.122306
0.232947
0.157407
0.286270
0.233803
0.161057
0.200361
0.251676
0.047098
0.267263
0.150384
0.100000
0.100000
0.100000
0.100000
0.000000
0.000000
0.000000
0.000000
0.233474
0.285327
0.063055
0.118480
0.129299
0.245062
0.097910
0.188163
0.082581
0.107081
0.273466
0.137458
0.163141
0.113412
0.181757
0.153607
0.167850
0.154946
0.276620
0.244903
0.017696
0.100000
0.100000
0.100000
0.000000
0.000000
0.000000
0.000000
0.147125
0.142504
0.212462
0.147346
0.191683
0.064828
0.054394
0.217918
0.077455
0.047184
0.115098
0.175231
0.252818
0.214329
0.166192
0.061694
0.172261
0.083068
0.252856
0.182639
0.331596
0.100000
0.100000
0.100000
0.000000
0.000000
0.000000
0.000000
0.083031
0.128480
0.240546
0.065119
0.104272
0.191851
0.299788
0.228011
0.088444
0.089663
0.096604
0.058638
0.148474
0.200513
0.151888
0.190896
0.049479
0.067583
0.105807
0.233698
0.100000
0.227113
0.100000
0.100000
0.000000
0.000000
0.000000
0.000000
0.028304
0.078861
0.333452
0.088459
0.228857
0.163288
0.300214
0.264146
0.141396
0.172911
0.025971
0.143382
0.095488
0.125757
0.200454
0.114449
0.204890
0.092175
0.195407
0.169814
0.182664
0.276725
0.100000
0.100000
0.000000
0.000000
0.000000
0.000000
0.073308
0.043140
0.268615
0.122942
0.349517
0.143231
0.153596
0.181501
0.223097
0.114521
0.111781
0.142569
0.102820
0.313004
0.334811
0.219749
0.110346
0.252556
0.124514
0.075675
0.034182
0.113191
0.100000
0.100000
0.000000
0.000000
0.000000
0.000000
0.064558
0.103608
0.055557
0.208953
0.048154
0.164725
0.197074
0.229995
0.114401
0.116757
0.061903
0.271765
0.336237
0.148041
0.132674
0.089415
0.060556
0.231791
0.215577
0.238395
0.179591
0.087789
0.100000
0.100000
0.000000
0.000000
0.000000
0.000000
0.094225
0.022441
0.125314
0.237524
0.093051
0.179554
0.074667
0.082783
0.263740
0.105351
0.290393
0.203746
0.276133
0.212397
0.282410
0.121173
0.206352
0.230437
0.076910
0.168873
0.147917
0.061202
0.263405
0.100000
0.000000
0.000000
0.000000
0.000000
0.081453
0.086523
0.132283
0.033759
0.266905
0.026895
0.186445
0.046666
0.203753
0.106271
0.096066
0.261069
0.180557
0.050698
0.239829
0.056298
0.231567
0.206080
0.096024
0.043078
0.163811
0.132492
0.100000
0.100000
0.000000
0.000000
0.000000
0.000000
0.115297
0.041756
0.099392
0.160060
0.102316
0.128863
0.300062
0.136914
0.133833
0.135871
0.052351
0.247593
0.282883
0.338558
0.241689
0.252480
0.217883
0.168251
0.119310
0.307820
0.171692
0.253723
0.100000
0.100000
0.000000
0.000000
0.000000
0.000000
0.125463
0.148101
0.123821
0.109090
0.034735
0.050402
0.139747
0.107323
0.194033
0.192644
0.112749
0.094776
0.156005
0.071966
0.166909
0.117063
0.126216
0.134254
0.034400
0.285872
0.298631
0.129790
0.233655
0.100000
0.000000
0.000000
0.000000
0.000000
0.083038
0.133983
0.092503
0.052504
0.121942
0.119282
0.171238
0.237709
0.132527
0.091281
0.148036
0.082251
0.151297
0.286044
0.299462
0.206784
0.135226
0.083435
0.144411
0.158643
0.046851
0.115946
0.100000
0.100000
0.000000
0.000000
0.000000
0.000000
0.065723
0.076837
0.112046
0.105443
0.083000
0.091087
0.155609
0.207597
0.110949
0.054445
0.233825
0.151062
0.036786
0.225228
0.192778
0.126538
0.150049
0.141327
0.125327
0.342455
0.082832
0.375338
0.100000
0.100000
0.000000
0.000000
0.000000
0.000000
0.029723
0.160323
0.016326
0.210477
0.092866
0.179196
0.271341
0.167764
0.112978
0.142832
0.086884
0.053047
0.150895
0.294376
0.486832
0.287890
0.047971
0.201082
0.143935
0.263034
0.148880
0.453433
0.100000
0.100000
0.000000
0.000000
0.000000
0.000000
0.027392
0.093200
0.046817
0.227352
0.145910
0.237476
0.063770
0.162754
0.093237
0.172090
0.089329
0.322793
0.131465
0.040599
0.204411
0.113484
0.135790
0.120414
0.131448
0.167529
0.235373
0.381130
0.100000
0.100000
0.000000
0.000000
0.000000
0.000000
0.141290
0.048026
0.049352
0.132723
0.153027
0.021998
0.135907
0.159193
0.125537
0.049995
0.173298
0.267206
0.162085
0.165758
0.105678
0.077740
0.024099
0.206610
0.095382
0.327499
0.127427
0.100000
0.222532
0.100000
0.000000
0.000000
0.000000
0.000000
0.080786
0.108113
0.120822
0.130800
0.085411
0.091230
0.107179
0.044427
0.078156
0.120005
0.203774
0.274561
0.118624
0.139282
0.034509
0.214916
0.188417
0.138788
0.163049
0.405682
0.240862
0.259228
0.100000
0.100000
0.000000
0.000000
0.000000
0.000000
0.092239
0.076735
0.092582
0.056256
0.112886
0.055903
0.022464
0.261495
0.213961
0.277848
0.113568
0.017706
0.116692
0.128816
0.103887
0.071769
0.211930
0.228460
0.327349
0.323188
0.161027
0.246805
0.100000
0.100000
0.000000
0.000000
0.000000
0.000000
0.034968
0.086927
0.056326
0.042274
0.077004
0.065289
0.134897
0.088723
0.091898
0.053015
0.206282
0.064874
0.149222
0.198256
0.131566
0.155192
0.216353
0.208473
0.290358
0.052834
0.175282
0.100000
0.100000
0.100000
0.000000
0.000000
0.000000
0.000000
0.103783
0.085133
0.045441
0.111316
0.093268
0.074318
0.041915
0.044661
0.128024
0.112381
0.136630
0.098075
0.094151
0.136459
0.065761
0.168448
0.046844
0.167850
0.267572
0.141513
0.239659
0.185915
0.100000
0.100000
0.000000
0.000000
0.000000
0.000000
0.067280
0.020472
0.054070
0.025206
0.118608
0.144424
0.121232
0.136547
0.151343
0.044391
0.095448
0.134980
0.042933
0.034711
0.028178
0.180803
0.108057
0.263457
0.123602
0.041281
0.200290
0.110407
0.100000
0.100000
0.000000
0.000000
0.000000
0.000000
0.129662
0.106302
0.140101
0.054538
0.126003
0.112274
0.193885
0.055035
0.038191
0.073718
0.155933
0.282462
0.176685
0.167751
0.089090
0.105040
0.036917
0.161881
0.138401
0.282474
0.175383
0.164980
0.100000
0.100000
0.000000
0.000000
0.000000
0.000000
0.130656
0.088874
0.083217
0.071211
0.087281
0.068693
0.108767
0.085768
0.171918
0.321353
0.086115
0.143637
0.130322
0.093246
0.269991
0.156217
0.127568
0.136839
0.041137
0.171376
0.097625
0.284100
0.100000
0.100000
0.000000
0.000000
0.000000
0.000000
0.054410
0.162760
0.123174
0.021146
0.045086
0.158749
0.183336
0.205434
0.167407
0.204856
0.051780
0.195315
0.193250
0.038355
0.105346
0.066462
0.132488
0.069302
0.049943
0.071606
0.057698
0.183164
0.100000
0.100000
0.000000
0.000000
0.000000
0.000000
0.083892
0.096165
0.057731
0.103707
0.160284
0.100986
0.082566
0.076408
0.234666
0.084471
0.070246
0.159842
0.100395
0.152634
0.198019
0.136132
0.160321
0.099729
0.134868
0.092532
0.138397
0.295546
0.100000
0.100000
0.000000
0.000000
0.000000
0.000000
0.059395
0.130447
0.062366
0.071489
0.114513
0.097453
0.090753
0.118770
0.106039
0.252331
0.151126
0.229738
0.141675
0.179159
0.074691
0.152197
0.155193
0.084570
0.142767
0.170346
0.434154
0.377603
0.100000
0.100000
0.000000
0.000000
0.000000
0.000000
0.038277
0.083280
0.137313
0.024079
0.116964
0.145853
0.147207
0.118767
0.132006
0.054074
0.178296
0.219125
0.151562
0.227629
0.235578
0.309434
0.196751
0.096273
0.265525
0.270037
0.191398
0.295812
0.100000
0.100000
0.000000
0.000000
0.000000
0.000000
0.059318
0.032132
0.327256
0.088831
0.175094
0.094471
0.009139
0.152841
0.156310
0.181703
0.115937
0.064958
0.103003
0.042682
0.223513
0.273672
0.137548
0.161523
0.137822
0.234307
0.166991
0.275515
0.100000
0.100000
0.000000
0.000000
0.000000
0.000000
0.259952
0.201609
0.118913
0.181684
0.185181
0.122421
0.104536
0.092995
0.087688
0.203098
0.091412
0.127538
0.265505
0.179040
0.152270
0.326717
0.122191
0.131978
0.096230
0.064539
0.345863
0.177447
0.100000
0.100000
0.000000
0.000000
0.000000
0.000000
0.186910
0.090119
0.150827
0.184394
0.198152
0.148446
0.399029
0.145532
0.139580
0.097802
0.187765
0.291515
0.192096
0.188625
0.164988
0.204357
0.173540
0.100829
0.108387
0.044620
0.124053
0.348527
0.100000
0.100000
0.000000
0.000000
0.000000
0.000000
0.102105
0.206510
0.083044
0.080888
0.093205
0.093274
0.180941
0.032513
0.313944
0.126749
0.039986
0.344013
0.207789
0.009793
0.178416
0.191028
0.109014
0.033959
0.070112
0.204119
0.140973
0.482876
0.100000
0.100000
0.000000
0.000000
0.000000
0.000000
0.087656
0.059874
0.088766
0.040445
0.064898
0.112954
0.494696
0.184867
0.236816
0.345391
0.162110
0.239500
0.157859
0.142743
0.110016
0.131347
0.099668
0.178539
0.179454
0.180627
0.109434
0.314690
0.100000
0.100000
0.000000
0.000000
0.000000
0.000000
0.198848
0.067896
0.198999
0.287394
0.322886
0.123514
0.342217
0.107725
0.109483
0.225234
0.067965
0.069891
0.141420
0.034388
0.054002
0.070497
0.233820
0.140419
0.163488
0.166572
0.271754
0.646446
0.116408
0.100000
0.000000
0.000000
0.000000
0.000000
0.087783
0.095953
0.052226
0.231809
0.332719
0.104710
0.173032
0.298776
0.048097
0.165160
0.059234
0.150555
0.066127
0.148004
0.029699
0.042704
0.159047
0.074085
0.359813
0.121420
0.093016
0.565625
0.392905
0.100000
0.000000
0.000000
0.000000
0.000000
0.202803
0.031452
0.142725
0.152994
0.111734
0.078813
0.152724
0.497676
0.087396
0.283813
0.050026
0.097568
0.203045
0.076925
0.273002
0.053199
0.270764
0.183911
0.139978
0.208014
0.009246
0.357137
0.241377
0.100000
0.000000
0.000000
0.000000
0.000000
0.009613
0.160553
0.212894
0.259320
0.244802
0.318592
0.043867
0.177046
0.329369
0.084925
0.191143
0.237472
0.092738
0.085261
0.231616
0.149636
0.210806
0.037146
0.205992
0.302088
0.205724
0.215775
0.229427
0.100000
0.000000
0.000000
0.000000
0.000000
0.104681
0.141527
0.080906
0.120734
0.076182
0.215572
0.209380
0.397540
0.022533
0.295158
0.141862
0.034312
0.278790
0.053709
0.187950
0.096161
0.135686
0.263833
0.187911
0.284932
0.211330
0.252212
0.234498
0.100000
0.000000
0.000000
0.000000
0.000000
0.112545
0.104639
0.152579
0.160950
0.346941
0.199338
0.353715
0.237560
0.165058
0.054245
0.437672
0.267835
0.257072
0.284680
0.148686
0.173769
0.213389
0.250666
0.230088
0.088746
0.336475
0.156850
0.198517
0.100000
0.000000
0.000000
0.000000
0.000000
0.053014
0.104159
0.203596
0.301979
0.096138
0.122724
0.124238
0.171403
0.161772
0.059377
0.138090
0.259136
0.094409
0.074623
0.087330
0.247378
0.237790
0.173672
0.045848
0.072244
0.028113
0.343392
0.142376
0.100000
0.000000
0.000000
0.000000
0.000000
0.000000
0.000000
0.000000
0.000000
0.000000
0.000000
0.000000
0.000000
0.000000
0.000000
0.000000
0.000000
0.000000
0.000000
0.000000
0.000000
0.000000
0.000000
0.000000
0.000000
0.000000
0.000000
0.000000
0.000000
0.000000
0.000000
0.000000
0.000000
0.000000
0.000000
0.000000
0.000000
0.000000
0.000000
0.000000
0.000000
0.000000
0.000000
0.000000
0.000000
0.000000
0.000000
0.000000
0.000000
0.000000
0.000000
0.000000
0.000000
0.000000
0.000000
0.000000
0.000000
0.000000
0.000000
0.000000
0.000000
0.000000
0.000000
0.000000
0.000000
0.000000
0.000000
0.000000
0.000000
0.000000
0.000000
0.000000
0.000000
0.000000
0.000000
0.000000
0.000000
0.000000
0.000000
0.000000
0.000000
0.000000
0.000000
0.000000
0.000000
0.000000
0.000000
0.000000
0.000000
0.000000
0.000000
0.000000
0.000000
0.000000
0.000000
0.000000
0.000000
0.000000
0.000000
0.000000
0.000000
0.000000
0.000000
0.000000
0.000000
0.000000
0.000000
0.000000
0.000000
0.000000
0.000000
0.000000
0.000000
</DataArray>
<DataArray NumberOfComponents='1' type='Float32' Name='pressure' format='ascii'>
0.000000
0.000000
0.000000
0.000000
0.000000
0.000000
0.000000
0.000000
0.000000
0.000000
0.000000
0.000000
0.000000
0.000000
0.000000
0.000000
0.000000
0.000000
0.000000
0.000000
0.000000
0.000000
0.000000
0.000000
0.000000
0.000000
0.000000
0.000000
0.000000
0.000000
0.000000
0.000000
0.000000
0.000000
0.000000
0.000000
0.000000
0.000000
0.000000
0.000000
0.000000
0.000000
0.000000
0.000000
0.000000
0.000000
0.000000
0.000000
0.000000
0.000000
0.000000
0.000000
0.000000
0.000000
0.000000
0.000000
0.000000
0.000000
34858.722656
34737.187500
34579.941406
34714.632812
33953.046875
33670.316406
32968.601562
33357.339844
32505.076172
32746.316406
31661.824219
32685.738281
32506.511719
32138.925781
31875.757812
32029.847656
32102.884766
31972.496094
33183.230469
33660.195312
33232.738281
33364.621094
33888.531250
30977.464844
24110.458984
0.000000
0.000000
0.000000
34920.089844
35188.750000
34356.937500
34020.628906
33562.726562
33096.824219
33253.328125
33201.582031
31662.896484
32399.113281
31439.337891
32772.808594
32644.017578
32300.253906
32519.664062
32708.224609
32608.552734
32195.871094
32921.769531
34651.640625
33497.980469
34199.753906
36103.125000
34846.761719
32639.408203
0.000000
0.000000
0.000000
35305.558594
35055.968750
33468.863281
34357.964844
33448.933594
33230.957031
32946.101562
32897.085938
32307.910156
32260.462891
32549.238281
32106.074219
32232.744141
32731.429688
32732.646484
33580.277344
33133.097656
34972.785156
34601.324219
35976.433594
36672.042969
41206.042969
31349.007812
28240.962891
40778.179688
39930.980469
0.000000
0.000000
35816.429688
33590.460938
32937.589844
33276.128906
33788.136719
33207.835938
32959.046875
33164.691406
32279.908203
31930.191406
31864.234375
31897.980469
31990.527344
32018.814453
32416.396484
31951.562500
33076.089844
33082.402344
34204.527344
34838.800781
36637.285156
42057.003906
49754.570312
36019.355469
44613.535156
34742.953125
0.000000
0.000000
35936.617188
34460.289062
34309.992188
33526.167969
33149.253906
33316.542969
32814.628906
32408.531250
31917.162109
32073.533203
32248.806641
31320.117188
31790.771484
31638.677734
31607.591797
32269.123047
32326.568359
33033.429688
33499.812500
34826.734375
36498.257812
37728.339844
40686.484375
39760.570312
25236.128906
0.000000
0.000000
0.000000
35164.078125
35355.894531
32729.169922
33503.386719
32923.468750
32990.097656
33142.371094
31923.455078
32729.957031
32159.113281
31776.927734
31839.654297
31436.421875
31604.837891
30925.576172
31221.406250
30660.632812
32039.958984
32958.566406
33626.371094
33700.320312
35510.300781
38040.121094
47860.503906
25388.750000
15269.387695
0.000000
0.000000
34469.144531
34359.742188
33600.968750
33257.519531
33141.156250
32217.269531
32203.650391
31851.482422
32181.265625
31361.300781
31122.425781
31469.644531
30658.050781
30636.341797
31403.091797
31074.589844
30413.394531
31686.929688
32196.320312
32491.832031
31615.232422
35422.382812
35041.285156
38720.410156
23678.509766
16403.679688
0.000000
0.000000
34153.824219
33703.917969
33956.792969
33259.214844
32224.494141
33470.808594
32545.677734
32448.396484
32112.289062
31935.353516
32074.152344
31902.585938
31018.281250
31160.880859
29824.287109
30078.472656
30073.242188
29872.042969
30586.492188
31118.712891
31057.066406
29745.138672
32864.621094
28999.042969
17096.503906
15802.977539
0.000000
0.000000
34782.726562
34710.402344
33341.902344
34018.492188
33837.550781
33105.812500
32584.515625
32362.511719
32187.474609
31572.298828
31215.636719
31415.474609
30738.341797
30034.941406
30600.021484
29645.431641
29729.314453
28558.779297
29077.318359
29259.560547
29881.554688
28243.046875
26478.750000
28562.978516
21524.148438
14661.306641
0.000000
0.000000
33998.710938
33682.542969
33591.500000
33776.078125
32768.855469
33228.070312
33056.300781
32328.630859
32507.904297
31990.724609
31882.861328
30766.960938
30909.130859
29974.064453
29530.832031
29523.208984
28441.714844
27978.904297
26431.794922
27517.570312
26815.855469
23985.130859
26203.714844
24891.546875
20598.919922
14492.183594
0.000000
0.000000
34530.351562
34403.562500
33689.808594
33215.355469
33390.968750
33371.328125
32716.902344
32859.640625
31987.136719
31618.464844
31415.914062
31263.953125
30644.230469
29991.636719
29536.992188
28396.498047
27829.369141
27355.597656
26563.431641
26502.050781
25493.082031
24622.238281
22088.267578
23038.632812
15778.139648
13038.641602
0.000000
0.000000
34157.496094
33918.617188
34449.507812
33941.039062
33501.390625
32934.933594
32427.197266
32425.599609
32130.009766
31994.123047
30667.669922
30889.390625
29882.966797
28698.625000
28668.451172
27872.933594
26373.826172
26446.332031
24709.339844
23971.033203
22083.087891
23363.574219
20700.595703
21414.300781
14034.362305
10850.945312
0.000000
0.000000
34466.820312
34968.921875
33513.816406
33301.593750
33170.398438
33109.855469
32257.585938
33100.203125
31225.154297
32003.767578
31034.660156