<?xml version='1.0' encoding='UTF-8'?>
<VTKFile xmlns='VTK' byte_order='LittleEndian' version='0.1' type='UnstructuredGrid'>
<UnstructuredGrid>
<Piece NumberOfCells='1344' NumberOfPoints='1344'>
<Points>
<DataArray NumberOfComponents='3' type='Float32' Name='Position' format='ascii'>
-0.075000 -0.075000 0.000000
-0.075000 -0.050000 0.000000
-0.075000 -0.025000 0.000000
-0.075000 0.000000 0.000000
-0.075000 0.025000 0.000000
-0.075000 0.050000 0.000000
-0.075000 0.075000 0.000000
-0.075000 0.100000 0.000000
-0.075000 0.125000 0.000000
-0.075000 0.150000 0.000000
-0.075000 0.175000 0.000000
-0.075000 0.200000 0.000000
-0.075000 0.225000 0.000000
-0.075000 0.250000 0.000000
-0.075000 0.275000 0.000000
-0.075000 0.300000 0.000000
-0.075000 0.325000 0.000000
-0.075000 0.350000 0.000000
-0.075000 0.375000 0.000000
-0.075000 0.400000 0.000000
-0.075000 0.425000 0.000000
-0.075000 0.450000 0.000000
-0.075000 0.475000 0.000000
-0.075000 0.500000 0.000000
-0.075000 0.525000 0.000000
-0.075000 0.550000 0.000000
-0.075000 0.575000 0.000000
-0.075000 0.600000 0.000000
-0.050000 -0.075000 0.000000
-0.050000 -0.050000 0.000000
-0.050000 -0.025000 0.000000
-0.050000 0.000000 0.000000
-0.050000 0.025000 0.000000
-0.050000 0.050000 0.000000
-0.050000 0.075000 0.000000
-0.050000 0.100000 0.000000
-0.050000 0.125000 0.000000
-0.050000 0.150000 0.000000
-0.050000 0.175000 0.000000
-0.050000 0.200000 0.000000
-0.050000 0.225000 0.000000
-0.050000 0.250000 0.000000
-0.050000 0.275000 0.000000
-0.050000 0.300000 0.000000
-0.050000 0.325000 0.000000
-0.050000 0.350000 0.000000
-0.050000 0.375000 0.000000
-0.050000 0.400000 0.000000
-0.050000 0.425000 0.000000
-0.050000 0.450000 0.000000
-0.050000 0.475000 0.000000
-0.050000 0.500000 0.000000
-0.050000 0.525000 0.000000
-0.050000 0.550000 0.000000
-0.050000 0.575000 0.000000
-0.050000 0.600000 0.000000
-0.025000 -0.075000 0.000000
-0.025000 -0.050000 0.000000
-0.025000 -0.025000 0.000000
-0.025000 0.000000 0.000000
-0.025000 0.025000 0.000000
-0.025000 0.050000 0.000000
-0.025000 0.075000 0.000000
-0.025000 0.100000 0.000000
-0.025000 0.125000 0.000000
-0.025000 0.150000 0.000000
-0.025000 0.175000 0.000000
-0.025000 0.200000 0.000000
-0.025000 0.225000 0.000000
-0.025000 0.250000 0.000000
-0.025000 0.275000 0.000000
-0.025000 0.300000 0.000000
-0.025000 0.325000 0.000000
-0.025000 0.350000 0.000000
-0.025000 0.375000 0.000000
-0.025000 0.400000 0.000000
-0.025000 0.425000 0.000000
-0.025000 0.450000 0.000000
-0.025000 0.475000 0.000000
-0.025000 0.500000 0.000000
-0.025000 0.525000 0.000000
-0.025000 0.550000 0.000000
-0.025000 0.575000 0.000000
-0.025000 0.600000 0.000000
0.000000 -0.075000 0.000000
0.000000 -0.050000 0.000000
0.000000 -0.025000 0.000000
0.000000 0.000000 0.000000
0.000000 0.025000 0.000000
0.000000 0.050000 0.000000
0.000000 0.075000 0.000000
0.000000 0.100000 0.000000
0.000000 0.125000 0.000000
0.000000 0.150000 0.000000
0.000000 0.175000 0.000000
0.000000 0.200000 0.000000
0.000000 0.225000 0.000000
0.000000 0.250000 0.000000
0.000000 0.275000 0.000000
0.000000 0.300000 0.000000
0.000000 0.325000 0.000000
0.000000 0.350000 0.000000
0.000000 0.375000 0.000000
0.000000 0.400000 0.000000
0.000000 0.425000 0.000000
0.000000 0.450000 0.000000
0.000000 0.475000 0.000000
0.000000 0.500000 0.000000
0.000000 0.525000 0.000000
0.000000 0.550000 0.000000
0.000000 0.575000 0.000000
0.000000 0.600000 0.000000
0.025000 -0.075000 0.000000
0.025000 -0.050000 0.000000
0.025000 -0.025000 0.000000
0.025000 0.000000 0.000000
0.046966 0.022136 0.000000
0.089492 0.021666 0.000000
0.022218 0.028694 0.000000
0.024709 0.114348 0.000000
0.051528 0.145590 0.000000
0.069872 0.267079 0.000000
0.023188 0.186393 0.000000
0.050335 0.214011 0.000000
0.031696 0.233640 0.000000
0.023054 0.256093 0.000000
0.022242 0.359627 0.000000
0.022284 0.405330 0.000000
0.022929 0.468141 0.000000
0.024086 0.498858 0.000000
0.023457 0.529018 0.000000
0.045942 0.556489 0.000000
0.056227 0.580021 0.000000
0.085024 0.579670 0.000000
0.113005 0.580823 0.000000
0.057154 0.600000 0.000000
0.037203 0.600000 0.000000
0.015363 0.600000 0.000000
0.160480 0.600000 0.000000
0.180524 0.600000 0.000000
0.050000 -0.075000 0.000000
0.050000 -0.050000 0.000000
0.050000 -0.025000 0.000000
0.050000 0.000000 0.000000
0.117014 0.024728 0.000000
0.084455 0.054306 0.000000
0.024243 0.064047 0.000000
0.024320 0.089405 0.000000
0.026461 0.140548 0.000000
0.027816 0.161761 0.000000
0.050460 0.246938 0.000000
0.045267 0.275549 0.000000
0.023684 0.283813 0.000000
0.045456 0.348477 0.000000
0.025844 0.332162 0.000000
0.030905 0.381525 0.000000
0.022648 0.437676 0.000000
0.043707 0.464867 0.000000
0.046366 0.492356 0.000000
0.022516 0.554565 0.000000
0.059451 0.535241 0.000000
0.113109 0.537615 0.000000
0.026622 0.579943 0.000000
0.098436 0.600000 0.000000
0.119794 0.600000 0.000000
0.077961 0.600000 0.000000
0.197315 0.576801 0.000000
0.200493 0.600000 0.000000
0.075000 -0.075000 0.000000
0.075000 -0.050000 0.000000
0.075000 -0.025000 0.000000
0.075000 0.000000 0.000000
0.108452 0.050505 0.000000
0.072031 0.034619 0.000000
0.039337 0.046859 0.000000
0.050931 0.120149 0.000000
0.074065 0.222411 0.000000
0.048423 0.184903 0.000000
0.132048 0.253911 0.000000
0.025435 0.211443 0.000000
0.054088 0.297610 0.000000
0.025505 0.309678 0.000000
0.071333 0.356175 0.000000
0.072774 0.330430 0.000000
0.049166 0.399417 0.000000
0.041074 0.427612 0.000000
0.062144 0.451748 0.000000
0.067639 0.481857 0.000000
0.148273 0.535354 0.000000
0.130045 0.554307 0.000000
0.073431 0.555405 0.000000
0.100370 0.557219 0.000000
0.140837 0.578231 0.000000
0.140288 0.600000 0.000000
0.220148 0.600000 0.000000
0.239038 0.600000 0.000000
0.100000 -0.075000 0.000000
0.100000 -0.050000 0.000000
0.100000 -0.025000 0.000000
0.100000 0.000000 0.000000
0.129883 0.077219 0.000000
0.073198 0.104168 0.000000
0.062998 0.167834 0.000000
0.046741 0.093729 0.000000
0.070589 0.194812 0.000000
0.071832 0.130636 0.000000
0.094681 0.273805 0.000000
0.109358 0.246660 0.000000
0.075005 0.245659 0.000000
0.051753 0.322683 0.000000
0.076909 0.386400 0.000000
0.055755 0.374951 0.000000
0.080487 0.440012 0.000000
0.088107 0.469497 0.000000
0.090555 0.493768 0.000000
0.073179 0.510438 0.000000
0.044383 0.518028 0.000000
0.086086 0.530779 0.000000
0.181129 0.530937 0.000000
0.207282 0.529783 0.000000
0.158344 0.555561 0.000000
0.169430 0.578960 0.000000
0.252713 0.577073 0.000000
0.257422 0.600000 0.000000
0.125000 -0.075000 0.000000
0.125000 -0.050000 0.000000
0.125000 -0.025000 0.000000
0.125000 0.000000 0.000000
0.123104 0.105628 0.000000
0.105502 0.071050 0.000000
0.085137 0.153711 0.000000
0.142571 0.232702 0.000000
0.101008 0.229735 0.000000
0.141816 0.209531 0.000000
0.140379 0.276848 0.000000
0.094074 0.332994 0.000000
0.075845 0.296727 0.000000
0.095533 0.364705 0.000000
0.086699 0.413341 0.000000
0.062677 0.419666 0.000000
0.127709 0.441266 0.000000
0.115915 0.468354 0.000000
0.139897 0.467279 0.000000
0.117881 0.491667 0.000000
0.108174 0.513886 0.000000
0.134606 0.516071 0.000000
0.161978 0.512488 0.000000
0.212607 0.552625 0.000000
0.225017 0.576760 0.000000
0.184774 0.553534 0.000000
0.282045 0.577019 0.000000
0.276621 0.600000 0.000000
0.150000 -0.075000 0.000000
0.150000 -0.050000 0.000000
0.150000 -0.025000 0.000000
0.150000 0.000000 0.000000
0.138727 0.030637 0.000000
0.148149 0.109334 0.000000
0.091790 0.091404 0.000000
0.057278 0.060407 0.000000
0.093542 0.177127 0.000000
0.092668 0.203033 0.000000
0.120657 0.209918 0.000000
0.161296 0.252320 0.000000
0.114596 0.276852 0.000000
0.097015 0.300523 0.000000
0.135609 0.350831 0.000000
0.103235 0.444903 0.000000
0.099734 0.393650 0.000000
0.112761 0.418401 0.000000
0.136772 0.387004 0.000000
0.150501 0.441741 0.000000
0.165734 0.464579 0.000000
0.144505 0.492566 0.000000
0.187968 0.507036 0.000000
0.213013 0.502035 0.000000
0.230573 0.524718 0.000000
0.238286 0.553149 0.000000
0.295782 0.600000 0.000000
0.314308 0.600000 0.000000
0.175000 -0.075000 0.000000
0.175000 -0.050000 0.000000
0.175000 -0.025000 0.000000
0.175000 0.000000 0.000000
0.161950 0.022889 0.000000
0.150041 0.081893 0.000000
0.126711 0.129232 0.000000
0.102904 0.114372 0.000000
0.100550 0.138502 0.000000
0.117561 0.159460 0.000000
0.150463 0.185311 0.000000
0.162427 0.155229 0.000000
0.176382 0.203940 0.000000
0.167035 0.226375 0.000000
0.166223 0.278119 0.000000
0.113550 0.345806 0.000000
0.156767 0.371363 0.000000
0.184118 0.402927 0.000000
0.132946 0.412729 0.000000
0.178889 0.442719 0.000000
0.221668 0.452362 0.000000
0.198030 0.458553 0.000000
0.171036 0.486685 0.000000
0.197488 0.481255 0.000000
0.239344 0.499128 0.000000
0.253195 0.533762 0.000000
0.338439 0.575874 0.000000
0.334412 0.600000 0.000000
0.200000 -0.075000 0.000000
0.200000 -0.050000 0.000000
0.200000 -0.025000 0.000000
0.200000 0.000000 0.000000
0.163207 0.057643 0.000000
0.136871 0.051784 0.000000
0.200996 0.123148 0.000000
0.067433 0.078768 0.000000
0.183502 0.145710 0.000000
0.115726 0.186541 0.000000
0.267831 0.127255 0.000000
0.262031 0.105464 0.000000
0.173081 0.183072 0.000000
0.184413 0.254086 0.000000
0.156923 0.302264 0.000000
0.133484 0.302652 0.000000
0.114569 0.316652 0.000000
0.140307 0.326332 0.000000
0.116855 0.376748 0.000000
0.164141 0.420825 0.000000
0.197200 0.428410 0.000000
0.225050 0.478183 0.000000
0.261437 0.510083 0.000000
0.290475 0.509759 0.000000
0.280661 0.532056 0.000000
0.267828 0.555476 0.000000
0.366982 0.578201 0.000000
0.353283 0.600000 0.000000
0.225000 -0.075000 0.000000
0.225000 -0.050000 0.000000
0.225000 -0.025000 0.000000
0.225000 0.000000 0.000000
0.188052 0.024151 0.000000
0.177069 0.077998 0.000000
0.147388 0.138144 0.000000
0.136837 0.166783 0.000000
0.200319 0.079499 0.000000
0.205712 0.102780 0.000000
0.252523 0.159093 0.000000
0.216276 0.142206 0.000000
0.194158 0.166103 0.000000
0.209188 0.182231 0.000000
0.190316 0.280005 0.000000
0.189643 0.354752 0.000000
0.159563 0.348549 0.000000
0.181331 0.379403 0.000000
0.157961 0.398762 0.000000
[...]
<PointData>
<DataArray NumberOfComponents='1' type='Int32' Name='ParticleType' format='ascii'>
3
3
3
3
3
3
3
3
3
3
3
3
3
3
3
3
3
3
3
3
3
3
3
3
3
3
3
3
3
3
3
3
3
3
3
3
3
3
3
3
3
3
3
3
3
3
3
3
3
3
3
3
3
3
3
3
3
3
2
2
2
2
2
2
2
2
2
2
2
2
2
2
2
2
2
2
2
2
2
2
2
2
2
2
3
3
2
2
2
2
2
2
2
2
2
2
2
2
2
2
2
2
2
2
2
2
2
2
2
2
2
2
3
3
2
2
0
0
0
0
0
0
0
0
0
0
0
0
0
0
0
0
0
0
0
0
0
0
0
0
3
3
2
2
0
0
0
0
0
0
0
0
0
0
0
0
0
0
0
0
0
0
0
0
0
0
0
0
3
3
2
2
0
0
0
0
0
0
0
0
0
0
0
0
0
0
0
0
0
0
0
0
0
0
0
0
3
3
2
2
0
0
0
0
0
0
0
0
0
0
0
0
0
0
0
0
0
0
0
0
0
0
0
0
3
3
2
2
0
0
0
0
0
0
0
0
0
0
0
0
0
0
0
0
0
0
0
0
0
0
0
0
3
3
2
2
0
0
0
0
0
0
0
0
0
0
0
0
0
0
0
0
0
0
0
0
0
0
0
0
3
3
2
2
0
0
0
0
0
0
0
0
0
0
0
0
0
0
0
0
0
0
0
0
0
0
0
0
3
3
2
2
0
0
0
0
0
0
0
0
0
0
0
0
0
0
0
0
0
0
0
0
0
0
0
0
3
3
2
2
0
0
0
0
0
0
0
0
0
0
0
0
0
0
0
0
0
0
0
0
0
0
0
0
3
3
2
2
0
0
0
0
0
0
0
0
0
0
0
0
0
0
0
0
0
0
0
0
0
0
0
0
3
3
2
2
0
0
0
0
0
0
0
0
0
0
0
0
0
0
0
0
0
0
0
0
0
0
0
0
3
3
2
2
0
0
0
0
0
0
0
0
0
0
0
0
0
0
0
0
0
0
0
0
0
0
0
0
3
3
2
2
0
0
0
0
0
0
0
0
0
0
0
0
0
0
0
0
0
0
0
0
0
0
0
0
3
3
2
2
0
0
0
0
0
0
0
0
0
0
0
0
0
0
0
0
0
0
0
0
0
0
0
0
3
3
2
2
0
0
0
0
0
0
0
0
0
0
0
0
0
0
0
0
0
0
0
0
0
0
0
0
3
3
2
2
0
0
0
0
0
0
0
0
0
0
0
0
0
0
0
0
0
0
0
0
0
0
0
0
3
3
2
2
0
0
0
0
0
0
0
0
0
0
0
0
0
0
0
0
0
0
0
0
0
0
0
0
3
3
2
2
0
0
0
0
0
0
0
0
0
0
0
0
0
0
0
0
0
0
0
0
0
0
0
0
3
3
2
2
0
0
0
0
0
0
0
0
0
0
0
0
0
0
0
0
0
0
0
0
0
0
0
0
3
3
2
2
0
0
0
0
0
0
0
0
0
0
0
0
0
0
0
0
0
0
0
0
0
0
0
0
3
3
2
2
0
0
0
0
0
0
0
0
0
0
0
0
0
0
0
0
0
0
0
0
0
0
0
0
3
3
2
2
0
0
0
0
0
0
0
0
0
0
0
0
0
0
0
0
0
0
0
0
0
0
0
0
3
3
2
2
0
0
0
0
0
0
0
0
0
0
0
0
0
0
0
0
0
0
0
0
0
0
0
0
3
3
2
2
0
0
0
0
0
0
0
0
0
0
0
0
0
0
0
0
0
0
0
0
0
0
0
0
3
3
2
2
0
0
0
0
0
0
0
0
0
0
0
0
0
0
0
0
0
0
0
0
0
0
0
0
3
3
2
2
0
0
0
0
0
0
0
0
0
0
0
0
0
0
0
0
0
0
0
0
0
0
0
0
3
3
2
2
0
0
0
0
0
0
0
0
0
0
0
0
0
0
0
0
0
0
0
0
0
0
0
0
3
3
2
2
0
0
0
0
0
0
0
0
0
0
0
0
0
0
0
0
0
0
0
0
0
0
0
0
3
3
2
2
0
0
0
0
0
0
0
0
0
0
0
0
0
0
0
0
0
0
0
0
0
0
0
0
3
3
2
2
0
0
0
0
0
0
0
0
0
0
0
0
0
0
0
0
0
0
0
0
0
0
0
0
3
3
2
2
0
0
0
0
0
0
0
0
0
0
0
0
0
0
0
0
0
0
0
0
0
0
0
0
3
3
2
2
0
0
0
0
0
0
0
0
0
0
0
0
0
0
0
0
0
0
0
0
0
0
0
0
3
3
2
2
0
0
0
0
0
0
0
0
0
0
0
0
0
0
0
0
0
0
0
0
0
0
0
0
3
3
2
2
0
0
0
0
0
0
0
0
0
0
0
0
0
0
0
0
0
0
0
0
0
0
0
0
3
3
2
2
0
0
0
0
0
0
0
0
0
0
0
0
0
0
0
0
0
0
0
0
0
0
0
0
3
3
2
2
0
0
0
0
0
0
0
0
0
0
0
0
0
0
0
0
0
0
0
0
0
0
0
0
3
3
2
2
0
0
0
0
0
0
0
0
0
0
0
0
0
0
0
0
0
0
0
0
0
0
0
0
3
3
2
2
0
0
0
0
0
0
0
0
0
0
0
0
0
0
0
0
0
0
0
0
0
0
0
0
3
3
2
2
0
0
0
0
0
0
0
0
0
0
0
0
0
0
0
0
0
0
0
0
0
0
0
0
3
3
2
2
0
0
0
0
0
0
0
0
0
0
0
0
0
0
0
0
0
0
0
0
0
0
0
0
3
3
2
2
2
2
2
2
2
2
2
2
2
2
2
2
2
2
2
2
2
2
2
2
2
2
2
2
3
3
2
2
2
2
2
2
2
2
2
2
2
2
2
2
2
2
2
2
2
2
2
2
2
2
2
2
3
3
3
3
3
3
3
3
3
3
3
3
3
3
3
3
3
3
3
3
3
3
3
3
3
3
3
3
3
3
3
3
3
3
3
3
3
3
3
3
3
3
3
3
3
3
3
3
3
3
3
3
3
3
3
3
</DataArray>
<DataArray NumberOfComponents='1' type='Float32' Name='Velocity' format='ascii'>
0.000000
0.000000
0.000000
0.000000
0.000000
0.000000
0.000000
0.000000
0.000000
0.000000
0.000000
0.000000
0.000000
0.000000
0.000000
0.000000
0.000000
0.000000
0.000000
0.000000
0.000000
0.000000
0.000000
0.000000
0.000000
0.000000
0.000000
0.000000
0.000000
0.000000
0.000000
0.000000
0.000000
0.000000
0.000000
0.000000
0.000000
0.000000
0.000000
0.000000
0.000000
0.000000
0.000000
0.000000
0.000000
0.000000
0.000000
0.000000
0.000000
0.000000
0.000000
0.000000
0.000000
0.000000
0.000000
0.000000
0.000000
0.000000
0.000000
0.000000
0.000000
0.000000
0.000000
0.000000
0.000000
0.000000
0.000000
0.000000
0.000000
0.000000
0.000000
0.000000
0.000000
0.000000
0.000000
0.000000
0.000000
0.000000
0.000000
0.000000
0.000000
0.000000
0.000000
0.000000
0.000000
0.000000
0.000000
0.000000
0.000000
0.000000
0.000000
0.000000
0.000000
0.000000
0.000000
0.000000
0.000000
0.000000
0.000000
0.000000
0.000000
0.000000
0.000000
0.000000
0.000000
0.000000
0.000000
0.000000
0.000000
0.000000
0.000000
0.000000
0.000000
0.000000
0.000000
0.000000
0.180312
0.161929
0.269701
0.188810
0.475339
0.154330
0.090920
0.722591
0.141903
0.140593
0.211739
0.241028
0.162333
0.219688
0.151268
0.748083
0.100000
0.100000
0.100000
0.100000
0.100000
0.100000
0.100000
0.100000
0.000000
0.000000
0.000000
0.000000
0.236368
0.132866
0.067624
0.029931
0.131022
0.159637
0.243596
0.088868
0.063665
0.282885
0.541434
0.603394
0.287409
0.468909
0.314006
0.235204
0.668861
0.390974
0.100000
0.100000
0.100000
0.100000
0.100000
0.100000
0.000000
0.000000
0.000000
0.000000
0.075300
0.267836
0.145272
0.131222
0.261393
0.258898
0.111173
0.113270
0.236273
0.091519
0.238421
0.094197
0.346934
0.486523
0.297330
0.045078
0.216490
0.358502
0.372527
0.583232
0.100000
0.100000
0.100000
0.100000
0.000000
0.000000
0.000000
0.000000
0.127911
0.525096
0.327514
0.168788
0.110781
0.489984
0.174781
0.152683
0.080926
0.097385
0.253804
0.192194
0.286000
0.275568
0.182611
0.403006
0.352972
0.322908
0.165007
0.161162
0.289921
0.100000
0.100000
0.100000
0.000000
0.000000
0.000000
0.000000
0.113330
0.044255
0.069712
0.170246
0.104478
0.116315
0.115035
0.092793
0.120408
0.137761
0.093689
0.126141
0.123185
0.192069
0.237005
0.258447
0.273430
0.158188
0.260729
0.307098
0.100000
0.320087
0.100000
0.100000
0.000000
0.000000
0.000000
0.000000
0.187335
0.108510
0.140989
0.177378
0.222405
0.126475
0.022914
0.192632
0.065406
0.226160
0.196233
0.282842
0.306319
0.159801
0.291130
0.117281
0.125635
0.153351
0.118238
0.236516
0.114462
0.255437
0.100000
0.100000
0.000000
0.000000
0.000000
0.000000
0.252784
0.073388
0.096900
0.087149
0.112009
0.190559
0.224876
0.295321
0.169125
0.281007
0.203873
0.097856
0.275523
0.123191
0.144612
0.257834
0.016223
0.099652
0.104632
0.032352
0.111889
0.256618
0.100000
0.100000
0.000000
0.000000
0.000000
0.000000
0.347968
0.197690
0.225572
0.222228
0.311886
0.239990
0.070711
0.101082
0.120393
0.146528
0.283753
0.248928
0.228471
0.110916
0.336167
0.215493
0.121668
0.066245
0.235446
0.184639
0.177348
0.048625
0.100000
0.100000
0.000000
0.000000
0.000000
0.000000
0.089410
0.045779
0.146034
0.181314
0.094346
0.248588
0.127044
0.270596
0.103470
0.076299
0.057410
0.102864
0.026438
0.051109
0.107461
0.148708
0.164442
0.122345
0.098659
0.059761
0.195727
0.206583
0.100000
0.100000
0.000000
0.000000
0.000000
0.000000
0.006360
0.146393
0.264265
0.291379
0.186459
0.181202
0.112215
0.308790
0.095970
0.082263
0.121852
0.209753
0.234893
0.164953
0.061022
0.161308
0.154520
0.136979
0.332775
0.231840
0.042052
0.026554
0.100000
0.100000
0.000000
0.000000
0.000000
0.000000
0.102229
0.136997
0.081806
0.112498
0.195852
0.146038
0.234213
0.226828
0.383155
0.125327
0.182842
0.459854
0.092611
0.217851
0.240281
0.156106
0.375055
0.103820
0.106132
0.209717
0.222605
0.100000
0.100000
0.100000
0.000000
0.000000
0.000000
0.000000
0.124962
0.080308
0.126016
0.205694
0.117020
0.080400
0.100859
0.139174
0.305910
0.042178
0.126824
0.112558
0.207830
0.123574
0.062407
0.072568
0.101406
0.230876
0.224750
0.040553
0.253939
0.223931
0.328377
0.100000
0.000000
0.000000
0.000000
0.000000
0.038616
0.135634
0.189040
0.081482
0.376219
0.067579
0.184815
0.175638
0.120917
0.190396
0.289674
0.174414
0.109521
0.138805
0.119756
0.181661
0.209166
0.159485
0.062368
0.282371
0.283128
0.253606
0.100000
0.100000
0.000000
0.000000
0.000000
0.000000
0.131008
0.211275
0.075618
0.297439
0.061366
0.163567
0.293682
0.084869
0.242134
0.174600
0.267501
0.277463
0.286614
0.102915
0.087693
0.158940
0.088919
0.175885
0.125037
0.168755
0.074718
0.100000
0.464188
0.100000
0.000000
0.000000
0.000000
0.000000
0.050700
0.158982
0.147077
0.307465
0.107493
0.119135
0.274519
0.144973
0.107924
0.260418
0.202831
0.381886
0.184233
0.174763
0.120826
0.110430
0.189113
0.140469
0.119474
0.159813
0.058573
0.321481
0.100000
0.100000
0.000000
0.000000
0.000000
0.000000
0.053531
0.148334
0.193262
0.194023
0.018465
0.168021
0.100670
0.266013
0.201547
0.409084
0.037301
0.205330
0.301562
0.075056
0.236598
0.214231
0.094460
0.169776
0.197432
0.189675
0.241001
0.218539
0.100000
0.100000
0.000000
0.000000
0.000000
0.000000
0.055830
0.120037
0.102824
0.144852
0.198095
0.116567
0.177615
0.338272
0.150044
0.312989
0.073570
0.043510
0.068382
0.187457
0.152643
0.339872
0.165522
0.256200
0.239005
0.177916
0.154981
0.139490
0.326410
0.100000
0.000000
0.000000
0.000000
0.000000
0.027717
0.128114
0.048829
0.125826
0.172190
0.035571
0.077862
0.135503
0.135847
0.214244
0.291349
0.118906
0.344156
0.239439
0.174407
0.166013
0.142903
0.203233
0.079809
0.381568
0.207796
0.265922
0.056810
0.100000
0.000000
0.000000
0.000000
0.000000
0.072374
0.051809
0.096633
0.087790
0.106814
0.157817
0.206517
0.041253
0.079477
0.146612
0.157966
0.161760
0.102774
0.193472
0.116905
0.123520
0.198962
0.201202
0.159559
0.139748
0.169802
0.203380
0.168708
0.100000
0.000000
0.000000
0.000000
0.000000
0.075080
0.111131
0.111997
0.054826
0.024369
0.171626
0.056022
0.161446
0.076315
0.183671
0.288755
0.057341
0.140436
0.087881
0.161110
0.199563
0.111575
0.059178
0.248872
0.080175
0.446967
0.012115
0.100000
0.100000
0.000000
0.000000
0.000000
0.000000
0.178317
0.095817
0.074885
0.150043
0.043906
0.194295
0.163511
0.109595
0.217404
0.148761
0.116182
0.095117
0.083094
0.311099
0.115266
0.127533
0.033888
0.140231
0.208007
0.181498
0.133911
0.365864
0.205678
0.100000
0.000000
0.000000
0.000000
0.000000
0.016120
0.020990
0.168677
0.058835
0.342866
0.329353
0.078066
0.104109
0.153458
0.129286
0.077556
0.152808
0.201274
0.136259
0.153588
0.061893
0.056214
0.103639
0.048964
0.325665
0.371754
0.216316
0.094772
0.100000
0.000000
0.000000
0.000000
0.000000
0.099760
0.122344
0.178432
0.183250
0.074143
0.143277
0.207511
0.104225
0.185229
0.021027
0.143778
0.111271
0.153679
0.159796
0.380225
0.138446
0.103386
0.058928
0.234522
0.269900
0.288425
0.436838
0.451705
0.100000
0.000000
0.000000
0.000000
0.000000
0.065272
0.273806
0.026132
0.032025
0.180868
0.107473
0.340688
0.114567
0.154673
0.147505
0.212166
0.121451
0.168399
0.134260
0.087346
0.289671
0.195364
0.219315
0.086291
0.247854
0.290994
0.209676
0.468795
0.100000
0.000000
0.000000
0.000000
0.000000
0.072156
0.096553
0.039132
0.075245
0.214121
0.097399
0.299224
0.076706
0.104032
0.030510
0.212833
0.112002
0.050836
0.061539
0.152632
0.009351
0.301998
0.132237
0.249070
0.197949
0.125378
0.292348
0.353882
0.100000
0.000000
0.000000
0.000000
0.000000
0.061629
0.236452
0.091053
0.110143
0.150462
0.286112
0.201150
0.070041
0.067839
0.023436
0.152884
0.088497
0.067991
0.112245
0.070548
0.235633
0.124467
0.066825
0.293619
0.249746
0.210851
0.173916
0.100000
0.100000
0.000000
0.000000
0.000000
0.000000
0.068494
0.088855
0.144695
0.161054
0.046265
0.253076
0.112785
0.051382
0.164978
0.148000
0.069313
0.199027
0.185249
0.105012
0.081845
0.122808
0.134380
0.079392
0.225234
0.266717
0.106276
0.560509
0.183957
0.100000
0.000000
0.000000
0.000000
0.000000
0.019340
0.082152
0.161320
0.064492
0.191451
0.147460
0.041193
0.136327
0.087792
0.265904
0.209412
0.221254
0.206688
0.181306
0.254694
0.089469
0.140598
0.106567
0.089552
0.094104
0.046149
0.464442
0.403134
0.100000
0.000000
0.000000
0.000000
0.000000
0.209899
0.112776
0.115243
0.165243
0.163639
0.206323
0.150755
0.168032
0.120859
0.064702
0.139398
0.279680
0.167662
0.061550
0.258091
0.006807
0.148559
0.225821
0.070661
0.121245
0.132611
0.008135
0.100000
0.100000
0.000000
0.000000
0.000000
0.000000
0.152838
0.057598
0.167821
0.149122
0.039540
0.155926
0.036723
0.050227
0.161668
0.215852
0.056211
0.146338
0.333412
0.045255
0.140612
0.179617
0.198431
0.209695
0.069962
0.079120
0.135314
0.126143
0.463523
0.100000
0.000000
0.000000
0.000000
0.000000
0.124671
0.175854
0.279660
0.253452
0.208510
0.229362
0.114790
0.103214
0.117710
0.097526
0.191443
0.181007
0.163785
0.222371
0.303977
0.232088
0.133797
0.032608
0.218565
0.099601
0.028225
0.563600
0.410389
0.100000
0.000000
0.000000
0.000000
0.000000
0.087110
0.132060
0.086881
0.150984
0.257999
0.244397
0.196279
0.062589
0.145705
0.046368
0.166891
0.250874
0.079514
0.267738
0.227241
0.026701
0.212331
0.117771
0.120018
0.172934
0.155911
0.097467
0.318526
0.100000
0.000000
0.000000
0.000000
0.000000
0.153758
0.187275
0.063578
0.130795
0.107482
0.139195
0.266643
0.123032
0.255922
0.373538
0.239666
0.113553
0.136441
0.105955
0.076590
0.126933
0.015463
0.143666
0.083750
0.182317
0.065411
0.497757
0.183837
0.100000
0.000000
0.000000
0.000000
0.000000
0.062240
0.158933
0.071288
0.184310
0.232099
0.168804
0.114948
0.067781
0.116286
0.168379
0.315507
0.094254
0.261833
0.168342
0.079854
0.201707
0.103088
0.038561
0.089428
0.122417
0.216300
0.671411
0.644911
0.100000
0.000000
0.000000
0.000000
0.000000
0.165557
0.203385
0.196969
0.077267
0.187396
0.052482
0.139002
0.138372
0.131463
0.195465
0.136276
0.106679
0.309025
0.141939
0.247915
0.162860
0.068654
0.187915
0.058433
0.107661
0.440854
0.279754
0.483512
0.100000
0.000000
0.000000
0.000000
0.000000
0.105395
0.286272
0.113880
0.158150
0.095372
0.271844
0.166356
0.162012
0.200081
0.120182
0.254547
0.217120
0.096631
0.060627
0.143228
0.162385
0.108140
0.023889
0.158464
0.196220
0.031688
0.237434
0.551988
0.100000
0.000000
0.000000
0.000000
0.000000
0.112669
0.105737
0.279568
0.143049
0.189837
0.175719
0.156283
0.103026
0.164687
0.120317
0.210956
0.130161
0.242528
0.311513
0.151056
0.141180
0.045493
0.040284
0.179108
0.176475
0.104940
0.219745
0.107852
0.100000
0.000000
0.000000
0.000000
0.000000
0.110141
0.123174
0.075064
0.300119
0.174098
0.300777
0.236221
0.014984
0.107605
0.050576
0.197196
0.248874
0.126862
0.060608
0.196162
0.221562
0.085901
0.145035
0.048008
0.457048
0.008980
0.490181
0.504495
0.100000
0.000000
0.000000
0.000000
0.000000
0.120288
0.127535
0.114264
0.193789
0.065165
0.127933
0.234505
0.098315
0.081967
0.155105
0.028001
0.124561
0.107383
0.085520
0.155317
0.175202
0.036796
0.093691
0.176133
0.207319
0.251491
0.448704
0.714618
0.100000
0.000000
0.000000
0.000000
0.000000
0.032183
0.048791
0.097270
0.066101
0.084221
0.042353
0.049880
0.174697
0.096980
0.215249
0.224416
0.288197
0.095939
0.147205
0.273680
0.149033
0.056436
0.267548
0.179328
0.166241
0.067021
0.409781
0.210649
0.100000
0.000000
0.000000
0.000000
0.000000
0.000000
0.000000
0.000000
0.000000
0.000000
0.000000
0.000000
0.000000
0.000000
0.000000
0.000000
0.000000
0.000000
0.000000
0.000000
0.000000
0.000000
0.000000
0.000000
0.000000
0.000000
0.000000
0.000000
0.000000
0.000000
0.000000
0.000000
0.000000
0.000000
0.000000
0.000000
0.000000
0.000000
0.000000
0.000000
0.000000
0.000000
0.000000
0.000000
0.000000
0.000000
0.000000
0.000000
0.000000
0.000000
0.000000
0.000000
0.000000
0.000000
0.000000
0.000000
0.000000
0.000000
0.000000
0.000000
0.000000
0.000000
0.000000
0.000000
0.000000
0.000000
0.000000
0.000000
0.000000
0.000000
0.000000
0.000000
0.000000
0.000000
0.000000
0.000000
0.000000
0.000000
0.000000
0.000000
0.000000
0.000000
0.000000
0.000000
0.000000
0.000000
0.000000
0.000000
0.000000
0.000000
0.000000
0.000000
0.000000
0.000000
0.000000
0.000000
0.000000
0.000000
0.000000
0.000000
0.000000
0.000000
0.000000
0.000000
0.000000
0.000000
0.000000
0.000000
0.000000
0.000000
0.000000
0.000000
0.000000
</DataArray>
<DataArray NumberOfComponents='1' type='Float32' Name='pressure' format='ascii'>
0.000000
0.000000
0.000000
0.000000
0.000000
0.000000
0.000000
0.000000
0.000000
0.000000
0.000000
0.000000
0.000000
0.000000
0.000000
0.000000
0.000000
0.000000
0.000000
0.000000
0.000000
0.000000
0.000000
0.000000
0.000000
0.000000
0.000000
0.000000
0.000000
0.000000
0.000000
0.000000
0.000000
0.000000
0.000000
0.000000
0.000000
0.000000
0.000000
0.000000
0.000000
0.000000
0.000000
0.000000
0.000000
0.000000
0.000000
0.000000
0.000000
0.000000
0.000000
0.000000
0.000000
0.000000
0.000000
0.000000
0.000000
0.000000
43062.046875
43204.480469
44100.078125
42778.410156
42826.289062
42453.078125
41724.242188
41217.125000
42292.539062
42418.523438
41640.746094
43331.355469
43844.929688
43710.832031
43760.601562
44964.750000
44150.976562
44024.835938
42603.644531
41181.089844
39627.292969
38108.917969
37057.238281
34576.417969
29322.650391
0.000000
0.000000
0.000000
42950.515625
42754.984375
44406.859375
41951.832031
42468.171875
43537.371094
41271.625000
41296.800781
43071.933594
42361.910156
40540.972656
42815.179688
44365.488281
43440.378906
44290.976562
46051.351562
43038.847656
43837.777344
41651.132812
40128.050781
38989.101562
37314.718750
37915.957031
37538.312500
36853.183594
26325.324219
0.000000
0.000000
42378.953125
42288.617188
41650.972656
42612.593750
43086.121094
42011.914062
41947.003906
41849.847656
43793.753906
40879.117188
43156.527344
41903.371094
45419.398438
41926.539062
37449.566406
34154.628906
34580.605469
28378.628906
26422.529297
21898.761719
21126.349609
0.000000
0.000000
30618.009766
17192.291016
18947.812500
0.000000
0.000000
44060.167969
43808.570312
41532.988281
41420.031250
41117.421875
43141.656250
42665.238281
42086.597656
41595.535156
42950.375000
43096.699219
41247.082031
44230.476562
43152.644531
39506.039062
35811.808594
35073.664062
35905.183594
28326.646484
20609.914062
34727.789062
0.000000
0.000000
0.000000
28469.878906
18703.681641
0.000000
0.000000
43515.082031
42368.304688
42389.683594
42448.601562
43935.656250
42898.375000
41778.109375
42518.164062
40816.281250
42756.304688
41007.328125
42467.187500
39887.332031
41887.593750
39203.851562
38941.566406
35707.539062
32863.464844
22015.613281
0.000000
22101.152344
18121.560547
23091.246094
13062.737305
16748.113281
0.000000
0.000000
0.000000
43602.882812
43443.636719
41588.078125
42115.929688
42204.671875
41511.539062
41879.445312
41674.531250
40876.890625
41052.726562
41146.847656
41540.753906
38294.886719
41232.363281
36165.828125
32421.724609
29719.087891
28760.470703
32903.464844
24027.623047
26151.287109
29511.310547
20336.767578
27959.839844
30495.529297
0.000000
0.000000
0.000000
42351.304688
41492.640625
41904.957031
42267.582031
42141.562500
40307.511719
40729.621094
41123.832031
39677.847656
39688.453125
41047.097656
38242.125000
36896.621094
38543.183594
33356.183594
32186.564453
31002.921875
28726.464844
26320.398438
24487.375000
25772.908203
25353.587891
27111.546875
23017.398438
42628.046875
32156.394531
0.000000
0.000000
42451.269531
41591.406250
42003.523438
40847.273438
41513.593750
42951.035156
41382.453125
42254.093750
40477.523438
40135.019531
39488.546875
39541.378906
38183.531250
34252.835938
37806.320312
35701.625000
37670.480469
33761.734375
32441.482422
28251.767578
29613.273438
31866.437500
30969.957031
27830.574219
42121.398438
44806.296875
0.000000
0.000000
42734.765625
42949.968750
41443.984375
41753.105469
41198.644531
42164.769531
42452.597656
40901.070312
40843.960938
40480.269531
39960.468750
40667.734375
39641.398438
39761.988281
37707.433594
36546.757812
35179.875000
35019.230469
36690.800781
33447.835938
30388.193359
31736.099609
34342.484375
35034.902344
51405.562500
43559.082031
0.000000
0.000000
41678.824219
41421.125000
41592.808594
41144.515625
40917.457031
43354.738281
41305.593750
40865.042969
39256.109375
40570.199219
41081.710938
39902.453125
40244.562500
40076.136719
40024.953125
37983.402344
37896.207031
35486.968750
34711.542969
33991.523438
37025.937500
41240.902344
39132.972656
34484.789062
52186.617188
44193.625000
0.000000
0.000000
41934.238281
41035.207031
41603.609375
40984.390625
41217.214844
41885.707031
41527.484375
40064.179688
40293.582031
40230.996094
40135.492188
40861.625000
39747.304688
38673.968750
39076.789062
37199.789062
36141.941406
37926.031250
36565.902344
37362.164062
38448.257812
44235.933594
47761.464844
41860.199219
49332.148438
44703.195312
0.000000
0.000000
42199.195312
41078.582031
41055.058594
41309.773438
41642.125000
40937.121094
40393.710938
39809.093750
39682.722656
40535.742188
40079.300781
40112.132812
40337.000000
38035.492188
38429.519531
37350.613281
37887.968750
38437.273438
39204.871094
36698.847656
48482.031250
49250.316406
49871.421875
43438.511719
43339.074219
43450.117188
0.000000
0.000000
41882.371094
41289.667969
40783.222656
39908.730469
40915.457031
40778.300781
39160.734375
40311.976562
39274.566406
39519.367188
40413.703125
40064.890625
39207.667969