<?xml version='1.0' encoding='UTF-8'?>
<VTKFile xmlns='VTK' byte_order='LittleEndian' version='0.1' type='UnstructuredGrid'>
<UnstructuredGrid>
<Piece NumberOfCells='1344' NumberOfPoints='1344'>
<Points>
<DataArray NumberOfComponents='3' type='Float32' Name='Position' format='ascii'>
-0.075000 -0.075000 0.000000
-0.075000 -0.050000 0.000000
-0.075000 -0.025000 0.000000
-0.075000 0.000000 0.000000
-0.075000 0.025000 0.000000
-0.075000 0.050000 0.000000
-0.075000 0.075000 0.000000
-0.075000 0.100000 0.000000
-0.075000 0.125000 0.000000
-0.075000 0.150000 0.000000
-0.075000 0.175000 0.000000
-0.075000 0.200000 0.000000
-0.075000 0.225000 0.000000
-0.075000 0.250000 0.000000
-0.075000 0.275000 0.000000
-0.075000 0.300000 0.000000
-0.075000 0.325000 0.000000
-0.075000 0.350000 0.000000
-0.075000 0.375000 0.000000
-0.075000 0.400000 0.000000
-0.075000 0.425000 0.000000
-0.075000 0.450000 0.000000
-0.075000 0.475000 0.000000
-0.075000 0.500000 0.000000
-0.075000 0.525000 0.000000
-0.075000 0.550000 0.000000
-0.075000 0.575000 0.000000
-0.075000 0.600000 0.000000
-0.050000 -0.075000 0.000000
-0.050000 -0.050000 0.000000
-0.050000 -0.025000 0.000000
-0.050000 0.000000 0.000000
-0.050000 0.025000 0.000000
-0.050000 0.050000 0.000000
-0.050000 0.075000 0.000000
-0.050000 0.100000 0.000000
-0.050000 0.125000 0.000000
-0.050000 0.150000 0.000000
-0.050000 0.175000 0.000000
-0.050000 0.200000 0.000000
-0.050000 0.225000 0.000000
-0.050000 0.250000 0.000000
-0.050000 0.275000 0.000000
-0.050000 0.300000 0.000000
-0.050000 0.325000 0.000000
-0.050000 0.350000 0.000000
-0.050000 0.375000 0.000000
-0.050000 0.400000 0.000000
-0.050000 0.425000 0.000000
-0.050000 0.450000 0.000000
-0.050000 0.475000 0.000000
-0.050000 0.500000 0.000000
-0.050000 0.525000 0.000000
-0.050000 0.550000 0.000000
-0.050000 0.575000 0.000000
-0.050000 0.600000 0.000000
-0.025000 -0.075000 0.000000
-0.025000 -0.050000 0.000000
-0.025000 -0.025000 0.000000
-0.025000 0.000000 0.000000
-0.025000 0.025000 0.000000
-0.025000 0.050000 0.000000
-0.025000 0.075000 0.000000
-0.025000 0.100000 0.000000
-0.025000 0.125000 0.000000
-0.025000 0.150000 0.000000
-0.025000 0.175000 0.000000
-0.025000 0.200000 0.000000
-0.025000 0.225000 0.000000
-0.025000 0.250000 0.000000
-0.025000 0.275000 0.000000
-0.025000 0.300000 0.000000
-0.025000 0.325000 0.000000
-0.025000 0.350000 0.000000
-0.025000 0.375000 0.000000
-0.025000 0.400000 0.000000
-0.025000 0.425000 0.000000
-0.025000 0.450000 0.000000
-0.025000 0.475000 0.000000
-0.025000 0.500000 0.000000
-0.025000 0.525000 0.000000
-0.025000 0.550000 0.000000
-0.025000 0.575000 0.000000
-0.025000 0.600000 0.000000
0.000000 -0.075000 0.000000
0.000000 -0.050000 0.000000
0.000000 -0.025000 0.000000
0.000000 0.000000 0.000000
0.000000 0.025000 0.000000
0.000000 0.050000 0.000000
0.000000 0.075000 0.000000
0.000000 0.100000 0.000000
0.000000 0.125000 0.000000
0.000000 0.150000 0.000000
0.000000 0.175000 0.000000
0.000000 0.200000 0.000000
0.000000 0.225000 0.000000
0.000000 0.250000 0.000000
0.000000 0.275000 0.000000
0.000000 0.300000 0.000000
0.000000 0.325000 0.000000
0.000000 0.350000 0.000000
0.000000 0.375000 0.000000
0.000000 0.400000 0.000000
0.000000 0.425000 0.000000
0.000000 0.450000 0.000000
0.000000 0.475000 0.000000
0.000000 0.500000 0.000000
0.000000 0.525000 0.000000
0.000000 0.550000 0.000000
0.000000 0.575000 0.000000
0.000000 0.600000 0.000000
0.025000 -0.075000 0.000000
0.025000 -0.050000 0.000000
0.025000 -0.025000 0.000000
0.025000 0.000000 0.000000
0.027587 0.023627 0.000000
0.066337 0.022574 0.000000
0.024431 0.046302 0.000000
0.025370 0.109242 0.000000
0.022927 0.186195 0.000000
0.059090 0.233273 0.000000
0.026403 0.214916 0.000000
0.024979 0.235960 0.000000
0.022418 0.284787 0.000000
0.025703 0.311799 0.000000
0.025592 0.358624 0.000000
0.024471 0.383420 0.000000
0.023411 0.411612 0.000000
0.022211 0.442691 0.000000
0.025080 0.473061 0.000000
0.024412 0.503548 0.000000
0.023317 0.532139 0.000000
0.057733 0.537373 0.000000
0.047959 0.559663 0.000000
0.027666 0.579243 0.000000
0.036057 0.600000 0.000000
0.014531 0.600000 0.000000
0.116003 0.600000 0.000000
0.134674 0.600000 0.000000
0.050000 -0.075000 0.000000
0.050000 -0.050000 0.000000
0.050000 -0.025000 0.000000
0.050000 0.000000 0.000000
0.095169 0.024474 0.000000
0.048821 0.035818 0.000000
0.035833 0.068287 0.000000
0.023971 0.084994 0.000000
0.021923 0.137295 0.000000
0.028718 0.163382 0.000000
0.065417 0.212985 0.000000
0.049951 0.261873 0.000000
0.044093 0.296570 0.000000
0.051774 0.325636 0.000000
0.026952 0.335383 0.000000
0.048379 0.379771 0.000000
0.046415 0.405349 0.000000
0.044888 0.429824 0.000000
0.045292 0.456071 0.000000
0.042126 0.487112 0.000000
0.045284 0.516806 0.000000
0.068329 0.508168 0.000000
0.023499 0.555716 0.000000
0.061909 0.579843 0.000000
0.076625 0.600000 0.000000
0.056304 0.600000 0.000000
0.145906 0.578759 0.000000
0.154386 0.600000 0.000000
0.075000 -0.075000 0.000000
0.075000 -0.050000 0.000000
0.075000 -0.025000 0.000000
0.075000 0.000000 0.000000
0.082756 0.045899 0.000000
0.060934 0.060208 0.000000
0.061416 0.086477 0.000000
0.046068 0.134071 0.000000
0.077147 0.171733 0.000000
0.045269 0.200774 0.000000
0.087166 0.196424 0.000000
0.028313 0.258228 0.000000
0.073477 0.249832 0.000000
0.062097 0.278743 0.000000
0.068959 0.310745 0.000000
0.052163 0.354636 0.000000
0.074844 0.371120 0.000000
0.070823 0.399053 0.000000
0.081065 0.418191 0.000000
0.065479 0.441737 0.000000
0.080796 0.490476 0.000000
0.102629 0.512800 0.000000
0.082074 0.528045 0.000000
0.076808 0.554165 0.000000
0.090134 0.578004 0.000000
0.096311 0.600000 0.000000
0.174099 0.600000 0.000000
0.193829 0.600000 0.000000
0.100000 -0.075000 0.000000
0.100000 -0.050000 0.000000
0.100000 -0.025000 0.000000
0.100000 0.000000 0.000000
0.113117 0.035168 0.000000
0.070075 0.116868 0.000000
0.077701 0.139699 0.000000
0.049006 0.107227 0.000000
0.055660 0.179337 0.000000
0.051673 0.155469 0.000000
0.109397 0.223562 0.000000
0.088966 0.224357 0.000000
0.104972 0.252257 0.000000
0.089671 0.268577 0.000000
0.085368 0.294600 0.000000
0.070894 0.343605 0.000000
0.102183 0.366601 0.000000
0.093409 0.387539 0.000000
0.104675 0.421541 0.000000
0.089588 0.442107 0.000000
0.063345 0.473368 0.000000
0.090400 0.465514 0.000000
0.115187 0.535165 0.000000
0.141229 0.530818 0.000000
0.101238 0.552445 0.000000
0.117847 0.576790 0.000000
0.203274 0.578022 0.000000
0.212682 0.600000 0.000000
0.125000 -0.075000 0.000000
0.125000 -0.050000 0.000000
0.125000 -0.025000 0.000000
0.125000 0.000000 0.000000
0.103386 0.062464 0.000000
0.079807 0.073810 0.000000
0.099743 0.126780 0.000000
0.100271 0.179214 0.000000
0.096599 0.152885 0.000000
0.119169 0.200145 0.000000
0.136145 0.217433 0.000000
0.127747 0.246813 0.000000
0.116319 0.276480 0.000000
0.112058 0.299942 0.000000
0.095253 0.317927 0.000000
0.095042 0.341064 0.000000
0.125116 0.369817 0.000000
0.119155 0.393932 0.000000
0.127411 0.416507 0.000000
0.129696 0.441761 0.000000
0.114903 0.457478 0.000000
0.106576 0.485732 0.000000
0.126088 0.507250 0.000000
0.158782 0.553511 0.000000
0.174622 0.576721 0.000000
0.132390 0.554869 0.000000
0.230787 0.575368 0.000000
0.231706 0.600000 0.000000
0.150000 -0.075000 0.000000
0.150000 -0.050000 0.000000
0.150000 -0.025000 0.000000
0.150000 0.000000 0.000000
0.135174 0.023429 0.000000
0.127286 0.062435 0.000000
0.110166 0.087317 0.000000
0.090063 0.100583 0.000000
0.123400 0.154541 0.000000
0.127751 0.178814 0.000000
0.154370 0.205804 0.000000
0.151189 0.237944 0.000000
0.142643 0.267877 0.000000
0.137400 0.291110 0.000000
0.128852 0.320767 0.000000
0.120283 0.341963 0.000000
0.151740 0.374934 0.000000
0.146192 0.399007 0.000000
0.154369 0.423099 0.000000
0.164953 0.444162 0.000000
0.145574 0.460499 0.000000
0.130583 0.481291 0.000000
0.150193 0.503757 0.000000
0.179690 0.509946 0.000000
0.165588 0.528958 0.000000
0.184626 0.552472 0.000000
0.250911 0.600000 0.000000
0.270057 0.600000 0.000000
0.175000 -0.075000 0.000000
0.175000 -0.050000 0.000000
0.175000 -0.025000 0.000000
0.175000 0.000000 0.000000
0.164750 0.023388 0.000000
0.141774 0.045172 0.000000
0.135770 0.092233 0.000000
0.130388 0.133926 0.000000
0.147673 0.114056 0.000000
0.151199 0.152208 0.000000
0.152650 0.176645 0.000000
0.174441 0.164873 0.000000
0.175437 0.214733 0.000000
0.172719 0.245036 0.000000
0.167152 0.268357 0.000000
0.151494 0.325837 0.000000
0.144878 0.348964 0.000000
0.170775 0.387764 0.000000
0.177534 0.412179 0.000000
0.189035 0.436011 0.000000
0.208637 0.457784 0.000000
0.183094 0.461548 0.000000
0.158580 0.481435 0.000000
0.182200 0.486106 0.000000
0.207348 0.510493 0.000000
0.195752 0.532062 0.000000
0.284321 0.575908 0.000000
0.289303 0.600000 0.000000
0.200000 -0.075000 0.000000
0.200000 -0.050000 0.000000
0.200000 -0.025000 0.000000
0.200000 0.000000 0.000000
0.191607 0.024920 0.000000
0.172588 0.044597 0.000000
0.151752 0.068485 0.000000
0.115695 0.111619 0.000000
0.186196 0.117445 0.000000
0.164269 0.132639 0.000000
0.188582 0.140838 0.000000
0.206739 0.154694 0.000000
0.176773 0.187593 0.000000
0.193302 0.269417 0.000000
0.159435 0.298246 0.000000
0.174858 0.323404 0.000000
0.170307 0.352063 0.000000
0.194298 0.337217 0.000000
0.188082 0.365998 0.000000
0.195490 0.395964 0.000000
0.208574 0.427307 0.000000
0.206858 0.483469 0.000000
0.228155 0.495208 0.000000
0.243827 0.514095 0.000000
0.223700 0.531692 0.000000
0.212588 0.553002 0.000000
0.310789 0.575199 0.000000
0.308189 0.600000 0.000000
0.225000 -0.075000 0.000000
0.225000 -0.050000 0.000000
0.225000 -0.025000 0.000000
0.225000 0.000000 0.000000
0.215737 0.023959 0.000000
0.193395 0.054407 0.000000
0.178669 0.073301 0.000000
0.161229 0.093924 0.000000
0.217720 0.093887 0.000000
0.212336 0.120622 0.000000
0.226899 0.160484 0.000000
0.201952 0.179307 0.000000
0.200549 0.209258 0.000000
0.193535 0.233944 0.000000
0.207970 0.290122 0.000000
0.231068 0.297232 0.000000
0.201147 0.313119 0.000000
0.217415 0.347427 0.000000
0.210456 0.369474 0.000000
[...]
<PointData>
<DataArray NumberOfComponents='1' type='Int32' Name='ParticleType' format='ascii'>
3
3
3
3
3
3
3
3
3
3
3
3
3
3
3
3
3
3
3
3
3
3
3
3
3
3
3
3
3
3
3
3
3
3
3
3
3
3
3
3
3
3
3
3
3
3
3
3
3
3
3
3
3
3
3
3
3
3
2
2
2
2
2
2
2
2
2
2
2
2
2
2
2
2
2
2
2
2
2
2
2
2
2
2
3
3
2
2
2
2
2
2
2
2
2
2
2
2
2
2
2
2
2
2
2
2
2
2
2
2
2
2
3
3
2
2
0
0
0
0
0
0
0
0
0
0
0
0
0
0
0
0
0
0
0
0
0
0
0
0
3
3
2
2
0
0
0
0
0
0
0
0
0
0
0
0
0
0
0
0
0
0
0
0
0
0
0
0
3
3
2
2
0
0
0
0
0
0
0
0
0
0
0
0
0
0
0
0
0
0
0
0
0
0
0
0
3
3
2
2
0
0
0
0
0
0
0
0
0
0
0
0
0
0
0
0
0
0
0
0
0
0
0
0
3
3
2
2
0
0
0
0
0
0
0
0
0
0
0
0
0
0
0
0
0
0
0
0
0
0
0
0
3
3
2
2
0
0
0
0
0
0
0
0
0
0
0
0
0
0
0
0
0
0
0
0
0
0
0
0
3
3
2
2
0
0
0
0
0
0
0
0
0
0
0
0
0
0
0
0
0
0
0
0
0
0
0
0
3
3
2
2
0
0
0
0
0
0
0
0
0
0
0
0
0
0
0
0
0
0
0
0
0
0
0
0
3
3
2
2
0
0
0
0
0
0
0
0
0
0
0
0
0
0
0
0
0
0
0
0
0
0
0
0
3
3
2
2
0
0
0
0
0
0
0
0
0
0
0
0
0
0
0
0
0
0
0
0
0
0
0
0
3
3
2
2
0
0
0
0
0
0
0
0
0
0
0
0
0
0
0
0
0
0
0
0
0
0
0
0
3
3
2
2
0
0
0
0
0
0
0
0
0
0
0
0
0
0
0
0
0
0
0
0
0
0
0
0
3
3
2
2
0
0
0
0
0
0
0
0
0
0
0
0
0
0
0
0
0
0
0
0
0
0
0
0
3
3
2
2
0
0
0
0
0
0
0
0
0
0
0
0
0
0
0
0
0
0
0
0
0
0
0
0
3
3
2
2
0
0
0
0
0
0
0
0
0
0
0
0
0
0
0
0
0
0
0
0
0
0
0
0
3
3
2
2
0
0
0
0
0
0
0
0
0
0
0
0
0
0
0
0
0
0
0
0
0
0
0
0
3
3
2
2
0
0
0
0
0
0
0
0
0
0
0
0
0
0
0
0
0
0
0
0
0
0
0
0
3
3
2
2
0
0
0
0
0
0
0
0
0
0
0
0
0
0
0
0
0
0
0
0
0
0
0
0
3
3
2
2
0
0
0
0
0
0
0
0
0
0
0
0
0
0
0
0
0
0
0
0
0
0
0
0
3
3
2
2
0
0
0
0
0
0
0
0
0
0
0
0
0
0
0
0
0
0
0
0
0
0
0
0
3
3
2
2
0
0
0
0
0
0
0
0
0
0
0
0
0
0
0
0
0
0
0
0
0
0
0
0
3
3
2
2
0
0
0
0
0
0
0
0
0
0
0
0
0
0
0
0
0
0
0
0
0
0
0
0
3
3
2
2
0
0
0
0
0
0
0
0
0
0
0
0
0
0
0
0
0
0
0
0
0
0
0
0
3
3
2
2
0
0
0
0
0
0
0
0
0
0
0
0
0
0
0
0
0
0
0
0
0
0
0
0
3
3
2
2
0
0
0
0
0
0
0
0
0
0
0
0
0
0
0
0
0
0
0
0
0
0
0
0
3
3
2
2
0
0
0
0
0
0
0
0
0
0
0
0
0
0
0
0
0
0
0
0
0
0
0
0
3
3
2
2
0
0
0
0
0
0
0
0
0
0
0
0
0
0
0
0
0
0
0
0
0
0
0
0
3
3
2
2
0
0
0
0
0
0
0
0
0
0
0
0
0
0
0
0
0
0
0
0
0
0
0
0
3
3
2
2
0
0
0
0
0
0
0
0
0
0
0
0
0
0
0
0
0
0
0
0
0
0
0
0
3
3
2
2
0
0
0
0
0
0
0
0
0
0
0
0
0
0
0
0
0
0
0
0
0
0
0
0
3
3
2
2
0
0
0
0
0
0
0
0
0
0
0
0
0
0
0
0
0
0
0
0
0
0
0
0
3
3
2
2
0
0
0
0
0
0
0
0
0
0
0
0
0
0
0
0
0
0
0
0
0
0
0
0
3
3
2
2
0
0
0
0
0
0
0
0
0
0
0
0
0
0
0
0
0
0
0
0
0
0
0
0
3
3
2
2
0
0
0
0
0
0
0
0
0
0
0
0
0
0
0
0
0
0
0
0
0
0
0
0
3
3
2
2
0
0
0
0
0
0
0
0
0
0
0
0
0
0
0
0
0
0
0
0
0
0
0
0
3
3
2
2
0
0
0
0
0
0
0
0
0
0
0
0
0
0
0
0
0
0
0
0
0
0
0
0
3
3
2
2
0
0
0
0
0
0
0
0
0
0
0
0
0
0
0
0
0
0
0
0
0
0
0
0
3
3
2
2
0
0
0
0
0
0
0
0
0
0
0
0
0
0
0
0
0
0
0
0
0
0
0
0
3
3
2
2
0
0
0
0
0
0
0
0
0
0
0
0
0
0
0
0
0
0
0
0
0
0
0
0
3
3
2
2
0
0
0
0
0
0
0
0
0
0
0
0
0
0
0
0
0
0
0
0
0
0
0
0
3
3
2
2
2
2
2
2
2
2
2
2
2
2
2
2
2
2
2
2
2
2
2
2
2
2
2
2
3
3
2
2
2
2
2
2
2
2
2
2
2
2
2
2
2
2
2
2
2
2
2
2
2
2
2
2
3
3
3
3
3
3
3
3
3
3
3
3
3
3
3
3
3
3
3
3
3
3
3
3
3
3
3
3
3
3
3
3
3
3
3
3
3
3
3
3
3
3
3
3
3
3
3
3
3
3
3
3
3
3
3
3
</DataArray>
<DataArray NumberOfComponents='1' type='Float32' Name='Velocity' format='ascii'>
0.000000
0.000000
0.000000
0.000000
0.000000
0.000000
0.000000
0.000000
0.000000
0.000000
0.000000
0.000000
0.000000
0.000000
0.000000
0.000000
0.000000
0.000000
0.000000
0.000000
0.000000
0.000000
0.000000
0.000000
0.000000
0.000000
0.000000
0.000000
0.000000
0.000000
0.000000
0.000000
0.000000
0.000000
0.000000
0.000000
0.000000
0.000000
0.000000
0.000000
0.000000
0.000000
0.000000
0.000000
0.000000
0.000000
0.000000
0.000000
0.000000
0.000000
0.000000
0.000000
0.000000
0.000000
0.000000
0.000000
0.000000
0.000000
0.000000
0.000000
0.000000
0.000000
0.000000
0.000000
0.000000
0.000000
0.000000
0.000000
0.000000
0.000000
0.000000
0.000000
0.000000
0.000000
0.000000
0.000000
0.000000
0.000000
0.000000
0.000000
0.000000
0.000000
0.000000
0.000000
0.000000
0.000000
0.000000
0.000000
0.000000
0.000000
0.000000
0.000000
0.000000
0.000000
0.000000
0.000000
0.000000
0.000000
0.000000
0.000000
0.000000
0.000000
0.000000
0.000000
0.000000
0.000000
0.000000
0.000000
0.000000
0.000000
0.000000
0.000000
0.000000
0.000000
0.000000
0.000000
0.203953
0.234668
0.416952
0.203764
0.025604
0.107559
0.262378
0.174675
0.115294
0.088973
0.232578
0.147748
0.165256
0.251958
0.065633
0.285865
0.206441
0.170883
0.218236
0.100000
0.100000
0.100000
0.100000
0.100000
0.000000
0.000000
0.000000
0.000000
0.051963
0.435372
0.353818
0.112118
0.109850
0.131230
0.308536
0.205491
0.191372
0.364904
0.167690
0.300881
0.136531
0.144971
0.185533
0.299824
0.143384
0.091779
0.255188
0.100000
0.100000
0.100000
0.100000
0.100000
0.000000
0.000000
0.000000
0.000000
0.271400
0.114686
0.124303
0.094390
0.303469
0.124640
0.251270
0.423817
0.328410
0.088839
0.063782
0.096495
0.198211
0.159289
0.232584
0.087054
0.134794
0.290323
0.445750
0.394760
0.100000
0.100000
0.100000
0.100000
0.000000
0.000000
0.000000
0.000000
0.135463
0.159156
0.181260
0.054645
0.096771
0.105656
0.165868
0.075515
0.058868
0.256415
0.270039
0.102687
0.195520
0.169128
0.025531
0.093331
0.171874
0.304820
0.142136
0.221002
0.175725
0.100000
0.100000
0.100000
0.000000
0.000000
0.000000
0.000000
0.163225
0.151771
0.092524
0.155675
0.179707
0.088443
0.262328
0.098126
0.076552
0.138975
0.252804
0.101710
0.005547
0.359857
0.094769
0.215584
0.249762
0.192883
0.227412
0.354037
0.100000
0.413923
0.100000
0.100000
0.000000
0.000000
0.000000
0.000000
0.143622
0.363018
0.195226
0.118946
0.149737
0.117533
0.194845
0.288860
0.040788
0.041988
0.269177
0.339039
0.181444
0.199516
0.161287
0.118232
0.196363
0.233712
0.247220
0.290075
0.345333
0.190505
0.100000
0.100000
0.000000
0.000000
0.000000
0.000000
0.151201
0.031079
0.266176
0.199500
0.246682
0.125937
0.173368
0.187848
0.153975
0.106277
0.245960
0.117276
0.129528
0.107594
0.243417
0.293396
0.030153
0.145969
0.187187
0.090823
0.110372
0.292984
0.100000
0.100000
0.000000
0.000000
0.000000
0.000000
0.153853
0.211850
0.335271
0.126845
0.097370
0.230456
0.281984
0.397960
0.055617
0.208150
0.202454
0.200635
0.224309
0.072625
0.159126
0.157926
0.210650
0.110315
0.151428
0.228145
0.412137
0.099949
0.100000
0.100000
0.000000
0.000000
0.000000
0.000000
0.078035
0.093204
0.112424
0.358818
0.061010
0.292535
0.223397
0.249213
0.245140
0.248580
0.211219
0.149934
0.163677
0.056812
0.109340
0.001945
0.030756
0.127802
0.208852
0.150338
0.028355
0.150374
0.100000
0.100000
0.000000
0.000000
0.000000
0.000000
0.099768
0.202660
0.122112
0.227341
0.116285
0.248369
0.238061
0.093767
0.137783
0.170447
0.136907
0.093564
0.174802
0.063760
0.028303
0.171762
0.237400
0.042467
0.116196
0.109523
0.057422
0.183173
0.100000
0.100000
0.000000
0.000000
0.000000
0.000000
0.062800
0.088187
0.093805
0.229708
0.240510
0.168441
0.135546
0.080102
0.053965
0.215083
0.028294
0.212472
0.278830
0.143949
0.307208
0.117338
0.248104
0.176090
0.084880
0.311617
0.018344
0.100000
0.100000
0.100000
0.000000
0.000000
0.000000
0.000000
0.104143
0.044932
0.095390
0.200671
0.217929
0.047882
0.057107
0.046894
0.122179
0.048244
0.005607
0.025684
0.054799
0.100345
0.158004
0.146160
0.071693
0.170514
0.028632
0.147748
0.356632
0.287424
0.100000
0.100000
0.000000
0.000000
0.000000
0.000000
0.121652
0.016550
0.109674
0.147476
0.093935
0.059858
0.065623
0.156841
0.067027
0.067026
0.037086
0.136819
0.092619
0.195241
0.081099
0.078953
0.243086
0.096194
0.076708
0.383147
0.277355
0.471839
0.100000
0.100000
0.000000
0.000000
0.000000
0.000000
0.096085
0.033658
0.133536
0.168862
0.086420
0.140051
0.252734
0.189303
0.110057
0.105964
0.166119
0.079984
0.151025
0.011549
0.176618
0.120831
0.323936
0.108792
0.164116
0.175498
0.367098
0.100000
0.100000
0.100000
0.000000
0.000000
0.000000
0.000000
0.081729
0.066105
0.160776
0.088538
0.115338
0.003229
0.241291
0.149969
0.091111
0.237645
0.194889
0.036523
0.041305
0.195480
0.106905
0.219282
0.124987
0.175923
0.258653
0.287831
0.101553
0.383850
0.100000
0.100000
0.000000
0.000000
0.000000
0.000000
0.110401
0.177672
0.098591
0.182101
0.200943
0.042166
0.188213
0.053908
0.119935
0.185107
0.083369
0.125555
0.183993
0.145757
0.145026
0.223686
0.011816
0.156394
0.287410
0.297203
0.181238
0.350245
0.100000
0.100000
0.000000
0.000000
0.000000
0.000000
0.049871
0.021005
0.129081
0.187810
0.224278
0.214486
0.099993
0.056919
0.152836
0.069592
0.241958
0.127286
0.093536
0.233021
0.374832
0.158923
0.229502
0.100213
0.109447
0.226608
0.214513
0.100000
0.100000
0.100000
0.000000
0.000000
0.000000
0.000000
0.103331
0.088287
0.048572
0.108833
0.076248
0.215638
0.055819
0.233554
0.149928
0.031221
0.159332
0.142539
0.094843
0.212451
0.120896
0.119941
0.258723
0.057119
0.043984
0.405304
0.421252
0.072303
0.159855
0.100000
0.000000
0.000000
0.000000
0.000000
0.123345
0.168218
0.077939
0.109400
0.063167
0.111307
0.101305
0.053428
0.024998
0.171270
0.037078
0.373961
0.173767
0.224933
0.160097
0.236605
0.016659
0.139409
0.126520
0.254546
0.338134
0.460783
0.100000
0.100000
0.000000
0.000000
0.000000
0.000000
0.065233
0.125813
0.080652
0.167836
0.068243
0.099828
0.298717
0.235656
0.184815
0.129805
0.163074
0.097503
0.386657
0.269350
0.215801
0.055114
0.070620
0.165832
0.099186
0.089812
0.333291
0.100000
0.100000
0.100000
0.000000
0.000000
0.000000
0.000000
0.122470
0.069687
0.092248
0.149971
0.149784
0.107596
0.223330
0.149205
0.088827
0.163445
0.122203
0.080487
0.151813
0.266106
0.019190
0.090979
0.180008
0.248836
0.264183
0.173982
0.243424
0.158617
0.100000
0.100000
0.000000
0.000000
0.000000
0.000000
0.037226
0.118282
0.141763
0.108483
0.270547
0.082252
0.054149
0.219421
0.330110
0.245702
0.122325
0.192103
0.094877
0.066977
0.084424
0.095583
0.122747
0.059848
0.159289
0.181783
0.106132
0.331342
0.100000
0.100000
0.000000
0.000000
0.000000
0.000000
0.139588
0.028810
0.028804
0.050049
0.110697
0.276331
0.165652
0.210338
0.200847
0.350306
0.161668
0.207929
0.045914
0.136723
0.068603
0.133596
0.134316
0.126660
0.113449
0.340758
0.249213
0.160504
0.128241
0.100000
0.000000
0.000000
0.000000
0.000000
0.047367
0.090380
0.148374
0.058016
0.035307
0.206490
0.073174
0.070698
0.068911
0.074328
0.110563
0.134317
0.231356
0.148232
0.205919
0.250795
0.156470
0.062477
0.161724
0.178805
0.193257
0.303068
0.100000
0.100000
0.000000
0.000000
0.000000
0.000000
0.185684
0.064712
0.069227
0.195151
0.085613
0.172623
0.061653
0.113971
0.034214
0.103627
0.044686
0.193552
0.174822
0.009835
0.165928
0.098401
0.217295
0.128371
0.146171
0.250287
0.407367
0.532246
0.239996
0.100000
0.000000
0.000000
0.000000
0.000000
0.088551
0.166103
0.076222
0.191555
0.181074
0.371384
0.073851
0.024137
0.144860
0.192813
0.044019
0.117184
0.272492
0.077433
0.209477
0.068843
0.100843
0.147591
0.242808
0.136345
0.327028
0.361191
0.100000
0.100000
0.000000
0.000000
0.000000
0.000000
0.048945
0.139481
0.078770
0.362585
0.189001
0.057972
0.072763
0.136717
0.058936
0.191544
0.103065
0.190424
0.108782
0.114854
0.101973
0.154816
0.253240
0.179071
0.312505
0.103949
0.279425
0.032520
0.206486
0.100000
0.000000
0.000000
0.000000
0.000000
0.094925
0.180675
0.034133
0.122815
0.199743
0.092821
0.055869
0.109352
0.097596
0.071771
0.040840
0.174239
0.067010
0.072399
0.083037
0.060045
0.257047
0.333316
0.390068
0.104333
0.333782
0.319834
0.251027
0.100000
0.000000
0.000000
0.000000
0.000000
0.048524
0.250365
0.150460
0.124968
0.201854
0.132923
0.265616
0.127760
0.201180
0.092479
0.073310
0.017292
0.187276
0.128130
0.251266
0.151808
0.145317
0.111446
0.435267
0.266782
0.326871
0.086346
0.100000
0.100000
0.000000
0.000000
0.000000
0.000000
0.071895
0.180713
0.121071
0.131249
0.066430
0.181814
0.060050
0.159917
0.127864
0.162489
0.159531
0.059700
0.155549
0.108893
0.136155
0.169025
0.416638
0.278737
0.238960
0.307327
0.230866
0.235408
0.222229
0.100000
0.000000
0.000000
0.000000
0.000000
0.097356
0.081867
0.272679
0.066811
0.275226
0.045983
0.103233
0.222584
0.121920
0.118085
0.144530
0.091754
0.145838
0.183772
0.082951
0.226243
0.094876
0.153372
0.174285
0.171462
0.229782
0.100000
0.524741
0.100000
0.000000
0.000000
0.000000
0.000000
0.119662
0.047936
0.313094
0.063280
0.188852
0.121677
0.061711
0.267704
0.316299
0.147096
0.049680
0.066062
0.095188
0.246962
0.288789
0.073546
0.159371
0.346830
0.053996
0.388439
0.355254
0.323904
0.751941
0.100000
0.000000
0.000000
0.000000
0.000000
0.162721
0.292912
0.176131
0.104016
0.173484
0.062463
0.047040
0.378704
0.091044
0.069225
0.198655
0.090032
0.050319
0.047991
0.199595
0.131907
0.060614
0.157226
0.131133
0.125474
0.283283
0.140298
0.231565
0.100000
0.000000
0.000000
0.000000
0.000000
0.248130
0.159768
0.098819
0.202096
0.226911
0.147559
0.249751
0.122332
0.103548
0.321268
0.357431
0.150755
0.052760
0.177157
0.089910
0.133481
0.161748
0.125177
0.146278
0.270206
0.130169
0.619050
0.050537
0.100000
0.000000
0.000000
0.000000
0.000000
0.169856
0.185768
0.276075
0.246487
0.030256
0.203901
0.113926
0.280907
0.387297
0.048686
0.177858
0.123713
0.099171
0.065698
0.115627
0.160788
0.304149
0.032215
0.157331
0.294280
0.296079
0.282675
0.484092
0.100000
0.000000
0.000000
0.000000
0.000000
0.258146
0.210753
0.331024
0.107974
0.276739
0.171665
0.099096
0.214586
0.233488
0.218400
0.265674
0.215194
0.035503
0.210093
0.148637
0.125133
0.249873
0.387435
0.376961
0.383398
0.480863
0.183705
0.292208
0.100000
0.000000
0.000000
0.000000
0.000000
0.027245
0.127197
0.244793
0.351448
0.281843
0.115690
0.205903
0.180008
0.275430
0.331518
0.277751
0.111702
0.100979
0.066719
0.260401
0.332641
0.264078
0.134624
0.155173
0.256825
0.394545
0.200368
0.207287
0.100000
0.000000
0.000000
0.000000
0.000000
0.084180
0.216947
0.092735
0.537971
0.057900
0.094064
0.195980
0.427817
0.060458
0.071817
0.290773
0.175858
0.136032
0.109201
0.260532
0.311342
0.101673
0.252203
0.197714
0.066428
0.112237
0.186358
0.356960
0.100000
0.000000
0.000000
0.000000
0.000000
0.187468
0.190727
0.128640
0.115175
0.153346
0.007619
0.175505
0.342301
0.176398
0.078526
0.229601
0.334886
0.180943
0.176333
0.138177
0.126770
0.149804
0.093498
0.518012
0.366885
0.284911
0.120027
0.155387
0.100000
0.000000
0.000000
0.000000
0.000000
0.123878
0.149706
0.038761
0.199738
0.161343
0.120391
0.107731
0.199470
0.152899
0.133226
0.060171
0.186465
0.236972
0.283005
0.144468
0.226419
0.109832
0.162567
0.127415
0.233016
0.297953
0.061314
0.279696
0.100000
0.000000
0.000000
0.000000
0.000000
0.000000
0.000000
0.000000
0.000000
0.000000
0.000000
0.000000
0.000000
0.000000
0.000000
0.000000
0.000000
0.000000
0.000000
0.000000
0.000000
0.000000
0.000000
0.000000
0.000000
0.000000
0.000000
0.000000
0.000000
0.000000
0.000000
0.000000
0.000000
0.000000
0.000000
0.000000
0.000000
0.000000
0.000000
0.000000
0.000000
0.000000
0.000000
0.000000
0.000000
0.000000
0.000000
0.000000
0.000000
0.000000
0.000000
0.000000
0.000000
0.000000
0.000000
0.000000
0.000000
0.000000
0.000000
0.000000
0.000000
0.000000
0.000000
0.000000
0.000000
0.000000
0.000000
0.000000
0.000000
0.000000
0.000000
0.000000
0.000000
0.000000
0.000000
0.000000
0.000000
0.000000
0.000000
0.000000
0.000000
0.000000
0.000000
0.000000
0.000000
0.000000
0.000000
0.000000
0.000000
0.000000
0.000000
0.000000
0.000000
0.000000
0.000000
0.000000
0.000000
0.000000
0.000000
0.000000
0.000000
0.000000
0.000000
0.000000
0.000000
0.000000
0.000000
0.000000
0.000000
0.000000
0.000000
0.000000
0.000000
</DataArray>
<DataArray NumberOfComponents='1' type='Float32' Name='pressure' format='ascii'>
0.000000
0.000000
0.000000
0.000000
0.000000
0.000000
0.000000
0.000000
0.000000
0.000000
0.000000
0.000000
0.000000
0.000000
0.000000
0.000000
0.000000
0.000000
0.000000
0.000000
0.000000
0.000000
0.000000
0.000000
0.000000
0.000000
0.000000
0.000000
0.000000
0.000000
0.000000
0.000000
0.000000
0.000000
0.000000
0.000000
0.000000
0.000000
0.000000
0.000000
0.000000
0.000000
0.000000
0.000000
0.000000
0.000000
0.000000
0.000000
0.000000
0.000000
0.000000
0.000000
0.000000
0.000000
0.000000
0.000000
0.000000
0.000000
45494.316406
45347.292969
44585.753906
45726.976562
46116.671875
46602.867188
47157.246094
46624.085938
45572.167969
44437.097656
43114.050781
41946.394531
42182.542969
40815.691406
38644.500000
38026.539062
37870.460938
37756.621094
37899.882812
37770.437500
36555.460938
36294.433594
35598.082031
32248.554688
24836.705078
0.000000
0.000000
0.000000
45722.019531
45180.171875
44863.296875
45267.558594
45836.292969
47164.472656
47409.089844
46209.328125
44547.761719
45017.718750
44044.832031
42324.125000
41826.882812
41605.109375
38569.570312
38018.421875
38199.062500
37032.769531
36730.750000
37258.367188
36006.003906
36493.507812
37452.351562
36018.207031
34169.441406
0.000000
0.000000
0.000000
46497.871094
46485.335938
47035.886719
46827.183594
45903.539062
46574.687500
44568.914062
42831.683594
43573.125000
42879.117188
41371.605469
40607.062500
38778.601562
38240.890625
36553.960938
36596.562500
35429.386719
34622.796875
36556.714844
34298.046875
36933.964844
41191.863281
29178.460938
27410.646484
0.000000
0.000000
0.000000
0.000000
46352.035156
44901.304688
47460.968750
46687.593750
46678.277344
46602.609375
46632.589844
44945.769531
43349.589844
41879.457031
40505.699219
39700.074219
39895.199219
37952.550781
36933.847656
36743.750000
35536.097656
35341.253906
35984.265625
34636.019531
38782.578125
41673.359375
28486.712891
30834.013672
23325.494141
12720.920898
0.000000
0.000000
47461.378906
47167.066406
46101.855469
47212.351562
46181.324219
45575.230469
44355.359375
44116.800781
43913.128906
42231.890625
42356.277344
41650.113281
40712.878906
38956.457031
36920.285156
37881.429688
35763.117188
35952.062500
33638.996094
30409.691406
32197.609375
32002.958984
33922.332031
22437.541016
14080.977539
12584.737305
0.000000
0.000000
47483.773438
47188.867188
46949.960938
46160.144531
45275.203125
47017.273438
44964.628906
45524.609375
43596.027344
43021.222656
41896.410156
41883.562500
40976.250000
39381.953125
38692.398438
37356.507812
35205.078125
36151.343750
34124.371094
34207.949219
28311.611328
27164.203125
27009.445312
25859.408203
22671.199219
0.000000
0.000000
0.000000
48032.164062
47075.425781
47685.328125
47658.343750
45860.730469
44995.933594
45211.242188
43193.207031
43981.128906
42664.324219
41594.382812
41677.511719
39450.378906
39975.816406
38346.343750
35856.949219
36607.863281
34878.062500
32770.996094
33043.941406
30071.048828
22108.128906
23420.689453
23263.810547
25378.261719
15588.948242
0.000000
0.000000
48774.949219
48062.949219
48422.078125
47366.234375
46029.550781
45759.359375
45325.539062
44213.925781
44177.011719
42006.113281
42094.878906
40722.878906
39666.570312
38660.261719
37979.437500
36463.378906
35073.328125
33935.078125
33323.070312
32480.347656
29022.998047
28925.746094
27221.308594
22493.082031
19407.027344
21693.203125
0.000000
0.000000
49012.761719
49902.671875
48283.917969
47717.625000
46866.140625
44423.855469
46365.367188
45953.859375
45104.476562
44352.699219
43706.453125
43467.964844
41891.773438
40837.750000
38952.910156
37506.722656
35603.332031
35224.175781
33010.109375
32372.685547
31051.904297
32335.677734
29096.044922
27335.898438
29626.357422
23546.679688
0.000000
0.000000
48988.875000
49282.863281
47537.328125
47880.136719
46971.093750
47059.222656
46757.988281
46049.988281
46219.863281
45707.160156
44104.320312
41636.546875
40412.285156
39912.917969
37802.402344
39491.707031
38717.359375
36334.726562
34810.136719
31629.027344
32814.183594
31165.880859
27875.250000
22849.019531
32547.128906
25544.492188
0.000000
0.000000
48705.078125
48991.507812
48624.734375
48373.687500
47231.257812
46233.898438
47607.257812
45566.054688
44379.902344
45099.679688
43893.234375
42576.359375
41730.183594
41530.875000
40548.906250
39607.417969
38123.066406
36160.839844
34988.386719
32978.523438
34499.425781
32803.464844
33258.347656
25538.207031
33521.046875
26971.410156
0.000000
0.000000
47897.363281
47431.871094
48327.039062
47770.089844
46699.925781
47452.167969
46467.355469
46459.390625
45477.167969
44586.597656
43715.257812
44080.539062
42242.058594
41663.375000
40441.687500
37787.289062
37245.500000
38031.968750
37531.785156
35570.667969
35426.757812
34955.140625
32761.390625
30108.044922
28558.525391
27410.464844
0.000000
0.000000
49296.996094
49011.898438
48744.558594
47565.660156
47726.808594
47208.550781
46731.187500
46587.203125
46538.378906
45319.093750
44364.226562
43508.378906