<?xml version='1.0' encoding='UTF-8'?>
<VTKFile xmlns='VTK' byte_order='LittleEndian' version='0.1' type='UnstructuredGrid'>
<UnstructuredGrid>
<Piece NumberOfCells='1344' NumberOfPoints='1344'>
<Points>
<DataArray NumberOfComponents='3' type='Float32' Name='Position' format='ascii'>
-0.075000 -0.075000 0.000000
-0.075000 -0.050000 0.000000
-0.075000 -0.025000 0.000000
-0.075000 0.000000 0.000000
-0.075000 0.025000 0.000000
-0.075000 0.050000 0.000000
-0.075000 0.075000 0.000000
-0.075000 0.100000 0.000000
-0.075000 0.125000 0.000000
-0.075000 0.150000 0.000000
-0.075000 0.175000 0.000000
-0.075000 0.200000 0.000000
-0.075000 0.225000 0.000000
-0.075000 0.250000 0.000000
-0.075000 0.275000 0.000000
-0.075000 0.300000 0.000000
-0.075000 0.325000 0.000000
-0.075000 0.350000 0.000000
-0.075000 0.375000 0.000000
-0.075000 0.400000 0.000000
-0.075000 0.425000 0.000000
-0.075000 0.450000 0.000000
-0.075000 0.475000 0.000000
-0.075000 0.500000 0.000000
-0.075000 0.525000 0.000000
-0.075000 0.550000 0.000000
-0.075000 0.575000 0.000000
-0.075000 0.600000 0.000000
-0.050000 -0.075000 0.000000
-0.050000 -0.050000 0.000000
-0.050000 -0.025000 0.000000
-0.050000 0.000000 0.000000
-0.050000 0.025000 0.000000
-0.050000 0.050000 0.000000
-0.050000 0.075000 0.000000
-0.050000 0.100000 0.000000
-0.050000 0.125000 0.000000
-0.050000 0.150000 0.000000
-0.050000 0.175000 0.000000
-0.050000 0.200000 0.000000
-0.050000 0.225000 0.000000
-0.050000 0.250000 0.000000
-0.050000 0.275000 0.000000
-0.050000 0.300000 0.000000
-0.050000 0.325000 0.000000
-0.050000 0.350000 0.000000
-0.050000 0.375000 0.000000
-0.050000 0.400000 0.000000
-0.050000 0.425000 0.000000
-0.050000 0.450000 0.000000
-0.050000 0.475000 0.000000
-0.050000 0.500000 0.000000
-0.050000 0.525000 0.000000
-0.050000 0.550000 0.000000
-0.050000 0.575000 0.000000
-0.050000 0.600000 0.000000
-0.025000 -0.075000 0.000000
-0.025000 -0.050000 0.000000
-0.025000 -0.025000 0.000000
-0.025000 0.000000 0.000000
-0.025000 0.025000 0.000000
-0.025000 0.050000 0.000000
-0.025000 0.075000 0.000000
-0.025000 0.100000 0.000000
-0.025000 0.125000 0.000000
-0.025000 0.150000 0.000000
-0.025000 0.175000 0.000000
-0.025000 0.200000 0.000000
-0.025000 0.225000 0.000000
-0.025000 0.250000 0.000000
-0.025000 0.275000 0.000000
-0.025000 0.300000 0.000000
-0.025000 0.325000 0.000000
-0.025000 0.350000 0.000000
-0.025000 0.375000 0.000000
-0.025000 0.400000 0.000000
-0.025000 0.425000 0.000000
-0.025000 0.450000 0.000000
-0.025000 0.475000 0.000000
-0.025000 0.500000 0.000000
-0.025000 0.525000 0.000000
-0.025000 0.550000 0.000000
-0.025000 0.575000 0.000000
-0.025000 0.600000 0.000000
0.000000 -0.075000 0.000000
0.000000 -0.050000 0.000000
0.000000 -0.025000 0.000000
0.000000 0.000000 0.000000
0.000000 0.025000 0.000000
0.000000 0.050000 0.000000
0.000000 0.075000 0.000000
0.000000 0.100000 0.000000
0.000000 0.125000 0.000000
0.000000 0.150000 0.000000
0.000000 0.175000 0.000000
0.000000 0.200000 0.000000
0.000000 0.225000 0.000000
0.000000 0.250000 0.000000
0.000000 0.275000 0.000000
0.000000 0.300000 0.000000
0.000000 0.325000 0.000000
0.000000 0.350000 0.000000
0.000000 0.375000 0.000000
0.000000 0.400000 0.000000
0.000000 0.425000 0.000000
0.000000 0.450000 0.000000
0.000000 0.475000 0.000000
0.000000 0.500000 0.000000
0.000000 0.525000 0.000000
0.000000 0.550000 0.000000
0.000000 0.575000 0.000000
0.000000 0.600000 0.000000
0.025000 -0.075000 0.000000
0.025000 -0.050000 0.000000
0.025000 -0.025000 0.000000
0.025000 0.000000 0.000000
0.036184 0.020504 0.000000
0.058847 0.034854 0.000000
0.022334 0.039158 0.000000
0.022467 0.115054 0.000000
0.050809 0.186943 0.000000
0.074194 0.266657 0.000000
0.024383 0.208843 0.000000
0.050147 0.248775 0.000000
0.024853 0.256645 0.000000
0.022033 0.286851 0.000000
0.028191 0.356215 0.000000
0.022375 0.410959 0.000000
0.024342 0.438929 0.000000
0.023936 0.471631 0.000000
0.024288 0.497539 0.000000
0.021251 0.545083 0.000000
0.042070 0.558562 0.000000
0.067132 0.560466 0.000000
0.083774 0.580004 0.000000
0.050966 0.584685 0.000000
0.036438 0.600000 0.000000
0.016125 0.600000 0.000000
0.138884 0.600000 0.000000
0.158355 0.600000 0.000000
0.050000 -0.075000 0.000000
0.050000 -0.050000 0.000000
0.050000 -0.025000 0.000000
0.050000 0.000000 0.000000
0.077689 0.024904 0.000000
0.066879 0.055473 0.000000
0.023348 0.072707 0.000000
0.033992 0.095590 0.000000
0.023697 0.145588 0.000000
0.023570 0.181082 0.000000
0.087688 0.248676 0.000000
0.049634 0.271695 0.000000
0.036138 0.301943 0.000000
0.043041 0.333729 0.000000
0.021429 0.329478 0.000000
0.024354 0.380580 0.000000
0.047125 0.429633 0.000000
0.040671 0.455306 0.000000
0.046742 0.492724 0.000000
0.027962 0.522390 0.000000
0.052523 0.534698 0.000000
0.087069 0.515393 0.000000
0.024060 0.577235 0.000000
0.080241 0.600000 0.000000
0.098877 0.600000 0.000000
0.060193 0.600000 0.000000
0.170069 0.578720 0.000000
0.178035 0.600000 0.000000
0.075000 -0.075000 0.000000
0.075000 -0.050000 0.000000
0.075000 -0.025000 0.000000
0.075000 0.000000 0.000000
0.106650 0.051203 0.000000
0.038329 0.058286 0.000000
0.056502 0.081117 0.000000
0.043572 0.135670 0.000000
0.065763 0.231963 0.000000
0.047448 0.213330 0.000000
0.100242 0.231469 0.000000
0.025330 0.234306 0.000000
0.059339 0.292971 0.000000
0.059484 0.316395 0.000000
0.084334 0.341125 0.000000
0.062289 0.350846 0.000000
0.046821 0.372564 0.000000
0.042924 0.398987 0.000000
0.065854 0.453203 0.000000
0.064535 0.477483 0.000000
0.112120 0.507941 0.000000
0.109039 0.534466 0.000000
0.078652 0.538472 0.000000
0.096835 0.556271 0.000000
0.111550 0.579818 0.000000
0.119254 0.600000 0.000000
0.198292 0.600000 0.000000
0.217902 0.600000 0.000000
0.100000 -0.075000 0.000000
0.100000 -0.050000 0.000000
0.100000 -0.025000 0.000000
0.100000 0.000000 0.000000
0.128006 0.059106 0.000000
0.066064 0.142624 0.000000
0.068922 0.171871 0.000000
0.052662 0.112895 0.000000
0.069521 0.206417 0.000000
0.039072 0.165478 0.000000
0.126403 0.285245 0.000000
0.119725 0.258359 0.000000
0.099688 0.272251 0.000000
0.083200 0.313782 0.000000
0.102043 0.357618 0.000000
0.075184 0.371410 0.000000
0.066761 0.419105 0.000000
0.089244 0.409555 0.000000
0.086977 0.444936 0.000000
0.091891 0.470144 0.000000
0.058290 0.513356 0.000000
0.082859 0.492926 0.000000
0.132544 0.533094 0.000000
0.168310 0.537842 0.000000
0.124336 0.557623 0.000000
0.142299 0.577214 0.000000
0.228325 0.578608 0.000000
0.237656 0.600000 0.000000
0.125000 -0.075000 0.000000
0.125000 -0.050000 0.000000
0.125000 -0.025000 0.000000
0.125000 0.000000 0.000000
0.103046 0.086225 0.000000
0.088405 0.059261 0.000000
0.083893 0.151381 0.000000
0.118089 0.211587 0.000000
0.093507 0.205610 0.000000
0.144004 0.212222 0.000000
0.128318 0.235024 0.000000
0.117490 0.306586 0.000000
0.092836 0.294257 0.000000
0.105546 0.329152 0.000000
0.097481 0.383021 0.000000
0.070115 0.394903 0.000000
0.121721 0.414334 0.000000
0.104280 0.429808 0.000000
0.128460 0.437153 0.000000
0.115906 0.459797 0.000000
0.115593 0.482377 0.000000
0.134598 0.502875 0.000000
0.153755 0.518596 0.000000
0.182893 0.557338 0.000000
0.199760 0.576708 0.000000
0.150765 0.554376 0.000000
0.256666 0.576231 0.000000
0.257040 0.600000 0.000000
0.150000 -0.075000 0.000000
0.150000 -0.050000 0.000000
0.150000 -0.025000 0.000000
0.150000 0.000000 0.000000
0.101968 0.024448 0.000000
0.130844 0.083643 0.000000
0.104792 0.106597 0.000000
0.075826 0.088657 0.000000
0.089906 0.184511 0.000000
0.114690 0.174138 0.000000
0.131422 0.190936 0.000000
0.151218 0.240195 0.000000
0.142750 0.266380 0.000000
0.144977 0.303892 0.000000
0.125796 0.363728 0.000000
0.119965 0.389245 0.000000
0.143121 0.385866 0.000000
0.150418 0.408379 0.000000
0.174729 0.406679 0.000000
0.156769 0.431158 0.000000
0.148600 0.453730 0.000000
0.140774 0.476800 0.000000
0.181499 0.513436 0.000000
0.206723 0.510857 0.000000
0.196955 0.535810 0.000000
0.213941 0.555050 0.000000
0.276753 0.600000 0.000000
0.295825 0.600000 0.000000
0.175000 -0.075000 0.000000
0.175000 -0.050000 0.000000
0.175000 -0.025000 0.000000
0.175000 0.000000 0.000000
0.126118 0.026493 0.000000
0.148951 0.070767 0.000000
0.134144 0.105314 0.000000
0.098014 0.129059 0.000000
0.121523 0.127989 0.000000
0.110359 0.154437 0.000000
0.149875 0.173594 0.000000
0.168051 0.150758 0.000000
0.165214 0.193080 0.000000
0.171280 0.214028 0.000000
0.170589 0.262945 0.000000
0.129258 0.330072 0.000000
0.142250 0.347958 0.000000
0.190067 0.384060 0.000000
0.195309 0.414340 0.000000
0.179190 0.438990 0.000000
0.192314 0.462781 0.000000
0.168558 0.468192 0.000000
0.162148 0.493454 0.000000
0.187957 0.488176 0.000000
0.233555 0.506890 0.000000
0.223830 0.530950 0.000000
0.311967 0.576603 0.000000
0.314621 0.600000 0.000000
0.200000 -0.075000 0.000000
0.200000 -0.050000 0.000000
0.200000 -0.025000 0.000000
0.200000 0.000000 0.000000
0.161684 0.022803 0.000000
0.144036 0.036414 0.000000
0.166434 0.088202 0.000000
0.075249 0.111698 0.000000
0.179843 0.129876 0.000000
0.138825 0.152525 0.000000
0.225896 0.110330 0.000000
0.245511 0.131132 0.000000
0.180647 0.170047 0.000000
0.176772 0.239990 0.000000
0.160875 0.284309 0.000000
0.183714 0.304898 0.000000
0.163739 0.315546 0.000000
0.163445 0.339705 0.000000
0.162980 0.376011 0.000000
0.211732 0.395104 0.000000
0.203153 0.441298 0.000000
0.213273 0.486097 0.000000
0.243469 0.484818 0.000000
0.260703 0.508091 0.000000
0.251199 0.530514 0.000000
0.240360 0.553660 0.000000
0.339545 0.575945 0.000000
0.333831 0.600000 0.000000
0.225000 -0.075000 0.000000
0.225000 -0.050000 0.000000
0.225000 -0.025000 0.000000
0.225000 0.000000 0.000000
0.192155 0.023713 0.000000
0.175049 0.044049 0.000000
0.161006 0.112995 0.000000
0.150152 0.132326 0.000000
0.215148 0.065114 0.000000
0.189183 0.088328 0.000000
0.252463 0.158653 0.000000
0.206391 0.130319 0.000000
0.204144 0.153075 0.000000
0.193278 0.188637 0.000000
0.193811 0.261312 0.000000
0.209051 0.309004 0.000000
0.188138 0.335851 0.000000
0.203179 0.352228 0.000000
0.179546 0.362384 0.000000
[...]
<PointData>
<DataArray NumberOfComponents='1' type='Int32' Name='ParticleType' format='ascii'>
3
3
3
3
3
3
3
3
3
3
3
3
3
3
3
3
3
3
3
3
3
3
3
3
3
3
3
3
3
3
3
3
3
3
3
3
3
3
3
3
3
3
3
3
3
3
3
3
3
3
3
3
3
3
3
3
3
3
2
2
2
2
2
2
2
2
2
2
2
2
2
2
2
2
2
2
2
2
2
2
2
2
2
2
3
3
2
2
2
2
2
2
2
2
2
2
2
2
2
2
2
2
2
2
2
2
2
2
2
2
2
2
3
3
2
2
0
0
0
0
0
0
0
0
0
0
0
0
0
0
0
0
0
0
0
0
0
0
0
0
3
3
2
2
0
0
0
0
0
0
0
0
0
0
0
0
0
0
0
0
0
0
0
0
0
0
0
0
3
3
2
2
0
0
0
0
0
0
0
0
0
0
0
0
0
0
0
0
0
0
0
0
0
0
0
0
3
3
2
2
0
0
0
0
0
0
0
0
0
0
0
0
0
0
0
0
0
0
0
0
0
0
0
0
3
3
2
2
0
0
0
0
0
0
0
0
0
0
0
0
0
0
0
0
0
0
0
0
0
0
0
0
3
3
2
2
0
0
0
0
0
0
0
0
0
0
0
0
0
0
0
0
0
0
0
0
0
0
0
0
3
3
2
2
0
0
0
0
0
0
0
0
0
0
0
0
0
0
0
0
0
0
0
0
0
0
0
0
3
3
2
2
0
0
0
0
0
0
0
0
0
0
0
0
0
0
0
0
0
0
0
0
0
0
0
0
3
3
2
2
0
0
0
0
0
0
0
0
0
0
0
0
0
0
0
0
0
0
0
0
0
0
0
0
3
3
2
2
0
0
0
0
0
0
0
0
0
0
0
0
0
0
0
0
0
0
0
0
0
0
0
0
3
3
2
2
0
0
0
0
0
0
0
0
0
0
0
0
0
0
0
0
0
0
0
0
0
0
0
0
3
3
2
2
0
0
0
0
0
0
0
0
0
0
0
0
0
0
0
0
0
0
0
0
0
0
0
0
3
3
2
2
0
0
0
0
0
0
0
0
0
0
0
0
0
0
0
0
0
0
0
0
0
0
0
0
3
3
2
2
0
0
0
0
0
0
0
0
0
0
0
0
0
0
0
0
0
0
0
0
0
0
0
0
3
3
2
2
0
0
0
0
0
0
0
0
0
0
0
0
0
0
0
0
0
0
0
0
0
0
0
0
3
3
2
2
0
0
0
0
0
0
0
0
0
0
0
0
0
0
0
0
0
0
0
0
0
0
0
0
3
3
2
2
0
0
0
0
0
0
0
0
0
0
0
0
0
0
0
0
0
0
0
0
0
0
0
0
3
3
2
2
0
0
0
0
0
0
0
0
0
0
0
0
0
0
0
0
0
0
0
0
0
0
0
0
3
3
2
2
0
0
0
0
0
0
0
0
0
0
0
0
0
0
0
0
0
0
0
0
0
0
0
0
3
3
2
2
0
0
0
0
0
0
0
0
0
0
0
0
0
0
0
0
0
0
0
0
0
0
0
0
3
3
2
2
0
0
0
0
0
0
0
0
0
0
0
0
0
0
0
0
0
0
0
0
0
0
0
0
3
3
2
2
0
0
0
0
0
0
0
0
0
0
0
0
0
0
0
0
0
0
0
0
0
0
0
0
3
3
2
2
0
0
0
0
0
0
0
0
0
0
0
0
0
0
0
0
0
0
0
0
0
0
0
0
3
3
2
2
0
0
0
0
0
0
0
0
0
0
0
0
0
0
0
0
0
0
0
0
0
0
0
0
3
3
2
2
0
0
0
0
0
0
0
0
0
0
0
0
0
0
0
0
0
0
0
0
0
0
0
0
3
3
2
2
0
0
0
0
0
0
0
0
0
0
0
0
0
0
0
0
0
0
0
0
0
0
0
0
3
3
2
2
0
0
0
0
0
0
0
0
0
0
0
0
0
0
0
0
0
0
0
0
0
0
0
0
3
3
2
2
0
0
0
0
0
0
0
0
0
0
0
0
0
0
0
0
0
0
0
0
0
0
0
0
3
3
2
2
0
0
0
0
0
0
0
0
0
0
0
0
0
0
0
0
0
0
0
0
0
0
0
0
3
3
2
2
0
0
0
0
0
0
0
0
0
0
0
0
0
0
0
0
0
0
0
0
0
0
0
0
3
3
2
2
0
0
0
0
0
0
0
0
0
0
0
0
0
0
0
0
0
0
0
0
0
0
0
0
3
3
2
2
0
0
0
0
0
0
0
0
0
0
0
0
0
0
0
0
0
0
0
0
0
0
0
0
3
3
2
2
0
0
0
0
0
0
0
0
0
0
0
0
0
0
0
0
0
0
0
0
0
0
0
0
3
3
2
2
0
0
0
0
0
0
0
0
0
0
0
0
0
0
0
0
0
0
0
0
0
0
0
0
3
3
2
2
0
0
0
0
0
0
0
0
0
0
0
0
0
0
0
0
0
0
0
0
0
0
0
0
3
3
2
2
0
0
0
0
0
0
0
0
0
0
0
0
0
0
0
0
0
0
0
0
0
0
0
0
3
3
2
2
0
0
0
0
0
0
0
0
0
0
0
0
0
0
0
0
0
0
0
0
0
0
0
0
3
3
2
2
0
0
0
0
0
0
0
0
0
0
0
0
0
0
0
0
0
0
0
0
0
0
0
0
3
3
2
2
0
0
0
0
0
0
0
0
0
0
0
0
0
0
0
0
0
0
0
0
0
0
0
0
3
3
2
2
0
0
0
0
0
0
0
0
0
0
0
0
0
0
0
0
0
0
0
0
0
0
0
0
3
3
2
2
2
2
2
2
2
2
2
2
2
2
2
2
2
2
2
2
2
2
2
2
2
2
2
2
3
3
2
2
2
2
2
2
2
2
2
2
2
2
2
2
2
2
2
2
2
2
2
2
2
2
2
2
3
3
3
3
3
3
3
3
3
3
3
3
3
3
3
3
3
3
3
3
3
3
3
3
3
3
3
3
3
3
3
3
3
3
3
3
3
3
3
3
3
3
3
3
3
3
3
3
3
3
3
3
3
3
3
3
</DataArray>
<DataArray NumberOfComponents='1' type='Float32' Name='Velocity' format='ascii'>
0.000000
0.000000
0.000000
0.000000
0.000000
0.000000
0.000000
0.000000
0.000000
0.000000
0.000000
0.000000
0.000000
0.000000
0.000000
0.000000
0.000000
0.000000
0.000000
0.000000
0.000000
0.000000
0.000000
0.000000
0.000000
0.000000
0.000000
0.000000
0.000000
0.000000
0.000000
0.000000
0.000000
0.000000
0.000000
0.000000
0.000000
0.000000
0.000000
0.000000
0.000000
0.000000
0.000000
0.000000
0.000000
0.000000
0.000000
0.000000
0.000000
0.000000
0.000000
0.000000
0.000000
0.000000
0.000000
0.000000
0.000000
0.000000
0.000000
0.000000
0.000000
0.000000
0.000000
0.000000
0.000000
0.000000
0.000000
0.000000
0.000000
0.000000
0.000000
0.000000
0.000000
0.000000
0.000000
0.000000
0.000000
0.000000
0.000000
0.000000
0.000000
0.000000
0.000000
0.000000
0.000000
0.000000
0.000000
0.000000
0.000000
0.000000
0.000000
0.000000
0.000000
0.000000
0.000000
0.000000
0.000000
0.000000
0.000000
0.000000
0.000000
0.000000
0.000000
0.000000
0.000000
0.000000
0.000000
0.000000
0.000000
0.000000
0.000000
0.000000
0.000000
0.000000
0.000000
0.000000
0.038201
0.059027
0.090125
0.198829
0.037099
0.343388
0.092327
0.048391
0.123980
0.404305
0.181073
0.566815
0.203227
0.259848
0.095967
0.455811
0.495598
0.597139
0.100000
0.100000
0.100000
0.100000
0.100000
0.100000
0.000000
0.000000
0.000000
0.000000
0.043220
0.063810
0.215705
0.218024
0.020681
0.177438
0.155927
0.045011
0.399268
0.302202
0.216354
0.204942
0.387588
0.125562
0.291721
0.626128
0.438542
0.234082
0.100000
0.100000
0.100000
0.100000
0.100000
0.100000
0.000000
0.000000
0.000000
0.000000
0.129388
0.105145
0.124609
0.081667
0.152365
0.114231
0.105129
0.184055
0.358774
0.238247
0.060825
0.174955
0.312732
0.298862
0.154823
0.184943
0.312826
0.505966
0.509725
0.753033
0.100000
0.100000
0.100000
0.100000
0.000000
0.000000
0.000000
0.000000
0.149364
0.174404
0.051224
0.189766
0.021239
0.125039
0.560472
0.450950
0.128357
0.257054
0.489456
0.237576
0.336265
0.407763
0.267343
0.221935
0.646422
0.434947
0.246993
0.274519
0.362602
0.100000
0.100000
0.100000
0.000000
0.000000
0.000000
0.000000
0.064966
0.072179
0.097919
0.025867
0.155822
0.109551
0.361624
0.688016
0.220626
0.353735
0.287118
0.312392
0.261402
0.155389
0.473668
0.413574
0.719847
0.185124
0.221491
0.375639
0.100000
0.474274
0.100000
0.100000
0.000000
0.000000
0.000000
0.000000
0.026734
0.219904
0.107624
0.144666
0.155143
0.149644
0.134937
0.182552
0.281139
0.426241
0.218395
0.241764
0.414266
0.291130
0.361095
0.231964
0.157433
0.305327
0.239775
0.135586
0.292224
0.360900
0.100000
0.100000
0.000000
0.000000
0.000000
0.000000
0.023707
0.159875
0.165646
0.185448
0.120215
0.129176
0.141407
0.412207
0.202690
0.177339
0.377052
0.153367
0.078365
0.286991
0.446498
0.186980
0.213968
0.165662
0.202072
0.140503
0.289857
0.183649
0.100000
0.100000
0.000000
0.000000
0.000000
0.000000
0.062824
0.089292
0.227420
0.133031
0.273107
0.323075
0.077597
0.163815
0.147269
0.151157
0.087302
0.274510
0.177385
0.141793
0.365601
0.191235
0.378178
0.189600
0.242734
0.152905
0.271183
0.362639
0.100000
0.100000
0.000000
0.000000
0.000000
0.000000
0.181677
0.132370
0.140569
0.052393
0.146128
0.188713
0.183161
0.197793
0.079759
0.121436
0.212735
0.102206
0.225638
0.257203
0.320493
0.157423
0.459534
0.092455
0.033421
0.171289
0.143935
0.330734
0.100000
0.100000
0.000000
0.000000
0.000000
0.000000
0.163112
0.037233
0.047834
0.220536
0.235482
0.042604
0.239323
0.141940
0.091562
0.050374
0.233610
0.211350
0.227172
0.200872
0.166473
0.175096
0.121420
0.215975
0.225851
0.187477
0.059119
0.165828
0.100000
0.100000
0.000000
0.000000
0.000000
0.000000
0.088741
0.031386
0.279367
0.136650
0.129909
0.171577
0.147854
0.275862
0.213925
0.059983
0.264953
0.132453
0.180213
0.308153
0.099793
0.171079
0.147686
0.347225
0.175604
0.532235
0.234900
0.100000
0.100000
0.100000
0.000000
0.000000
0.000000
0.000000
0.131889
0.105205
0.074518
0.092622
0.166938
0.113171
0.085153
0.154335
0.362509
0.157125
0.158416
0.196456
0.142460
0.270357
0.105257
0.269740
0.226390
0.185453
0.091399
0.209874
0.336548
0.252464
0.100000
0.100000
0.000000
0.000000
0.000000
0.000000
0.125710
0.070180
0.151105
0.144592
0.234877
0.053598
0.111260
0.223201
0.240177
0.180672
0.163794
0.098951
0.088786
0.059795
0.134669
0.217898
0.193076
0.276633
0.255218
0.403093
0.391497
0.415319
0.100000
0.100000
0.000000
0.000000
0.000000
0.000000
0.086129
0.091037
0.082596
0.255902
0.105038
0.065651
0.092740
0.123746
0.289077
0.239692
0.259111
0.179335
0.278349
0.221438
0.179509
0.109661
0.305806
0.374435
0.205436
0.433745
0.419154
0.100000
0.100000
0.100000
0.000000
0.000000
0.000000
0.000000
0.002704
0.220898
0.100645
0.122173
0.239981
0.057730
0.117247
0.174556
0.181861
0.119413
0.209039
0.173413
0.394369
0.184141
0.189639
0.257261
0.224393
0.251257
0.407110
0.098519
0.565631
0.449720
0.100000
0.100000
0.000000
0.000000
0.000000
0.000000
0.073480
0.081986
0.097937
0.064217
0.031360
0.368058
0.271802
0.108824
0.063831
0.173182
0.199401
0.123970
0.232216
0.360690
0.151803
0.117793
0.214953
0.162755
0.290647
0.212714
0.466444
0.412758
0.100000
0.100000
0.000000
0.000000
0.000000
0.000000
0.060425
0.244099
0.158093
0.061204
0.107676
0.217122
0.093563
0.156007
0.100330
0.101834
0.208946
0.136293
0.391587
0.096611
0.105387
0.336586
0.435484
0.296910
0.335922
0.220680
0.455775
0.100000
0.100000
0.100000
0.000000
0.000000
0.000000
0.000000
0.062343
0.032624
0.229051
0.243451
0.080356
0.140247
0.274125
0.250195
0.136587
0.281534
0.147218
0.135963
0.186102
0.139830
0.312275
0.345808
0.303272
0.043413
0.385913
0.354248
0.298227
0.298682
0.308456
0.100000
0.000000
0.000000
0.000000
0.000000
0.111314
0.219187
0.196576
0.165386
0.280852
0.288893
0.182191
0.275524
0.054213
0.166855
0.209747
0.155899
0.050642
0.169603
0.158719
0.365322
0.386618
0.417609
0.085899
0.465816
0.249317
0.262408
0.381319
0.100000
0.000000
0.000000
0.000000
0.000000
0.109402
0.143485
0.152871
0.079841
0.160366
0.146230
0.269892
0.307678
0.046356
0.183076
0.061531
0.177513
0.224385
0.171966
0.145577
0.120284
0.239545
0.066768
0.163297
0.336321
0.298373
0.100000
0.100000
0.100000
0.000000
0.000000
0.000000
0.000000
0.100081
0.066510
0.105287
0.132889
0.126500
0.106760
0.347530
0.065003
0.209168
0.105632
0.190508
0.239561
0.185959
0.145102
0.195495
0.332901
0.395965
0.263919
0.234729
0.371324
0.153648
0.036936
0.185365
0.100000
0.000000
0.000000
0.000000
0.000000
0.103492
0.043007
0.120512
0.261568
0.091651
0.120324
0.179195
0.079017
0.030666
0.135794
0.083400
0.050353
0.121965
0.123096
0.255630
0.229304
0.102349
0.169125
0.168225
0.063347
0.270735
0.058269
0.264042
0.100000
0.000000
0.000000
0.000000
0.000000
0.052958
0.138887
0.034381
0.180177
0.353877
0.208472
0.194894
0.126301
0.157473
0.164964
0.135997
0.084108
0.209059
0.197743
0.174086
0.178803
0.228353
0.241781
0.295106
0.152716
0.326942
0.196556
0.061821
0.100000
0.000000
0.000000
0.000000
0.000000
0.033209
0.152201
0.124546
0.087994
0.058364
0.026561
0.032314
0.113085
0.030227
0.116184
0.199513
0.139854
0.060461
0.186769
0.121761
0.198719
0.283123
0.188481
0.267209
0.196635
0.236955
0.221547
0.278165
0.100000
0.000000
0.000000
0.000000
0.000000
0.059815
0.081557
0.061380
0.140934
0.106438
0.139685
0.176671
0.189367
0.084739
0.136482
0.263738
0.081105
0.015884
0.037575
0.064904
0.255309
0.176732
0.295947
0.055369
0.257442
0.225803
0.200739
0.477915
0.100000
0.000000
0.000000
0.000000
0.000000
0.051436
0.129263
0.287014
0.123811
0.095875
0.079308
0.099319
0.100627
0.149693
0.062527
0.243247
0.060331
0.165013
0.208645
0.088671
0.292204
0.105684
0.252095
0.232439
0.236068
0.112075
0.311144
0.100000
0.100000
0.000000
0.000000
0.000000
0.000000
0.116813
0.024360
0.123683
0.300608
0.011314
0.129901
0.146535
0.101927
0.035065
0.262807
0.137508
0.039477
0.275657
0.073329
0.104581
0.038243
0.156480
0.065546
0.181737
0.222785
0.067778
0.065581
0.575370
0.100000
0.000000
0.000000
0.000000
0.000000
0.034852
0.098518
0.184915
0.205240
0.146822
0.087164
0.164187
0.062287
0.108603
0.325201
0.090097
0.124150
0.213123
0.193359
0.084294
0.046216
0.096962
0.250912
0.161196
0.224410
0.372665
0.140608
0.413857
0.100000
0.000000
0.000000
0.000000
0.000000
0.037713
0.149032
0.284029
0.191008
0.080521
0.063407
0.041099
0.273705
0.051553
0.174048
0.074122
0.067955
0.238124
0.349015
0.086666
0.059492
0.127018
0.097093
0.285255
0.366090
0.150154
0.381727
0.100000
0.100000
0.000000
0.000000
0.000000
0.000000
0.049380
0.151460
0.068586
0.108236
0.225637
0.039247
0.063368
0.148784
0.221728
0.167238
0.141894
0.263978
0.299544
0.216220
0.400038
0.193786
0.248737
0.297936
0.191162
0.175355
0.468099
0.104314
0.187612
0.100000
0.000000
0.000000
0.000000
0.000000
0.066556
0.017155
0.217581
0.084268
0.189093
0.052345
0.226256
0.020691
0.103726
0.257356
0.246945
0.222920
0.231427
0.146168
0.311727
0.127833
0.156776
0.177271
0.215077
0.253204
0.192628
0.771586
0.941819
0.100000
0.000000
0.000000
0.000000
0.000000
0.104888
0.100119
0.163951
0.121800
0.102602
0.237531
0.239581
0.058263
0.181636
0.103718
0.218734
0.062272
0.076967
0.111638
0.106342
0.204318
0.244605
0.430421
0.093827
0.392406
0.193321
0.331071
0.526550
0.100000
0.000000
0.000000
0.000000
0.000000
0.119618
0.080588
0.188509
0.161678
0.159510
0.204826
0.138805
0.270771
0.029308
0.219259
0.082028
0.207814
0.200591
0.288257
0.169117
0.180501
0.093748
0.056681
0.128638
0.449670
0.216441
0.357417
0.121590
0.100000
0.000000
0.000000
0.000000
0.000000
0.035783
0.173616
0.062280
0.146445
0.120500
0.153441
0.205795
0.317160
0.184969
0.309563
0.160346
0.045445
0.107809
0.250919
0.160307
0.288598
0.486527
0.010276
0.177981
0.366320
0.325010
0.447213
0.521460
0.100000
0.000000
0.000000
0.000000
0.000000
0.033945
0.137982
0.094979
0.075680
0.328010
0.218253
0.179103
0.120955
0.197499
0.189400
0.342537
0.086932
0.166177
0.199046
0.101785
0.152673
0.318263
0.131210
0.255121
0.088969
0.397753
0.263984
0.849042
0.100000
0.000000
0.000000
0.000000
0.000000
0.113790
0.158724
0.404003
0.133280
0.183298
0.089209
0.105939
0.128160
0.174297
0.303297
0.157310
0.104531
0.011991
0.348629
0.090139
0.174916
0.292438
0.312172
0.340603
0.548905
0.310397
0.351883
0.631150
0.100000
0.000000
0.000000
0.000000
0.000000
0.056855
0.064800
0.137708
0.096870
0.116652
0.169527
0.224741
0.021382
0.176832
0.125833
0.161438
0.042510
0.270037
0.270805
0.554630
0.344321
0.380524
0.082329
0.148044
0.327417
0.240853
0.151562
0.183397
0.100000
0.000000
0.000000
0.000000
0.000000
0.102402
0.188207
0.121831
0.126912
0.067313
0.021180
0.150080
0.124634
0.343118
0.114386
0.103214
0.266695
0.062939
0.200631
0.031247
0.367594
0.232577
0.232211
0.219274
0.504054
0.550463
0.271167
0.751631
0.100000
0.000000
0.000000
0.000000
0.000000
0.089083
0.059718
0.213965
0.149120
0.085400
0.141918
0.160482
0.177508
0.151265
0.234357
0.084565
0.091365
0.165114
0.128547
0.341969
0.412670
0.375412
0.062240
0.290523
0.564292
0.401762
0.259727
1.430104
0.100000
0.000000
0.000000
0.000000
0.000000
0.022692
0.081251
0.058422
0.139848
0.248979
0.060257
0.082018
0.112532
0.044656
0.181000
0.233592
0.012809
0.162027
0.275877
0.239603
0.484069
0.301139
0.426524
0.267184
0.452482
0.416665
0.416364
0.794670
0.100000
0.000000
0.000000
0.000000
0.000000
0.000000
0.000000
0.000000
0.000000
0.000000
0.000000
0.000000
0.000000
0.000000
0.000000
0.000000
0.000000
0.000000
0.000000
0.000000
0.000000
0.000000
0.000000
0.000000
0.000000
0.000000
0.000000
0.000000
0.000000
0.000000
0.000000
0.000000
0.000000
0.000000
0.000000
0.000000
0.000000
0.000000
0.000000
0.000000
0.000000
0.000000
0.000000
0.000000
0.000000
0.000000
0.000000
0.000000
0.000000
0.000000
0.000000
0.000000
0.000000
0.000000
0.000000
0.000000
0.000000
0.000000
0.000000
0.000000
0.000000
0.000000
0.000000
0.000000
0.000000
0.000000
0.000000
0.000000
0.000000
0.000000
0.000000
0.000000
0.000000
0.000000
0.000000
0.000000
0.000000
0.000000
0.000000
0.000000
0.000000
0.000000
0.000000
0.000000
0.000000
0.000000
0.000000
0.000000
0.000000
0.000000
0.000000
0.000000
0.000000
0.000000
0.000000
0.000000
0.000000
0.000000
0.000000
0.000000
0.000000
0.000000
0.000000
0.000000
0.000000
0.000000
0.000000
0.000000
0.000000
0.000000
0.000000
0.000000
0.000000
</DataArray>
<DataArray NumberOfComponents='1' type='Float32' Name='pressure' format='ascii'>
0.000000
0.000000
0.000000
0.000000
0.000000
0.000000
0.000000
0.000000
0.000000
0.000000
0.000000
0.000000
0.000000
0.000000
0.000000
0.000000
0.000000
0.000000
0.000000
0.000000
0.000000
0.000000
0.000000
0.000000
0.000000
0.000000
0.000000
0.000000
0.000000
0.000000
0.000000
0.000000
0.000000
0.000000
0.000000
0.000000
0.000000
0.000000
0.000000
0.000000
0.000000
0.000000
0.000000
0.000000
0.000000
0.000000
0.000000
0.000000
0.000000
0.000000
0.000000
0.000000
0.000000
0.000000
0.000000
0.000000
0.000000
0.000000
92302.054688
92154.796875
92318.359375
92750.515625
92644.421875
91718.742188
91805.234375
91201.375000
90391.843750
89154.187500
88043.718750
87235.101562
86796.804688
85616.460938
85127.156250
81919.835938
80030.632812
77767.179688
74566.117188
70013.656250
66273.453125
61377.562500
55666.628906
49381.472656
39262.089844
0.000000
0.000000
0.000000
92635.015625
91655.546875
90261.140625
92995.875000
92901.851562
89738.656250
91465.421875
91393.570312
89913.843750
88487.296875
88838.304688
87849.187500
86092.101562
83655.734375
85404.007812
81791.554688
80072.968750
77991.312500
73946.265625
69793.640625
66777.296875
62311.027344
56046.453125
52474.179688
47172.312500
30000.761719
0.000000
0.000000
94167.117188
93180.945312
93477.375000
92892.710938
92475.867188
91148.773438
89942.015625
86991.015625
89118.343750
87936.320312
86706.914062
85362.164062
81761.820312
77239.757812
74043.046875
66139.796875
63051.398438
52928.332031
48146.648438
47586.359375
46638.902344
39342.394531
0.000000
35233.875000
83839.976562
94002.843750
0.000000
0.000000
94163.109375
92783.546875
92897.734375
92669.484375
91940.976562
92083.070312
90575.164062
89474.710938
89654.000000
87497.890625
84990.335938
84588.578125
83730.617188
80156.789062
74767.914062
71892.484375
64895.855469
56227.816406
54811.121094
66103.679688
46161.093750
0.000000
0.000000
0.000000
102829.343750
96307.359375
0.000000
0.000000
93313.296875
92944.054688
92985.937500
91995.078125
91957.234375
92048.554688
87401.492188
89129.210938
87893.625000
87560.929688
85980.828125
85731.210938
85000.765625
83288.890625
81295.492188
78520.164062
73691.585938
69511.242188
73818.500000
69460.617188
57678.027344
58595.683594
65652.507812
57736.183594
98667.921875
101615.921875
0.000000
0.000000
93353.937500
93365.515625
92243.382812
90698.390625
89876.914062
90901.460938
89710.156250
89855.710938
89046.765625
89498.664062
88356.460938
86494.890625
84555.289062
82869.546875
77726.101562
80026.062500
77418.484375
74246.601562
60767.898438
69338.492188
78443.195312
92056.062500
73633.937500
90992.320312
111434.320312
104456.531250
0.000000
0.000000
92855.218750
92372.140625
91976.460938
92437.359375
91764.351562
90808.328125
90750.429688
90154.562500
90929.867188
88087.273438
86826.007812
86920.632812
83417.546875
80881.414062
82940.828125
80509.781250
82559.210938
79036.773438
77434.750000
80306.757812
86137.125000
98554.406250
107640.687500
85527.335938
113527.781250
106204.101562
0.000000
0.000000
94064.796875
93200.203125
93621.054688
93762.804688
92069.304688
92176.054688
89318.203125
90576.437500
91609.929688
90303.726562
90412.976562
89216.164062
84959.695312
85506.640625
87610.898438
86928.273438
89160.609375
86833.796875
85118.968750
83112.937500
91416.007812
96443.773438
97562.164062
102744.429688
108639.031250
112804.164062
0.000000
0.000000
94903.367188
94612.750000
93499.453125
92898.523438
92102.460938
91829.328125
91908.601562
91447.859375
92110.281250
93212.601562
92277.882812
92213.382812
91476.734375
87217.210938
88217.078125
89453.820312
91897.257812
88135.179688
91187.234375
87884.867188
86892.921875
91173.132812
99447.148438
100895.382812
120402.578125
115436.218750
0.000000
0.000000
95351.070312
94853.554688
94559.000000
93948.945312
93014.164062
91644.078125
92506.992188
92400.367188
94971.398438
93592.554688
92531.531250
92578.750000
89949.664062
92013.250000
90407.015625
88887.906250
88552.656250
92748.125000
91709.492188
95034.437500
98028.671875
102220.750000
104440.000000
104675.023438
119576.679688
114091.054688
0.000000
0.000000
95601.609375
96143.687500
95078.015625
94006.023438
93439.601562
93012.460938
94748.242188
94768.250000
95679.632812
95022.445312
93769.671875
93612.484375
91647.750000
92398.906250
89974.125000
92110.906250
90966.164062
96670.789062
95282.500000
95169.500000
98910.921875
103116.601562
104752.750000
107123.523438
120680.531250
113412.742188
0.000000
0.000000
96048.468750
95944.109375
95354.187500
94060.320312
94284.398438
93628.640625
95064.078125
94148.734375
94220.398438
94249.968750
94561.382812
93981.773438
91540.710938
91532.171875
93215.875000
93446.984375
93632.312500
95030.078125
98093.062500
98717.500000
107461.523438
103872.554688
108453.484375
106373.156250
113204.664062
113650.640625
0.000000
0.000000
96137.906250
95102.203125
95094.781250
96228.328125
95425.562500
95578.914062
95701.421875
95083.921875
96016.671875
93419.210938