<?xml version='1.0' encoding='UTF-8'?>
<VTKFile xmlns='VTK' byte_order='LittleEndian' version='0.1' type='UnstructuredGrid'>
<UnstructuredGrid>
<Piece NumberOfCells='1344' NumberOfPoints='1344'>
<Points>
<DataArray NumberOfComponents='3' type='Float32' Name='Position' format='ascii'>
-0.075000 -0.075000 0.000000
-0.075000 -0.050000 0.000000
-0.075000 -0.025000 0.000000
-0.075000 0.000000 0.000000
-0.075000 0.025000 0.000000
-0.075000 0.050000 0.000000
-0.075000 0.075000 0.000000
-0.075000 0.100000 0.000000
-0.075000 0.125000 0.000000
-0.075000 0.150000 0.000000
-0.075000 0.175000 0.000000
-0.075000 0.200000 0.000000
-0.075000 0.225000 0.000000
-0.075000 0.250000 0.000000
-0.075000 0.275000 0.000000
-0.075000 0.300000 0.000000
-0.075000 0.325000 0.000000
-0.075000 0.350000 0.000000
-0.075000 0.375000 0.000000
-0.075000 0.400000 0.000000
-0.075000 0.425000 0.000000
-0.075000 0.450000 0.000000
-0.075000 0.475000 0.000000
-0.075000 0.500000 0.000000
-0.075000 0.525000 0.000000
-0.075000 0.550000 0.000000
-0.075000 0.575000 0.000000
-0.075000 0.600000 0.000000
-0.050000 -0.075000 0.000000
-0.050000 -0.050000 0.000000
-0.050000 -0.025000 0.000000
-0.050000 0.000000 0.000000
-0.050000 0.025000 0.000000
-0.050000 0.050000 0.000000
-0.050000 0.075000 0.000000
-0.050000 0.100000 0.000000
-0.050000 0.125000 0.000000
-0.050000 0.150000 0.000000
-0.050000 0.175000 0.000000
-0.050000 0.200000 0.000000
-0.050000 0.225000 0.000000
-0.050000 0.250000 0.000000
-0.050000 0.275000 0.000000
-0.050000 0.300000 0.000000
-0.050000 0.325000 0.000000
-0.050000 0.350000 0.000000
-0.050000 0.375000 0.000000
-0.050000 0.400000 0.000000
-0.050000 0.425000 0.000000
-0.050000 0.450000 0.000000
-0.050000 0.475000 0.000000
-0.050000 0.500000 0.000000
-0.050000 0.525000 0.000000
-0.050000 0.550000 0.000000
-0.050000 0.575000 0.000000
-0.050000 0.600000 0.000000
-0.025000 -0.075000 0.000000
-0.025000 -0.050000 0.000000
-0.025000 -0.025000 0.000000
-0.025000 0.000000 0.000000
-0.025000 0.025000 0.000000
-0.025000 0.050000 0.000000
-0.025000 0.075000 0.000000
-0.025000 0.100000 0.000000
-0.025000 0.125000 0.000000
-0.025000 0.150000 0.000000
-0.025000 0.175000 0.000000
-0.025000 0.200000 0.000000
-0.025000 0.225000 0.000000
-0.025000 0.250000 0.000000
-0.025000 0.275000 0.000000
-0.025000 0.300000 0.000000
-0.025000 0.325000 0.000000
-0.025000 0.350000 0.000000
-0.025000 0.375000 0.000000
-0.025000 0.400000 0.000000
-0.025000 0.425000 0.000000
-0.025000 0.450000 0.000000
-0.025000 0.475000 0.000000
-0.025000 0.500000 0.000000
-0.025000 0.525000 0.000000
-0.025000 0.550000 0.000000
-0.025000 0.575000 0.000000
-0.025000 0.600000 0.000000
0.000000 -0.075000 0.000000
0.000000 -0.050000 0.000000
0.000000 -0.025000 0.000000
0.000000 0.000000 0.000000
0.000000 0.025000 0.000000
0.000000 0.050000 0.000000
0.000000 0.075000 0.000000
0.000000 0.100000 0.000000
0.000000 0.125000 0.000000
0.000000 0.150000 0.000000
0.000000 0.175000 0.000000
0.000000 0.200000 0.000000
0.000000 0.225000 0.000000
0.000000 0.250000 0.000000
0.000000 0.275000 0.000000
0.000000 0.300000 0.000000
0.000000 0.325000 0.000000
0.000000 0.350000 0.000000
0.000000 0.375000 0.000000
0.000000 0.400000 0.000000
0.000000 0.425000 0.000000
0.000000 0.450000 0.000000
0.000000 0.475000 0.000000
0.000000 0.500000 0.000000
0.000000 0.525000 0.000000
0.000000 0.550000 0.000000
0.000000 0.575000 0.000000
0.000000 0.600000 0.000000
0.025000 -0.075000 0.000000
0.025000 -0.050000 0.000000
0.025000 -0.025000 0.000000
0.025000 0.000000 0.000000
0.023349 0.026659 0.000000
0.065933 0.022551 0.000000
0.023118 0.057837 0.000000
0.023378 0.114586 0.000000
0.021311 0.186637 0.000000
0.046375 0.228772 0.000000
0.024574 0.221225 0.000000
0.024942 0.246302 0.000000
0.021901 0.285496 0.000000
0.030201 0.310251 0.000000
0.023268 0.356923 0.000000
0.022556 0.387346 0.000000
0.025187 0.418410 0.000000
0.024155 0.442440 0.000000
0.028045 0.469726 0.000000
0.022862 0.492505 0.000000
0.024071 0.523596 0.000000
0.048068 0.533858 0.000000
0.044798 0.558611 0.000000
0.025330 0.577615 0.000000
0.035493 0.600000 0.000000
0.014877 0.600000 0.000000
0.113905 0.600000 0.000000
0.133317 0.600000 0.000000
0.050000 -0.075000 0.000000
0.050000 -0.050000 0.000000
0.050000 -0.025000 0.000000
0.050000 0.000000 0.000000
0.098420 0.022921 0.000000
0.043626 0.029828 0.000000
0.043088 0.067488 0.000000
0.024217 0.087650 0.000000
0.026222 0.142197 0.000000
0.029647 0.163523 0.000000
0.065596 0.202884 0.000000
0.056421 0.251524 0.000000
0.048530 0.293848 0.000000
0.053512 0.330007 0.000000
0.025755 0.330971 0.000000
0.043295 0.378458 0.000000
0.045442 0.404109 0.000000
0.048745 0.430935 0.000000
0.047087 0.457872 0.000000
0.055390 0.486213 0.000000
0.043727 0.505973 0.000000
0.066669 0.517030 0.000000
0.022065 0.550236 0.000000
0.059084 0.578742 0.000000
0.075209 0.600000 0.000000
0.055058 0.600000 0.000000
0.142651 0.578231 0.000000
0.152351 0.600000 0.000000
0.075000 -0.075000 0.000000
0.075000 -0.050000 0.000000
0.075000 -0.025000 0.000000
0.075000 0.000000 0.000000
0.080183 0.043596 0.000000
0.059627 0.053500 0.000000
0.062829 0.085234 0.000000
0.047800 0.129530 0.000000
0.071762 0.165452 0.000000
0.041175 0.201354 0.000000
0.089600 0.201635 0.000000
0.036307 0.266518 0.000000
0.075555 0.243053 0.000000
0.066203 0.283202 0.000000
0.071545 0.312826 0.000000
0.047898 0.352606 0.000000
0.072947 0.365317 0.000000
0.066922 0.393668 0.000000
0.078682 0.414992 0.000000
0.071952 0.436585 0.000000
0.078827 0.486605 0.000000
0.090846 0.509529 0.000000
0.084487 0.536058 0.000000
0.070136 0.552213 0.000000
0.086258 0.576888 0.000000
0.094312 0.600000 0.000000
0.171834 0.600000 0.000000
0.190995 0.600000 0.000000
0.100000 -0.075000 0.000000
0.100000 -0.050000 0.000000
0.100000 -0.025000 0.000000
0.100000 0.000000 0.000000
0.116090 0.037911 0.000000
0.069623 0.118658 0.000000
0.082591 0.138187 0.000000
0.044817 0.101175 0.000000
0.056820 0.182336 0.000000
0.054679 0.152528 0.000000
0.113992 0.227593 0.000000
0.084501 0.223625 0.000000
0.102158 0.250145 0.000000
0.084302 0.269822 0.000000
0.091103 0.294036 0.000000
0.075038 0.343881 0.000000
0.100273 0.365693 0.000000
0.090254 0.388775 0.000000
0.105187 0.418582 0.000000
0.097866 0.439304 0.000000
0.071744 0.462606 0.000000
0.096951 0.467774 0.000000
0.110126 0.528790 0.000000
0.138445 0.532998 0.000000
0.100656 0.554054 0.000000
0.114093 0.577569 0.000000
0.200208 0.577210 0.000000
0.209884 0.600000 0.000000
0.125000 -0.075000 0.000000
0.125000 -0.050000 0.000000
0.125000 -0.025000 0.000000
0.125000 0.000000 0.000000
0.100701 0.054268 0.000000
0.084019 0.076960 0.000000
0.101925 0.126343 0.000000
0.098631 0.179473 0.000000
0.101099 0.157093 0.000000
0.116232 0.197016 0.000000
0.133178 0.212271 0.000000
0.128779 0.245826 0.000000
0.118431 0.267868 0.000000
0.114261 0.294432 0.000000
0.093565 0.320312 0.000000
0.103165 0.342173 0.000000
0.124574 0.367380 0.000000
0.114208 0.391962 0.000000
0.129958 0.411842 0.000000
0.133931 0.439727 0.000000
0.117334 0.454290 0.000000
0.107926 0.491234 0.000000
0.125685 0.508476 0.000000
0.154577 0.555338 0.000000
0.171954 0.576691 0.000000
0.126032 0.552475 0.000000
0.227946 0.575866 0.000000
0.229321 0.600000 0.000000
0.150000 -0.075000 0.000000
0.150000 -0.050000 0.000000
0.150000 -0.025000 0.000000
0.150000 0.000000 0.000000
0.134634 0.023689 0.000000
0.120269 0.071164 0.000000
0.110093 0.088435 0.000000
0.085111 0.100401 0.000000
0.122811 0.152162 0.000000
0.129379 0.176039 0.000000
0.155041 0.196606 0.000000
0.151361 0.228826 0.000000
0.142920 0.267425 0.000000
0.138517 0.294312 0.000000
0.122844 0.316740 0.000000
0.127997 0.339819 0.000000
0.150449 0.371141 0.000000
0.142080 0.391775 0.000000
0.152524 0.425421 0.000000
0.165940 0.448873 0.000000
0.146896 0.463223 0.000000
0.129942 0.481386 0.000000
0.150937 0.511556 0.000000
0.177307 0.512572 0.000000
0.167470 0.535404 0.000000
0.184936 0.553617 0.000000
0.247696 0.600000 0.000000
0.266540 0.600000 0.000000
0.175000 -0.075000 0.000000
0.175000 -0.050000 0.000000
0.175000 -0.025000 0.000000
0.175000 0.000000 0.000000
0.162606 0.025456 0.000000
0.145447 0.045042 0.000000
0.138804 0.086701 0.000000
0.136991 0.133277 0.000000
0.147503 0.105355 0.000000
0.154132 0.150898 0.000000
0.154106 0.175231 0.000000
0.182419 0.167707 0.000000
0.172399 0.219550 0.000000
0.170961 0.243578 0.000000
0.165535 0.267089 0.000000
0.153052 0.318549 0.000000
0.150872 0.343503 0.000000
0.169903 0.384689 0.000000
0.170909 0.413685 0.000000
0.186866 0.430582 0.000000
0.207677 0.450965 0.000000
0.185120 0.462185 0.000000
0.154418 0.486713 0.000000
0.178567 0.486621 0.000000
0.201531 0.506363 0.000000
0.198581 0.531178 0.000000
0.282104 0.574976 0.000000
0.286013 0.600000 0.000000
0.200000 -0.075000 0.000000
0.200000 -0.050000 0.000000
0.200000 -0.025000 0.000000
0.200000 0.000000 0.000000
0.187658 0.024565 0.000000
0.174343 0.049984 0.000000
0.153439 0.066166 0.000000
0.116840 0.113797 0.000000
0.189744 0.114904 0.000000
0.161560 0.126405 0.000000
0.180641 0.140301 0.000000
0.198500 0.154447 0.000000
0.180605 0.192824 0.000000
0.190194 0.272992 0.000000
0.162279 0.293813 0.000000
0.175329 0.323374 0.000000
0.172480 0.352658 0.000000
0.194000 0.343127 0.000000
0.194515 0.372291 0.000000
0.190205 0.395664 0.000000
0.209497 0.425732 0.000000
0.203577 0.479202 0.000000
0.223751 0.496177 0.000000
0.241005 0.512340 0.000000
0.223470 0.528826 0.000000
0.212575 0.552064 0.000000
0.306895 0.573601 0.000000
0.304855 0.600000 0.000000
0.225000 -0.075000 0.000000
0.225000 -0.050000 0.000000
0.225000 -0.025000 0.000000
0.225000 0.000000 0.000000
0.209974 0.025389 0.000000
0.203811 0.051611 0.000000
0.177826 0.071441 0.000000
0.171534 0.096342 0.000000
0.218466 0.101223 0.000000
0.212537 0.125108 0.000000
0.223893 0.161727 0.000000
0.205924 0.186874 0.000000
0.197649 0.210733 0.000000
0.194774 0.244750 0.000000
0.212668 0.287627 0.000000
0.234789 0.294717 0.000000
0.200139 0.316153 0.000000
0.216884 0.343822 0.000000
0.216562 0.373230 0.000000
[...]
<PointData>
<DataArray NumberOfComponents='1' type='Int32' Name='ParticleType' format='ascii'>
3
3
3
3
3
3
3
3
3
3
3
3
3
3
3
3
3
3
3
3
3
3
3
3
3
3
3
3
3
3
3
3
3
3
3
3
3
3
3
3
3
3
3
3
3
3
3
3
3
3
3
3
3
3
3
3
3
3
2
2
2
2
2
2
2
2
2
2
2
2
2
2
2
2
2
2
2
2
2
2
2
2
2
2
3
3
2
2
2
2
2
2
2
2
2
2
2
2
2
2
2
2
2
2
2
2
2
2
2
2
2
2
3
3
2
2
0
0
0
0
0
0
0
0
0
0
0
0
0
0
0
0
0
0
0
0
0
0
0
0
3
3
2
2
0
0
0
0
0
0
0
0
0
0
0
0
0
0
0
0
0
0
0
0
0
0
0
0
3
3
2
2
0
0
0
0
0
0
0
0
0
0
0
0
0
0
0
0
0
0
0
0
0
0
0
0
3
3
2
2
0
0
0
0
0
0
0
0
0
0
0
0
0
0
0
0
0
0
0
0
0
0
0
0
3
3
2
2
0
0
0
0
0
0
0
0
0
0
0
0
0
0
0
0
0
0
0
0
0
0
0
0
3
3
2
2
0
0
0
0
0
0
0
0
0
0
0
0
0
0
0
0
0
0
0
0
0
0
0
0
3
3
2
2
0
0
0
0
0
0
0
0
0
0
0
0
0
0
0
0
0
0
0
0
0
0
0
0
3
3
2
2
0
0
0
0
0
0
0
0
0
0
0
0
0
0
0
0
0
0
0
0
0
0
0
0
3
3
2
2
0
0
0
0
0
0
0
0
0
0
0
0
0
0
0
0
0
0
0
0
0
0
0
0
3
3
2
2
0
0
0
0
0
0
0
0
0
0
0
0
0
0
0
0
0
0
0
0
0
0
0
0
3
3
2
2
0
0
0
0
0
0
0
0
0
0
0
0
0
0
0
0
0
0
0
0
0
0
0
0
3
3
2
2
0
0
0
0
0
0
0
0
0
0
0
0
0
0
0
0
0
0
0
0
0
0
0
0
3
3
2
2
0
0
0
0
0
0
0
0
0
0
0
0
0
0
0
0
0
0
0
0
0
0
0
0
3
3
2
2
0
0
0
0
0
0
0
0
0
0
0
0
0
0
0
0
0
0
0
0
0
0
0
0
3
3
2
2
0
0
0
0
0
0
0
0
0
0
0
0
0
0
0
0
0
0
0
0
0
0
0
0
3
3
2
2
0
0
0
0
0
0
0
0
0
0
0
0
0
0
0
0
0
0
0
0
0
0
0
0
3
3
2
2
0
0
0
0
0
0
0
0
0
0
0
0
0
0
0
0
0
0
0
0
0
0
0
0
3
3
2
2
0
0
0
0
0
0
0
0
0
0
0
0
0
0
0
0
0
0
0
0
0
0
0
0
3
3
2
2
0
0
0
0
0
0
0
0
0
0
0
0
0
0
0
0
0
0
0
0
0
0
0
0
3
3
2
2
0
0
0
0
0
0
0
0
0
0
0
0
0
0
0
0
0
0
0
0
0
0
0
0
3
3
2
2
0
0
0
0
0
0
0
0
0
0
0
0
0
0
0
0
0
0
0
0
0
0
0
0
3
3
2
2
0
0
0
0
0
0
0
0
0
0
0
0
0
0
0
0
0
0
0
0
0
0
0
0
3
3
2
2
0
0
0
0
0
0
0
0
0
0
0
0
0
0
0
0
0
0
0
0
0
0
0
0
3
3
2
2
0
0
0
0
0
0
0
0
0
0
0
0
0
0
0
0
0
0
0
0
0
0
0
0
3
3
2
2
0
0
0
0
0
0
0
0
0
0
0
0
0
0
0
0
0
0
0
0
0
0
0
0
3
3
2
2
0
0
0
0
0
0
0
0
0
0
0
0
0
0
0
0
0
0
0
0
0
0
0
0
3
3
2
2
0
0
0
0
0
0
0
0
0
0
0
0
0
0
0
0
0
0
0
0
0
0
0
0
3
3
2
2
0
0
0
0
0
0
0
0
0
0
0
0
0
0
0
0
0
0
0
0
0
0
0
0
3
3
2
2
0
0
0
0
0
0
0
0
0
0
0
0
0
0
0
0
0
0
0
0
0
0
0
0
3
3
2
2
0
0
0
0
0
0
0
0
0
0
0
0
0
0
0
0
0
0
0
0
0
0
0
0
3
3
2
2
0
0
0
0
0
0
0
0
0
0
0
0
0
0
0
0
0
0
0
0
0
0
0
0
3
3
2
2
0
0
0
0
0
0
0
0
0
0
0
0
0
0
0
0
0
0
0
0
0
0
0
0
3
3
2
2
0
0
0
0
0
0
0
0
0
0
0
0
0
0
0
0
0
0
0
0
0
0
0
0
3
3
2
2
0
0
0
0
0
0
0
0
0
0
0
0
0
0
0
0
0
0
0
0
0
0
0
0
3
3
2
2
0
0
0
0
0
0
0
0
0
0
0
0
0
0
0
0
0
0
0
0
0
0
0
0
3
3
2
2
0
0
0
0
0
0
0
0
0
0
0
0
0
0
0
0
0
0
0
0
0
0
0
0
3
3
2
2
0
0
0
0
0
0
0
0
0
0
0
0
0
0
0
0
0
0
0
0
0
0
0
0
3
3
2
2
0
0
0
0
0
0
0
0
0
0
0
0
0
0
0
0
0
0
0
0
0
0
0
0
3
3
2
2
0
0
0
0
0
0
0
0
0
0
0
0
0
0
0
0
0
0
0
0
0
0
0
0
3
3
2
2
0
0
0
0
0
0
0
0
0
0
0
0
0
0
0
0
0
0
0
0
0
0
0
0
3
3
2
2
2
2
2
2
2
2
2
2
2
2
2
2
2
2
2
2
2
2
2
2
2
2
2
2
3
3
2
2
2
2
2
2
2
2
2
2
2
2
2
2
2
2
2
2
2
2
2
2
2
2
2
2
3
3
3
3
3
3
3
3
3
3
3
3
3
3
3
3
3
3
3
3
3
3
3
3
3
3
3
3
3
3
3
3
3
3
3
3
3
3
3
3
3
3
3
3
3
3
3
3
3
3
3
3
3
3
3
3
</DataArray>
<DataArray NumberOfComponents='1' type='Float32' Name='Velocity' format='ascii'>
0.000000
0.000000
0.000000
0.000000
0.000000
0.000000
0.000000
0.000000
0.000000
0.000000
0.000000
0.000000
0.000000
0.000000
0.000000
0.000000
0.000000
0.000000
0.000000
0.000000
0.000000
0.000000
0.000000
0.000000
0.000000
0.000000
0.000000
0.000000
0.000000
0.000000
0.000000
0.000000
0.000000
0.000000
0.000000
0.000000
0.000000
0.000000
0.000000
0.000000
0.000000
0.000000
0.000000
0.000000
0.000000
0.000000
0.000000
0.000000
0.000000
0.000000
0.000000
0.000000
0.000000
0.000000
0.000000
0.000000
0.000000
0.000000
0.000000
0.000000
0.000000
0.000000
0.000000
0.000000
0.000000
0.000000
0.000000
0.000000
0.000000
0.000000
0.000000
0.000000
0.000000
0.000000
0.000000
0.000000
0.000000
0.000000
0.000000
0.000000
0.000000
0.000000
0.000000
0.000000
0.000000
0.000000
0.000000
0.000000
0.000000
0.000000
0.000000
0.000000
0.000000
0.000000
0.000000
0.000000
0.000000
0.000000
0.000000
0.000000
0.000000
0.000000
0.000000
0.000000
0.000000
0.000000
0.000000
0.000000
0.000000
0.000000
0.000000
0.000000
0.000000
0.000000
0.000000
0.000000
0.106717
0.163329
0.136346
0.273927
0.071249
0.336601
0.295216
0.379038
0.171182
0.102445
0.191311
0.157562
0.353130
0.114365
0.022965
0.234848
0.182490
0.500522
0.856227
0.100000
0.100000
0.100000
0.100000
0.100000
0.000000
0.000000
0.000000
0.000000
0.069762
0.092691
0.133984
0.133452
0.068838
0.143447
0.101046
0.303223
0.167346
0.269441
0.111891
0.059214
0.217248
0.364238
0.296673
0.167573
0.141400
0.474650
0.446049
0.100000
0.100000
0.100000
0.100000
0.100000
0.000000
0.000000
0.000000
0.000000
0.222500
0.107135
0.282467
0.193140
0.086188
0.215657
0.082651
0.394050
0.087305
0.118468
0.160061
0.226375
0.145791
0.090100
0.241536
0.208021
0.242031
0.324674
0.273069
0.694409
0.100000
0.100000
0.100000
0.100000
0.000000
0.000000
0.000000
0.000000
0.030861
0.082697
0.124594
0.225707
0.077504
0.163938
0.064187
0.171256
0.106794
0.135589
0.056031
0.132224
0.246728
0.127914
0.039783
0.362588
0.258277
0.352605
0.497187
0.158770
0.234518
0.100000
0.100000
0.100000
0.000000
0.000000
0.000000
0.000000
0.107853
0.088912
0.017709
0.128245
0.073594
0.040905
0.140091
0.080561
0.053375
0.234625
0.025069
0.226846
0.108447
0.181295
0.156525
0.113075
0.200722
0.098245
0.299272
0.237665
0.100000
0.176383
0.100000
0.100000
0.000000
0.000000
0.000000
0.000000
0.005672
0.023726
0.128840
0.016202
0.207535
0.122858
0.213849
0.160293
0.136944
0.186662
0.187462
0.095659
0.110924
0.240087
0.074313
0.212665
0.063071
0.111031
0.286345
0.213867
0.334788
0.146009
0.100000
0.100000
0.000000
0.000000
0.000000
0.000000
0.086955
0.064390
0.236297
0.069612
0.246512
0.159081
0.013105
0.154646
0.148739
0.031492
0.178640
0.275722
0.245518
0.037669
0.075946
0.034019
0.212318
0.212262
0.105053
0.294833
0.120885
0.109338
0.370264
0.100000
0.000000
0.000000
0.000000
0.000000
0.065197
0.161006
0.163674
0.086130
0.093073
0.181235
0.088171
0.109831
0.241886
0.195930
0.063455
0.080479
0.012178
0.245537
0.276425
0.169065
0.084060
0.258008
0.294106
0.298011
0.059445
0.230928
0.564043
0.100000
0.000000
0.000000
0.000000
0.000000
0.197389
0.128520
0.105590
0.194657
0.295178
0.215876
0.187259
0.036463
0.034297
0.165277
0.199306
0.071299
0.140469
0.150443
0.242497
0.141653
0.101330
0.220131
0.190641
0.232811
0.325838
0.171970
0.100000
0.100000
0.000000
0.000000
0.000000
0.000000
0.076780
0.248029
0.075827
0.147668
0.264954
0.248869
0.109575
0.318684
0.065001
0.146596
0.022757
0.256820
0.130521
0.214407
0.087862
0.074418
0.094498
0.234003
0.238490
0.070387
0.072445
0.248369
0.100000
0.100000
0.000000
0.000000
0.000000
0.000000
0.187620
0.066734
0.078880
0.347821
0.094505
0.183555
0.138135
0.081729
0.217843
0.101067
0.064319
0.275284
0.329054
0.079681
0.053495
0.142664
0.190447
0.167411
0.025633
0.547743
0.638908
0.100000
0.100000
0.100000
0.000000
0.000000
0.000000
0.000000
0.139765
0.107594
0.124360
0.102931
0.133810
0.031887
0.213230
0.136977
0.103803
0.279821
0.175689
0.447138
0.076520
0.050496
0.200273
0.177363
0.122341
0.119024
0.060729
0.279237
0.120838
0.321656
0.100000
0.100000
0.000000
0.000000
0.000000
0.000000
0.165394
0.056118
0.028367
0.063142
0.162059
0.076439
0.199356
0.137660
0.246660
0.069105
0.140635
0.014238
0.247494
0.130174
0.172033
0.366064
0.122650
0.434471
0.177907
0.500885
0.056548
0.471804
0.100000
0.100000
0.000000
0.000000
0.000000
0.000000
0.126349
0.232875
0.035602
0.275307
0.130469
0.128023
0.156954
0.309763
0.094375
0.230662
0.247430
0.055650
0.088042
0.177692
0.161829
0.361509
0.114099
0.399197
0.083360
0.213658
0.187801
0.483941
0.100000
0.100000
0.000000
0.000000
0.000000
0.000000
0.206853
0.258480
0.144334
0.161079
0.063046
0.065285
0.081076
0.213174
0.215795
0.202974
0.159480
0.184104
0.069943
0.270170
0.104502
0.163568
0.062723
0.337416
0.193467
0.431459
0.351762
0.532174
0.100000
0.100000
0.000000
0.000000
0.000000
0.000000
0.089779
0.096703
0.037893
0.084288
0.064668
0.201437
0.091384
0.350028
0.179858
0.275096
0.145647
0.181973
0.079261
0.160613
0.118019
0.280198
0.238228
0.129102
0.362860
0.067398
0.214900
0.382181
0.100000
0.100000
0.000000
0.000000
0.000000
0.000000
0.083236
0.107298
0.118197
0.080435
0.030368
0.133108
0.026270
0.157791
0.010084
0.499836
0.143140
0.061740
0.195604
0.340122
0.162569
0.207287
0.354653
0.238514
0.182255
0.431380
0.359641
0.100000
0.100000
0.100000
0.000000
0.000000
0.000000
0.000000
0.066225
0.132419
0.079029
0.032233
0.139590
0.138138
0.103300
0.156211
0.145496
0.121734
0.244862
0.135941
0.113549
0.120813
0.195861
0.160152
0.303655
0.451673
0.289773
0.483344
0.677375
0.504685
0.154987
0.100000
0.000000
0.000000
0.000000
0.000000
0.100004
0.114400
0.012822
0.052932
0.166872
0.288464
0.181854
0.261396
0.476164
0.351083
0.319541
0.379755
0.293107
0.234646
0.137812
0.117723
0.235432
0.231748
0.341644
0.295010
0.117951
0.239781
0.100000
0.100000
0.000000
0.000000
0.000000
0.000000
0.092319
0.038575
0.086402
0.185300
0.159312
0.118008
0.095058
0.145221
0.033174
0.158661
0.165888
0.190250
0.169277
0.161857
0.254609
0.217230
0.010426
0.408155
0.421499
0.242134
0.750794
0.100000
0.100000
0.100000
0.000000
0.000000
0.000000
0.000000
0.160907
0.026422
0.027435
0.097493
0.213383
0.186322
0.222457
0.208922
0.014694
0.123686
0.186156
0.224493
0.036330
0.453934
0.223579
0.287891
0.061181
0.167685
0.448162
0.727672
0.284983
0.856016
0.100000
0.100000
0.000000
0.000000
0.000000
0.000000
0.099603
0.123850
0.053107
0.019163
0.275302
0.079017
0.143914
0.159958
0.148653
0.185310
0.240521
0.142588
0.202743
0.271119
0.351085
0.084908
0.200431
0.462894
0.156387
0.451577
0.204000
0.539913
0.100000
0.100000
0.000000
0.000000
0.000000
0.000000
0.139656
0.204097
0.147082
0.361165
0.193793
0.211812
0.238395
0.018080
0.221243
0.147386
0.105347
0.072615
0.047568
0.178594
0.286311
0.198911
0.308222
0.471474
0.155229
0.366105
0.855579
0.548254
0.100000
0.100000
0.000000
0.000000
0.000000
0.000000
0.050573
0.137521
0.129208
0.046079
0.024442
0.165550
0.118484
0.178988
0.107251
0.097725
0.120627
0.049188
0.241430
0.246498
0.180573
0.280821
0.449410
0.384574
0.273456
0.528118
0.366581
0.200757
0.100000
0.100000
0.000000
0.000000
0.000000
0.000000
0.101116
0.208000
0.140360
0.158915
0.027148
0.115178
0.125291
0.153267
0.029051
0.124037
0.045796
0.153731
0.232274
0.277227
0.501768
0.420600
0.369566
0.220236
0.225352
0.227264
0.383119
0.639287
0.720740
0.100000
0.000000
0.000000
0.000000
0.000000
0.104585
0.030065
0.168232
0.077571
0.075304
0.128638
0.120235
0.374385
0.195928
0.089554
0.265903
0.225641
0.065947
0.247755
0.138911
0.394559
0.155474
0.434806
0.430994
0.617644
0.269829
0.679826
0.100000
0.100000
0.000000
0.000000
0.000000
0.000000
0.132339
0.188562
0.139666
0.191498
0.145107
0.202077
0.176485
0.088641
0.161234
0.115318
0.205078
0.118139
0.158856
0.078808
0.211402
0.124536
0.415597
0.163407
0.391603
0.419403
0.742816
0.796578
0.100000
0.100000
0.000000
0.000000
0.000000
0.000000
0.212374
0.070297
0.259097
0.106752
0.112889
0.005433
0.194278
0.119955
0.088890
0.104329
0.201643
0.035488
0.214805
0.216772
0.170374
0.165385
0.129436
0.320391
0.049654
0.197837
0.219748
0.721212
0.385612
0.100000
0.000000
0.000000
0.000000
0.000000
0.242945
0.172032
0.200387
0.242031
0.130669
0.075455
0.074287
0.067920
0.050249
0.224986
0.009788
0.099465
0.193929
0.096509
0.066067
0.341495
0.169317
0.095408
0.101577
0.465872
0.452203
0.474073
0.100000
0.100000
0.000000
0.000000
0.000000
0.000000
0.080830
0.052824
0.177991
0.039232
0.062553
0.197437
0.037400
0.126778
0.082242
0.194060
0.184672
0.141933
0.211584
0.093490
0.294690
0.061738
0.297987
0.303153
0.473008
0.617183
1.005534
0.670913
0.282144
0.100000
0.000000
0.000000
0.000000
0.000000
0.174432
0.164783
0.218721
0.225864
0.119013
0.067148
0.027209
0.132807
0.478284
0.158268
0.189540
0.064818
0.201679
0.215397
0.227014
0.092789
0.175371
0.387282
0.207784
0.400615
0.496139
0.100000
0.118729
0.100000
0.000000
0.000000
0.000000
0.000000
0.055367
0.141918
0.202795
0.108717
0.135134
0.198518
0.143474
0.222021
0.297353
0.197553
0.062065
0.058627
0.163893
0.104659
0.161868
0.165034
0.286247
0.147502
0.396742
0.429006
0.583088
0.206626
0.380047
0.100000
0.000000
0.000000
0.000000
0.000000
0.099385
0.300063
0.145296
0.126888
0.073806
0.303292
0.100876
0.164657
0.259837
0.342592
0.195046
0.214298
0.230682
0.177078
0.239991
0.054203
0.345256
0.110223
0.116111
0.204049
0.911912
0.463733
0.498511
0.100000
0.000000
0.000000
0.000000
0.000000
0.126264
0.215859
0.063394
0.169952
0.149292
0.013887
0.186403
0.103205
0.269747
0.166305
0.112725
0.230350
0.320163
0.211737
0.157489
0.186892
0.236061
0.230795
0.247312
0.358341
0.501387
0.205497
0.358327
0.100000
0.000000
0.000000
0.000000
0.000000
0.028079
0.134216
0.118026
0.216430
0.256205
0.148795
0.144015
0.463491
0.270721
0.145206
0.199019
0.132316
0.071848
0.087756
0.293417
0.136542
0.082027
0.185895
0.165639
0.376120
0.195702
0.375651
0.074804
0.100000
0.000000
0.000000
0.000000
0.000000
0.065055
0.218830
0.293147
0.305882
0.065661
0.081807
0.174480
0.167557
0.175413
0.100886
0.234768
0.067497
0.210368
0.167434
0.254324
0.194656
0.054295
0.205740
0.452874
0.296863
0.337096
0.016473
0.279689
0.100000
0.000000
0.000000
0.000000
0.000000
0.035316
0.076543
0.154658
0.060998
0.304140
0.265458
0.255722
0.053196
0.119617
0.269277
0.447461
0.112854
0.195903
0.190593
0.081377
0.123296
0.082527
0.254173
0.414153
0.163680
0.211302
0.341025
0.037372
0.100000
0.000000
0.000000
0.000000
0.000000
0.025925
0.005317
0.121759
0.255865
0.260243
0.240663
0.043089
0.070876
0.112324
0.151716
0.229116
0.121446
0.178718
0.215415
0.150151
0.157859
0.128635
0.033314
0.114123
0.042746
0.332590
0.423379
0.498516
0.100000
0.000000
0.000000
0.000000
0.000000
0.087768
0.144305
0.140305
0.027349
0.068308
0.196344
0.243878
0.087882
0.357768
0.163835
0.151175
0.238429
0.069029
0.190854
0.333537
0.051819
0.179211
0.141449
0.186690
0.208753
0.149981
0.416376
0.754650
0.100000
0.000000
0.000000
0.000000
0.000000
0.017893
0.048087
0.104191
0.133778
0.195201
0.127996
0.380265
0.051792
0.373699
0.073817
0.143983
0.133509
0.079103
0.108468
0.068379
0.113701
0.100643
0.298484
0.204387
0.084148
0.229797
0.453627
0.170433
0.100000
0.000000
0.000000
0.000000
0.000000
0.000000
0.000000
0.000000
0.000000
0.000000
0.000000
0.000000
0.000000
0.000000
0.000000
0.000000
0.000000
0.000000
0.000000
0.000000
0.000000
0.000000
0.000000
0.000000
0.000000
0.000000
0.000000
0.000000
0.000000
0.000000
0.000000
0.000000
0.000000
0.000000
0.000000
0.000000
0.000000
0.000000
0.000000
0.000000
0.000000
0.000000
0.000000
0.000000
0.000000
0.000000
0.000000
0.000000
0.000000
0.000000
0.000000
0.000000
0.000000
0.000000
0.000000
0.000000
0.000000
0.000000
0.000000
0.000000
0.000000
0.000000
0.000000
0.000000
0.000000
0.000000
0.000000
0.000000
0.000000
0.000000
0.000000
0.000000
0.000000
0.000000
0.000000
0.000000
0.000000
0.000000
0.000000
0.000000
0.000000
0.000000
0.000000
0.000000
0.000000
0.000000
0.000000
0.000000
0.000000
0.000000
0.000000
0.000000
0.000000
0.000000
0.000000
0.000000
0.000000
0.000000
0.000000
0.000000
0.000000
0.000000
0.000000
0.000000
0.000000
0.000000
0.000000
0.000000
0.000000
0.000000
0.000000
0.000000
0.000000
</DataArray>
<DataArray NumberOfComponents='1' type='Float32' Name='pressure' format='ascii'>
0.000000
0.000000
0.000000
0.000000
0.000000
0.000000
0.000000
0.000000
0.000000
0.000000
0.000000
0.000000
0.000000
0.000000
0.000000
0.000000
0.000000
0.000000
0.000000
0.000000
0.000000
0.000000
0.000000
0.000000
0.000000
0.000000
0.000000
0.000000
0.000000
0.000000
0.000000
0.000000
0.000000
0.000000
0.000000
0.000000
0.000000
0.000000
0.000000
0.000000
0.000000
0.000000
0.000000
0.000000
0.000000
0.000000
0.000000
0.000000
0.000000
0.000000
0.000000
0.000000
0.000000
0.000000
0.000000
0.000000
0.000000
0.000000
31641.652344
31839.791016
32472.488281
32075.378906
31370.115234
31070.765625
30375.078125
29361.556641
30715.761719
30567.259766
29866.800781
29489.207031
30026.478516
29641.111328
29104.439453
30176.689453
30594.566406
30371.626953
30083.078125
30601.500000
30999.261719
32810.875000
32794.882812
30679.154297
23982.021484
0.000000
0.000000
0.000000
31435.187500
31592.300781
32942.785156
31564.923828
30737.878906
30956.142578
30033.326172
28654.533203
30059.162109
29555.685547
29858.304688
28822.064453
28932.441406
28863.277344
28455.566406
30098.117188
29748.375000
29735.593750
29775.703125
30128.277344
29999.669922
33348.488281
34484.980469
34926.636719
32739.111328
0.000000
0.000000
0.000000
30781.208984
30802.375000
31756.474609
31783.697266
29570.974609
30252.128906
30003.150391
28644.273438
30115.189453
28600.941406
29737.695312
29919.144531
29270.205078
30525.097656
29905.980469
30154.996094
30596.738281
32437.300781
33249.566406
34329.558594
36556.824219
36909.257812
26173.035156
25674.183594
0.000000
0.000000
0.000000
0.000000
31404.902344
30299.744141
30673.730469
31950.583984
31536.013672
30455.941406
29851.654297
29669.832031
29265.244141
29342.640625
28536.923828
28635.410156
29378.392578
28837.353516
29583.343750
29314.164062
30468.193359
30909.216797
32632.037109
32818.238281
35047.128906
38795.289062
26147.210938
28524.365234
16140.039062
0.000000
0.000000
0.000000
32418.753906
32301.222656
31974.000000
30362.193359
30934.886719
30484.285156
29197.960938
29089.259766
30098.191406
29033.025391
30010.498047
30310.617188
28456.044922
28944.619141
28412.412109
30293.582031
28355.507812
30118.986328
29710.246094
30309.791016
33768.546875
33102.996094
32994.230469
20372.875000
10490.804688
12675.807617
0.000000
0.000000
32736.595703
32630.210938
31136.164062
30358.390625
30035.943359
29733.195312
29657.535156
29478.541016
29136.962891
29468.488281
29501.927734
27989.103516
28960.718750
28440.396484
29301.519531
29433.412109
29003.705078
28008.134766
29804.234375
29377.712891
26684.740234
20802.304688
26811.333984
22854.304688
19513.740234
10682.108398
0.000000
0.000000
31928.021484
31596.636719
31033.310547
29935.830078
29702.636719
29748.878906
30421.068359
30174.738281
29938.337891
29432.505859
29430.660156
30498.380859
29133.626953
29472.019531
28742.263672
28965.539062
28810.683594
29579.097656
29552.185547
28484.816406
24928.945312
0.000000
17379.410156
19474.402344
19834.662109
0.000000
0.000000
0.000000
31344.931641
30886.318359
31675.949219
30680.689453
30588.734375
30043.388672
30752.390625
28868.537109
30059.544922
29530.173828
29101.244141
29837.402344
28668.589844
29714.496094
29685.875000
29051.748047
29618.367188
28952.306641
27344.449219
27030.240234
24512.125000
24850.650391
19655.664062
16356.571289
0.000000
12385.053711
0.000000
0.000000
31309.714844
31702.921875
31570.371094
30703.398438
30270.628906
29242.167969
30746.904297
29619.734375
29881.160156
29567.974609
30077.722656
30191.720703
30656.750000
29776.841797
30410.765625
29242.011719
29452.925781
28707.060547
30106.363281
28928.759766
26632.751953
27657.527344
29511.875000
25490.462891
28402.869141
14448.183594
0.000000
0.000000
31615.730469
31948.476562
31380.527344
30780.878906
30651.726562
29833.376953
30089.312500
31191.408203
30209.402344
30469.349609
29828.500000
30313.355469
29780.681641
28798.421875
30408.851562
30411.501953
29934.869141
29580.986328
30512.644531
29200.085938
32251.982422
34742.941406
29741.109375
21786.343750
28772.064453
12879.516602
0.000000
0.000000
31627.738281
31611.539062
31621.097656
30622.841797
31009.388672
29850.720703
30895.564453
29946.390625
30393.394531
29799.636719
30414.699219
29831.091797
29485.912109
32269.330078
30758.177734
30857.318359
30784.919922
30812.642578
31382.115234
30474.568359
31981.810547
32007.929688
33096.761719
24070.818359
24355.941406
0.000000
0.000000
0.000000
32095.769531
31850.181641
31566.201172
31406.660156
30891.107422
30886.998047
30774.511719
30152.009766
30598.718750
30461.138672
31095.699219
30090.203125
31251.480469
31355.699219
30686.947266
31341.306641
30831.857422
31277.189453
31976.076172
31901.390625
33063.605469
32896.222656
32887.179688
32620.738281
0.000000
0.000000
0.000000
0.000000
31660.826172
31932.427734
31905.248047
31395.357422
31257.371094
30827.345703
30285.931641
30793.222656
31089.494141
31341.425781
30790.044922
31331.753906
31831.261719
30977.433594