<?xml version='1.0' encoding='UTF-8'?>
<VTKFile xmlns='VTK' byte_order='LittleEndian' version='0.1' type='UnstructuredGrid'>
<UnstructuredGrid>
<Piece NumberOfCells='1344' NumberOfPoints='1344'>
<Points>
<DataArray NumberOfComponents='3' type='Float32' Name='Position' format='ascii'>
-0.075000 -0.075000 0.000000
-0.075000 -0.050000 0.000000
-0.075000 -0.025000 0.000000
-0.075000 0.000000 0.000000
-0.075000 0.025000 0.000000
-0.075000 0.050000 0.000000
-0.075000 0.075000 0.000000
-0.075000 0.100000 0.000000
-0.075000 0.125000 0.000000
-0.075000 0.150000 0.000000
-0.075000 0.175000 0.000000
-0.075000 0.200000 0.000000
-0.075000 0.225000 0.000000
-0.075000 0.250000 0.000000
-0.075000 0.275000 0.000000
-0.075000 0.300000 0.000000
-0.075000 0.325000 0.000000
-0.075000 0.350000 0.000000
-0.075000 0.375000 0.000000
-0.075000 0.400000 0.000000
-0.075000 0.425000 0.000000
-0.075000 0.450000 0.000000
-0.075000 0.475000 0.000000
-0.075000 0.500000 0.000000
-0.075000 0.525000 0.000000
-0.075000 0.550000 0.000000
-0.075000 0.575000 0.000000
-0.075000 0.600000 0.000000
-0.050000 -0.075000 0.000000
-0.050000 -0.050000 0.000000
-0.050000 -0.025000 0.000000
-0.050000 0.000000 0.000000
-0.050000 0.025000 0.000000
-0.050000 0.050000 0.000000
-0.050000 0.075000 0.000000
-0.050000 0.100000 0.000000
-0.050000 0.125000 0.000000
-0.050000 0.150000 0.000000
-0.050000 0.175000 0.000000
-0.050000 0.200000 0.000000
-0.050000 0.225000 0.000000
-0.050000 0.250000 0.000000
-0.050000 0.275000 0.000000
-0.050000 0.300000 0.000000
-0.050000 0.325000 0.000000
-0.050000 0.350000 0.000000
-0.050000 0.375000 0.000000
-0.050000 0.400000 0.000000
-0.050000 0.425000 0.000000
-0.050000 0.450000 0.000000
-0.050000 0.475000 0.000000
-0.050000 0.500000 0.000000
-0.050000 0.525000 0.000000
-0.050000 0.550000 0.000000
-0.050000 0.575000 0.000000
-0.050000 0.600000 0.000000
-0.025000 -0.075000 0.000000
-0.025000 -0.050000 0.000000
-0.025000 -0.025000 0.000000
-0.025000 0.000000 0.000000
-0.025000 0.025000 0.000000
-0.025000 0.050000 0.000000
-0.025000 0.075000 0.000000
-0.025000 0.100000 0.000000
-0.025000 0.125000 0.000000
-0.025000 0.150000 0.000000
-0.025000 0.175000 0.000000
-0.025000 0.200000 0.000000
-0.025000 0.225000 0.000000
-0.025000 0.250000 0.000000
-0.025000 0.275000 0.000000
-0.025000 0.300000 0.000000
-0.025000 0.325000 0.000000
-0.025000 0.350000 0.000000
-0.025000 0.375000 0.000000
-0.025000 0.400000 0.000000
-0.025000 0.425000 0.000000
-0.025000 0.450000 0.000000
-0.025000 0.475000 0.000000
-0.025000 0.500000 0.000000
-0.025000 0.525000 0.000000
-0.025000 0.550000 0.000000
-0.025000 0.575000 0.000000
-0.025000 0.600000 0.000000
0.000000 -0.075000 0.000000
0.000000 -0.050000 0.000000
0.000000 -0.025000 0.000000
0.000000 0.000000 0.000000
0.000000 0.025000 0.000000
0.000000 0.050000 0.000000
0.000000 0.075000 0.000000
0.000000 0.100000 0.000000
0.000000 0.125000 0.000000
0.000000 0.150000 0.000000
0.000000 0.175000 0.000000
0.000000 0.200000 0.000000
0.000000 0.225000 0.000000
0.000000 0.250000 0.000000
0.000000 0.275000 0.000000
0.000000 0.300000 0.000000
0.000000 0.325000 0.000000
0.000000 0.350000 0.000000
0.000000 0.375000 0.000000
0.000000 0.400000 0.000000
0.000000 0.425000 0.000000
0.000000 0.450000 0.000000
0.000000 0.475000 0.000000
0.000000 0.500000 0.000000
0.000000 0.525000 0.000000
0.000000 0.550000 0.000000
0.000000 0.575000 0.000000
0.000000 0.600000 0.000000
0.025000 -0.075000 0.000000
0.025000 -0.050000 0.000000
0.025000 -0.025000 0.000000
0.025000 0.000000 0.000000
0.043597 0.024302 0.000000
0.079919 0.022570 0.000000
0.022030 0.028162 0.000000
0.022532 0.112511 0.000000
0.045966 0.163737 0.000000
0.069805 0.275096 0.000000
0.027259 0.185157 0.000000
0.051920 0.229546 0.000000
0.023576 0.233268 0.000000
0.024426 0.257654 0.000000
0.024711 0.363448 0.000000
0.024908 0.413084 0.000000
0.022489 0.461433 0.000000
0.022603 0.494727 0.000000
0.029662 0.519115 0.000000
0.038627 0.556880 0.000000
0.053481 0.578438 0.000000
0.082034 0.578141 0.000000
0.108258 0.581112 0.000000
0.056119 0.600000 0.000000
0.036462 0.600000 0.000000
0.015322 0.600000 0.000000
0.157820 0.600000 0.000000
0.177160 0.600000 0.000000
0.050000 -0.075000 0.000000
0.050000 -0.050000 0.000000
0.050000 -0.025000 0.000000
0.050000 0.000000 0.000000
0.105948 0.025459 0.000000
0.090320 0.050898 0.000000
0.022674 0.064780 0.000000
0.030246 0.085153 0.000000
0.028596 0.135170 0.000000
0.023648 0.160553 0.000000
0.057786 0.249813 0.000000
0.044025 0.271185 0.000000
0.025961 0.286466 0.000000
0.046003 0.354098 0.000000
0.025141 0.336463 0.000000
0.025286 0.386735 0.000000
0.026144 0.435889 0.000000
0.044098 0.469064 0.000000
0.045824 0.490892 0.000000
0.020422 0.541865 0.000000
0.056278 0.538638 0.000000
0.116406 0.536177 0.000000
0.025101 0.578870 0.000000
0.096612 0.600000 0.000000
0.118379 0.600000 0.000000
0.076817 0.600000 0.000000
0.190946 0.578736 0.000000
0.197401 0.600000 0.000000
0.075000 -0.075000 0.000000
0.075000 -0.050000 0.000000
0.075000 -0.025000 0.000000
0.075000 0.000000 0.000000
0.113097 0.047832 0.000000
0.062892 0.039162 0.000000
0.042483 0.053672 0.000000
0.048843 0.118232 0.000000
0.074961 0.222427 0.000000
0.046720 0.198627 0.000000
0.127976 0.251824 0.000000
0.027661 0.210126 0.000000
0.052194 0.299058 0.000000
0.023420 0.310795 0.000000
0.067911 0.353952 0.000000
0.071075 0.327684 0.000000
0.046953 0.401785 0.000000
0.051408 0.433721 0.000000
0.062525 0.451989 0.000000
0.072005 0.482308 0.000000
0.146772 0.528551 0.000000
0.135215 0.552440 0.000000
0.070085 0.557739 0.000000
0.105537 0.556543 0.000000
0.135649 0.578049 0.000000
0.137870 0.600000 0.000000
0.217535 0.600000 0.000000
0.236859 0.600000 0.000000
0.100000 -0.075000 0.000000
0.100000 -0.050000 0.000000
0.100000 -0.025000 0.000000
0.100000 0.000000 0.000000
0.130976 0.077156 0.000000
0.077193 0.125681 0.000000
0.067466 0.174064 0.000000
0.050159 0.095529 0.000000
0.072054 0.200594 0.000000
0.058746 0.138472 0.000000
0.093866 0.276616 0.000000
0.104866 0.255140 0.000000
0.083188 0.246940 0.000000
0.047979 0.321014 0.000000
0.080489 0.383044 0.000000
0.056799 0.379398 0.000000
0.078457 0.435863 0.000000
0.090027 0.467671 0.000000
0.096756 0.491258 0.000000
0.076993 0.507671 0.000000
0.053747 0.516106 0.000000
0.085353 0.539250 0.000000
0.172737 0.529111 0.000000
0.200348 0.532399 0.000000
0.160436 0.552192 0.000000
0.162973 0.577340 0.000000
0.249234 0.577181 0.000000
0.255603 0.600000 0.000000
0.125000 -0.075000 0.000000
0.125000 -0.050000 0.000000
0.125000 -0.025000 0.000000
0.125000 0.000000 0.000000
0.123928 0.097218 0.000000
0.105171 0.071983 0.000000
0.079462 0.158210 0.000000
0.138831 0.231504 0.000000
0.104522 0.227341 0.000000
0.149077 0.209405 0.000000
0.143076 0.273583 0.000000
0.092540 0.328188 0.000000
0.077126 0.300173 0.000000
0.088741 0.362258 0.000000
0.091634 0.412958 0.000000
0.068190 0.410726 0.000000
0.125471 0.438461 0.000000
0.116872 0.467483 0.000000
0.141390 0.456900 0.000000
0.123081 0.489993 0.000000
0.098408 0.518857 0.000000
0.127227 0.511774 0.000000
0.155510 0.505593 0.000000
0.211715 0.555137 0.000000
0.221421 0.577765 0.000000
0.185675 0.554135 0.000000
0.277500 0.576548 0.000000
0.275575 0.600000 0.000000
0.150000 -0.075000 0.000000
0.150000 -0.050000 0.000000
0.150000 -0.025000 0.000000
0.150000 0.000000 0.000000
0.132044 0.025919 0.000000
0.144407 0.109454 0.000000
0.090517 0.090316 0.000000
0.065222 0.063169 0.000000
0.098280 0.178958 0.000000
0.098041 0.200619 0.000000
0.119509 0.212204 0.000000
0.158893 0.244404 0.000000
0.118856 0.282204 0.000000
0.100748 0.304548 0.000000
0.132184 0.345974 0.000000
0.102582 0.445156 0.000000
0.106091 0.393434 0.000000
0.116637 0.416096 0.000000
0.132943 0.385065 0.000000
0.151212 0.434263 0.000000
0.169285 0.463327 0.000000
0.149109 0.482281 0.000000
0.188716 0.509749 0.000000
0.214337 0.503107 0.000000
0.224382 0.526821 0.000000
0.236195 0.551890 0.000000
0.294240 0.600000 0.000000
0.313187 0.600000 0.000000
0.175000 -0.075000 0.000000
0.175000 -0.050000 0.000000
0.175000 -0.025000 0.000000
0.175000 0.000000 0.000000
0.153635 0.024360 0.000000
0.156028 0.083343 0.000000
0.123655 0.128842 0.000000
0.097279 0.112971 0.000000
0.100303 0.135217 0.000000
0.109317 0.158645 0.000000
0.152485 0.187880 0.000000
0.155185 0.157207 0.000000
0.180857 0.202257 0.000000
0.171674 0.221359 0.000000
0.166029 0.271851 0.000000
0.111891 0.344021 0.000000
0.151626 0.366838 0.000000
0.186900 0.400600 0.000000
0.142066 0.409749 0.000000
0.177967 0.441466 0.000000
0.225006 0.451478 0.000000
0.197883 0.457072 0.000000
0.173679 0.488252 0.000000
0.197625 0.481485 0.000000
0.238279 0.500482 0.000000
0.250030 0.530607 0.000000
0.335493 0.575870 0.000000
0.332904 0.600000 0.000000
0.200000 -0.075000 0.000000
0.200000 -0.050000 0.000000
0.200000 -0.025000 0.000000
0.200000 0.000000 0.000000
0.161641 0.045175 0.000000
0.139652 0.056200 0.000000
0.192121 0.118139 0.000000
0.071246 0.085657 0.000000
0.176246 0.143829 0.000000
0.127804 0.185214 0.000000
0.267464 0.129024 0.000000
0.263492 0.106242 0.000000
0.173349 0.174521 0.000000
0.183482 0.249519 0.000000
0.162744 0.303262 0.000000
0.138189 0.296716 0.000000
0.121660 0.317021 0.000000
0.146470 0.322886 0.000000
0.116159 0.371682 0.000000
0.171066 0.417825 0.000000
0.202335 0.432574 0.000000
0.222230 0.477225 0.000000
0.261938 0.509307 0.000000
0.289028 0.509419 0.000000
0.277911 0.534154 0.000000
0.262423 0.554174 0.000000
0.363496 0.578179 0.000000
0.351175 0.600000 0.000000
0.225000 -0.075000 0.000000
0.225000 -0.050000 0.000000
0.225000 -0.025000 0.000000
0.225000 0.000000 0.000000
0.189413 0.021409 0.000000
0.175914 0.070391 0.000000
0.144301 0.131825 0.000000
0.132560 0.162701 0.000000
0.199127 0.079087 0.000000
0.212730 0.105295 0.000000
0.245890 0.155794 0.000000
0.206231 0.137339 0.000000
0.192886 0.160565 0.000000
0.207666 0.181019 0.000000
0.187836 0.274357 0.000000
0.185747 0.351864 0.000000
0.158983 0.344118 0.000000
0.177182 0.372959 0.000000
0.159533 0.392511 0.000000
[...]
<PointData>
<DataArray NumberOfComponents='1' type='Int32' Name='ParticleType' format='ascii'>
3
3
3
3
3
3
3
3
3
3
3
3
3
3
3
3
3
3
3
3
3
3
3
3
3
3
3
3
3
3
3
3
3
3
3
3
3
3
3
3
3
3
3
3
3
3
3
3
3
3
3
3
3
3
3
3
3
3
2
2
2
2
2
2
2
2
2
2
2
2
2
2
2
2
2
2
2
2
2
2
2
2
2
2
3
3
2
2
2
2
2
2
2
2
2
2
2
2
2
2
2
2
2
2
2
2
2
2
2
2
2
2
3
3
2
2
0
0
0
0
0
0
0
0
0
0
0
0
0
0
0
0
0
0
0
0
0
0
0
0
3
3
2
2
0
0
0
0
0
0
0
0
0
0
0
0
0
0
0
0
0
0
0
0
0
0
0
0
3
3
2
2
0
0
0
0
0
0
0
0
0
0
0
0
0
0
0
0
0
0
0
0
0
0
0
0
3
3
2
2
0
0
0
0
0
0
0
0
0
0
0
0
0
0
0
0
0
0
0
0
0
0
0
0
3
3
2
2
0
0
0
0
0
0
0
0
0
0
0
0
0
0
0
0
0
0
0
0
0
0
0
0
3
3
2
2
0
0
0
0
0
0
0
0
0
0
0
0
0
0
0
0
0
0
0
0
0
0
0
0
3
3
2
2
0
0
0
0
0
0
0
0
0
0
0
0
0
0
0
0
0
0
0
0
0
0
0
0
3
3
2
2
0
0
0
0
0
0
0
0
0
0
0
0
0
0
0
0
0
0
0
0
0
0
0
0
3
3
2
2
0
0
0
0
0
0
0
0
0
0
0
0
0
0
0
0
0
0
0
0
0
0
0
0
3
3
2
2
0
0
0
0
0
0
0
0
0
0
0
0
0
0
0
0
0
0
0
0
0
0
0
0
3
3
2
2
0
0
0
0
0
0
0
0
0
0
0
0
0
0
0
0
0
0
0
0
0
0
0
0
3
3
2
2
0
0
0
0
0
0
0
0
0
0
0
0
0
0
0
0
0
0
0
0
0
0
0
0
3
3
2
2
0
0
0
0
0
0
0
0
0
0
0
0
0
0
0
0
0
0
0
0
0
0
0
0
3
3
2
2
0
0
0
0
0
0
0
0
0
0
0
0
0
0
0
0
0
0
0
0
0
0
0
0
3
3
2
2
0
0
0
0
0
0
0
0
0
0
0
0
0
0
0
0
0
0
0
0
0
0
0
0
3
3
2
2
0
0
0
0
0
0
0
0
0
0
0
0
0
0
0
0
0
0
0
0
0
0
0
0
3
3
2
2
0
0
0
0
0
0
0
0
0
0
0
0
0
0
0
0
0
0
0
0
0
0
0
0
3
3
2
2
0
0
0
0
0
0
0
0
0
0
0
0
0
0
0
0
0
0
0
0
0
0
0
0
3
3
2
2
0
0
0
0
0
0
0
0
0
0
0
0
0
0
0
0
0
0
0
0
0
0
0
0
3
3
2
2
0
0
0
0
0
0
0
0
0
0
0
0
0
0
0
0
0
0
0
0
0
0
0
0
3
3
2
2
0
0
0
0
0
0
0
0
0
0
0
0
0
0
0
0
0
0
0
0
0
0
0
0
3
3
2
2
0
0
0
0
0
0
0
0
0
0
0
0
0
0
0
0
0
0
0
0
0
0
0
0
3
3
2
2
0
0
0
0
0
0
0
0
0
0
0
0
0
0
0
0
0
0
0
0
0
0
0
0
3
3
2
2
0
0
0
0
0
0
0
0
0
0
0
0
0
0
0
0
0
0
0
0
0
0
0
0
3
3
2
2
0
0
0
0
0
0
0
0
0
0
0
0
0
0
0
0
0
0
0
0
0
0
0
0
3
3
2
2
0
0
0
0
0
0
0
0
0
0
0
0
0
0
0
0
0
0
0
0
0
0
0
0
3
3
2
2
0
0
0
0
0
0
0
0
0
0
0
0
0
0
0
0
0
0
0
0
0
0
0
0
3
3
2
2
0
0
0
0
0
0
0
0
0
0
0
0
0
0
0
0
0
0
0
0
0
0
0
0
3
3
2
2
0
0
0
0
0
0
0
0
0
0
0
0
0
0
0
0
0
0
0
0
0
0
0
0
3
3
2
2
0
0
0
0
0
0
0
0
0
0
0
0
0
0
0
0
0
0
0
0
0
0
0
0
3
3
2
2
0
0
0
0
0
0
0
0
0
0
0
0
0
0
0
0
0
0
0
0
0
0
0
0
3
3
2
2
0
0
0
0
0
0
0
0
0
0
0
0
0
0
0
0
0
0
0
0
0
0
0
0
3
3
2
2
0
0
0
0
0
0
0
0
0
0
0
0
0
0
0
0
0
0
0
0
0
0
0
0
3
3
2
2
0
0
0
0
0
0
0
0
0
0
0
0
0
0
0
0
0
0
0
0
0
0
0
0
3
3
2
2
0
0
0
0
0
0
0
0
0
0
0
0
0
0
0
0
0
0
0
0
0
0
0
0
3
3
2
2
0
0
0
0
0
0
0
0
0
0
0
0
0
0
0
0
0
0
0
0
0
0
0
0
3
3
2
2
0
0
0
0
0
0
0
0
0
0
0
0
0
0
0
0
0
0
0
0
0
0
0
0
3
3
2
2
0
0
0
0
0
0
0
0
0
0
0
0
0
0
0
0
0
0
0
0
0
0
0
0
3
3
2
2
0
0
0
0
0
0
0
0
0
0
0
0
0
0
0
0
0
0
0
0
0
0
0
0
3
3
2
2
0
0
0
0
0
0
0
0
0
0
0
0
0
0
0
0
0
0
0
0
0
0
0
0
3
3
2
2
2
2
2
2
2
2
2
2
2
2
2
2
2
2
2
2
2
2
2
2
2
2
2
2
3
3
2
2
2
2
2
2
2
2
2
2
2
2
2
2
2
2
2
2
2
2
2
2
2
2
2
2
3
3
3
3
3
3
3
3
3
3
3
3
3
3
3
3
3
3
3
3
3
3
3
3
3
3
3
3
3
3
3
3
3
3
3
3
3
3
3
3
3
3
3
3
3
3
3
3
3
3
3
3
3
3
3
3
</DataArray>
<DataArray NumberOfComponents='1' type='Float32' Name='Velocity' format='ascii'>
0.000000
0.000000
0.000000
0.000000
0.000000
0.000000
0.000000
0.000000
0.000000
0.000000
0.000000
0.000000
0.000000
0.000000
0.000000
0.000000
0.000000
0.000000
0.000000
0.000000
0.000000
0.000000
0.000000
0.000000
0.000000
0.000000
0.000000
0.000000
0.000000
0.000000
0.000000
0.000000
0.000000
0.000000
0.000000
0.000000
0.000000
0.000000
0.000000
0.000000
0.000000
0.000000
0.000000
0.000000
0.000000
0.000000
0.000000
0.000000
0.000000
0.000000
0.000000
0.000000
0.000000
0.000000
0.000000
0.000000
0.000000
0.000000
0.000000
0.000000
0.000000
0.000000
0.000000
0.000000
0.000000
0.000000
0.000000
0.000000
0.000000
0.000000
0.000000
0.000000
0.000000
0.000000
0.000000
0.000000
0.000000
0.000000
0.000000
0.000000
0.000000
0.000000
0.000000
0.000000
0.000000
0.000000
0.000000
0.000000
0.000000
0.000000
0.000000
0.000000
0.000000
0.000000
0.000000
0.000000
0.000000
0.000000
0.000000
0.000000
0.000000
0.000000
0.000000
0.000000
0.000000
0.000000
0.000000
0.000000
0.000000
0.000000
0.000000
0.000000
0.000000
0.000000
0.000000
0.000000
0.079075
0.343340
0.022756
0.162519
0.452522
0.185152
0.100535
0.035820
0.156787
0.197092
0.469165
0.153832
0.189672
0.374097
0.473259
0.149219
0.100000
0.100000
0.100000
0.100000
0.100000
0.100000
0.100000
0.100000
0.000000
0.000000
0.000000
0.000000
0.241878
0.093717
0.170375
0.106123
0.165520
0.167637
0.271065
0.144493
0.067731
0.097799
0.318245
0.320482
0.305537
0.363090
0.120100
0.245383
0.238823
0.333736
0.100000
0.100000
0.100000
0.100000
0.100000
0.100000
0.000000
0.000000
0.000000
0.000000
0.166397
0.127340
0.299349
0.080621
0.226615
0.354160
0.114746
0.088284
0.168575
0.119719
0.302632
0.222438
0.129341
0.400448
0.169628
0.035448
0.177304
0.055730
0.376328
0.363548
0.100000
0.100000
0.100000
0.100000
0.000000
0.000000
0.000000
0.000000
0.202798
0.295331
0.162290
0.104531
0.123188
0.278671
0.222065
0.182468
0.131693
0.093588
0.147057
0.102961
0.442746
0.299090
0.531834
0.197671
0.126615
0.099492
0.127216
0.464667
0.068415
0.100000
0.100000
0.100000
0.000000
0.000000
0.000000
0.000000
0.118082
0.134803
0.146049
0.411538
0.108867
0.331292
0.399154
0.262462
0.081804
0.238427
0.404414
0.199905
0.183294
0.267326
0.158184
0.274448
0.236744
0.295547
0.251798
0.137700
0.100000
0.251895
0.100000
0.100000
0.000000
0.000000
0.000000
0.000000
0.323550
0.190224
0.168877
0.224343
0.133849
0.103971
0.160566
0.142477
0.195943
0.137523
0.107627
0.207408
0.330116
0.221481
0.220568
0.216216
0.279107
0.245237
0.127766
0.053345
0.398221
0.110588
0.100000
0.100000
0.000000
0.000000
0.000000
0.000000
0.120645
0.178425
0.048129
0.226899
0.199429
0.158653
0.119973
0.043536
0.183621
0.136205
0.130588
0.154169
0.138985
0.170943
0.386511
0.102881
0.170600
0.167165
0.101155
0.028458
0.012499
0.195182
0.100000
0.100000
0.000000
0.000000
0.000000
0.000000
0.199104
0.077613
0.127556
0.060291
0.421269
0.240823
0.189249
0.158198
0.163133
0.124964
0.278713
0.043631
0.305289
0.261883
0.455934
0.221776
0.158090
0.053363
0.187742
0.103517
0.124858
0.341396
0.100000
0.100000
0.000000
0.000000
0.000000
0.000000
0.189002
0.353729
0.159314
0.202824
0.136704
0.128524
0.084893
0.333697
0.161871
0.101960
0.161723
0.436034
0.113095
0.298382
0.386643
0.074391
0.065163
0.102213
0.221985
0.214046
0.148306
0.279502
0.100000
0.100000
0.000000
0.000000
0.000000
0.000000
0.091550
0.032362
0.255815
0.258383
0.221814
0.058076
0.174100
0.188807
0.104056
0.030647
0.074498
0.280279
0.349964
0.154762
0.068006
0.097655
0.090555
0.079112
0.056113
0.067249
0.311776
0.239745
0.100000
0.100000
0.000000
0.000000
0.000000
0.000000
0.109707
0.245070
0.185065
0.267261
0.182679
0.118035
0.079714
0.162107
0.039873
0.118712
0.193519
0.266507
0.374939
0.133471
0.200014
0.200911
0.222187
0.140067
0.044845
0.064295
0.139750
0.100000
0.100000
0.100000
0.000000
0.000000
0.000000
0.000000
0.226366
0.128159
0.065151
0.126681
0.105700
0.227719
0.164527
0.162710
0.201318
0.222858
0.229347
0.126317
0.205305
0.297521
0.251125
0.110628
0.034608
0.117254
0.101731
0.258078
0.087791
0.219351
0.055239
0.100000
0.000000
0.000000
0.000000
0.000000
0.185638
0.078905
0.047495
0.132019
0.352855
0.236009
0.057107
0.173992
0.245046
0.071981
0.283152
0.221132
0.193842
0.181569
0.255611
0.356396
0.036659
0.093788
0.092509
0.148888
0.020682
0.073223
0.100000
0.100000
0.000000
0.000000
0.000000
0.000000
0.056801
0.102603
0.136264
0.088108
0.064043
0.141379
0.035979
0.085700
0.133520
0.188148
0.273700
0.252076
0.306146
0.234910
0.147224
0.037433
0.199127
0.149120
0.144971
0.083101
0.181205
0.100000
0.130089
0.100000
0.000000
0.000000
0.000000
0.000000
0.140457
0.117638
0.075415
0.187386
0.255808
0.080887
0.126918
0.127827
0.008984
0.377917
0.183586
0.085961
0.099463
0.089606
0.151207
0.154461
0.256926
0.159546
0.037869
0.157955
0.228803
0.145164
0.100000
0.100000
0.000000
0.000000
0.000000
0.000000
0.114690
0.098523
0.057932
0.376743
0.140392
0.203333
0.356870
0.326905
0.139581
0.144302
0.312588
0.146622
0.035232
0.095004
0.109207
0.150040
0.213543
0.136979
0.374918
0.087063
0.079447
0.220088
0.100000
0.100000
0.000000
0.000000
0.000000
0.000000
0.048545
0.050133
0.236525
0.174155
0.042061
0.293897
0.202510
0.340682
0.190144
0.137024
0.108265
0.289919
0.382129
0.171406
0.128687
0.077265
0.165454
0.065517
0.020682
0.161183
0.186546
0.090937
0.177527
0.100000
0.000000
0.000000
0.000000
0.000000
0.101076
0.036320
0.142972
0.123524
0.030690
0.101319
0.121546
0.124865
0.181516
0.220622
0.087831
0.031620
0.043373
0.037538
0.135593
0.100783
0.305622
0.236635
0.068279
0.116644
0.320503
0.032082
0.409195
0.100000
0.000000
0.000000
0.000000
0.000000
0.085304
0.078456
0.092050
0.175877
0.114422
0.208216
0.276186
0.163737
0.254060
0.183825
0.052331
0.112990
0.226779
0.253784
0.171093
0.150813
0.177112
0.028057
0.148711
0.132790
0.296195
0.227054
0.109999
0.100000
0.000000
0.000000
0.000000
0.000000
0.039890
0.075613
0.072190
0.094507
0.172465
0.237044
0.236963
0.079285
0.200854
0.367119
0.229908
0.112040
0.027681
0.219016
0.213841
0.151787
0.206221
0.051375
0.231747
0.272308
0.366779
0.151301
0.100000
0.100000
0.000000
0.000000
0.000000
0.000000
0.082325
0.032497
0.175792
0.086543
0.273438
0.236082
0.227925
0.184570
0.066931
0.168909
0.046727
0.098519
0.186327
0.116792
0.051646
0.020960
0.178045
0.096181
0.177654
0.235077
0.217860
0.397554
0.422349
0.100000
0.000000
0.000000
0.000000
0.000000
0.021393
0.075313
0.048963
0.050387
0.280462
0.138109
0.106734
0.062872
0.024066
0.160283
0.168058
0.133979
0.213487
0.119910
0.211054
0.130534
0.209191
0.114785
0.231776
0.233860
0.199540
0.156494
0.384675
0.100000
0.000000
0.000000
0.000000
0.000000
0.061587
0.074539
0.145069
0.042535
0.213125
0.201211
0.173587
0.012559
0.224114
0.156099
0.053406
0.111308
0.108247
0.128570
0.080505
0.034583
0.118475
0.122976
0.102424
0.242652
0.283719
0.273357
0.104060
0.100000
0.000000
0.000000
0.000000
0.000000
0.064939
0.230993
0.087779
0.229828
0.215297
0.135049
0.281625
0.087312
0.149420
0.116501
0.180176
0.070723
0.067681
0.059755
0.146994
0.080593
0.128377
0.069048
0.134140
0.118686
0.249852
0.282828
0.202264
0.100000
0.000000
0.000000
0.000000
0.000000
0.058930
0.110968
0.216677
0.033143
0.211481
0.247247
0.179721
0.137604
0.273918
0.170022
0.210996
0.146441
0.279020
0.148446
0.017819
0.147417
0.053644
0.226093
0.203088
0.194302
0.136296
0.237142
0.366262
0.100000
0.000000
0.000000
0.000000
0.000000
0.103002
0.205743
0.166477
0.079416
0.190841
0.178311
0.016922
0.084901
0.159340
0.154093
0.122607
0.116122
0.163133
0.207991
0.057329
0.296807
0.308763
0.169911
0.264639
0.249705
0.180602
0.111981
0.100000
0.100000
0.000000
0.000000
0.000000
0.000000
0.124550
0.094521
0.175807
0.111535
0.038267
0.221686
0.058561
0.148610
0.025687
0.272492
0.110257
0.201422
0.056487
0.086260
0.079828
0.083208
0.078566
0.163924
0.138848
0.246915
0.525973
0.202261
0.521637
0.100000
0.000000
0.000000
0.000000
0.000000
0.099743
0.011835
0.274105
0.090175
0.169224
0.120792
0.310882
0.048730
0.195234
0.173343
0.058423
0.246699
0.062506
0.157766
0.099651
0.204130
0.269209
0.191414
0.068991
0.319184
0.208398
0.253600
0.221718
0.100000
0.000000
0.000000
0.000000
0.000000
0.103843
0.203769
0.115511
0.095033
0.161366
0.120178
0.063095
0.070459
0.127020
0.041110
0.217493
0.189759
0.009434
0.037610
0.108947
0.183096
0.015558
0.095230
0.064419
0.308915
0.290421
0.390275
0.100000
0.100000
0.000000
0.000000
0.000000
0.000000
0.160155
0.213330
0.026843
0.234642
0.031068
0.042282
0.109038
0.044105
0.155754
0.153968
0.146548
0.026899
0.098491
0.166406
0.128426
0.090510
0.155480
0.280417
0.105461
0.135177
0.275252
0.350730
0.369239
0.100000
0.000000
0.000000
0.000000
0.000000
0.096970
0.207115
0.100361
0.024452
0.199410
0.125233
0.183675
0.126157
0.212789
0.117650
0.202905
0.117298
0.089947
0.165061
0.063280
0.158514
0.142165
0.162798
0.233251
0.317160
0.107251
0.311811
0.317235
0.100000
0.000000
0.000000
0.000000
0.000000
0.043198
0.168462
0.184939
0.041795
0.130317
0.102153
0.231907
0.215024
0.139296
0.168480
0.225373
0.211044
0.359170
0.154699
0.110694
0.041423
0.175772
0.127164
0.135891
0.218527
0.073068
0.523093
0.388947
0.100000
0.000000
0.000000
0.000000
0.000000
0.094811
0.051709
0.117670
0.066922
0.108495
0.044049
0.002834
0.223306
0.059593
0.078911
0.193516
0.106475
0.361761
0.125797
0.050579
0.041746
0.175257
0.103663
0.039343
0.194130
0.113150
0.310716
0.538323
0.100000
0.000000
0.000000
0.000000
0.000000
0.045176
0.144540
0.120978
0.182656
0.200266
0.134147
0.146414
0.274687
0.166435
0.187313
0.081299
0.058772
0.124834
0.319495
0.059768
0.157005
0.170959
0.180823
0.088890
0.224789
0.340550
0.726702
0.730033
0.100000
0.000000
0.000000
0.000000
0.000000
0.072001
0.104829
0.189673
0.249134
0.182287
0.198636
0.172623
0.285533
0.188889
0.122964
0.159548
0.119206
0.019949
0.202631
0.178221
0.068801
0.101836
0.293625
0.262603
0.117367
0.349616
0.214250
0.308774
0.100000
0.000000
0.000000
0.000000
0.000000
0.075166
0.185584
0.207333
0.045887
0.132361
0.084166
0.216025
0.028337
0.230235
0.142098
0.136008
0.138106
0.125686
0.147150
0.094938
0.135770
0.122442
0.133634
0.164500
0.270892
0.216710
0.780101
0.290243
0.100000
0.000000
0.000000
0.000000
0.000000
0.260116
0.242675
0.098277
0.208153
0.213910
0.107103
0.180367
0.098550
0.172751
0.068853
0.333062
0.131867
0.186025
0.171786
0.298804
0.073486
0.093759
0.245340
0.121392
0.228725
0.228379
0.338375
0.434223
0.100000
0.000000
0.000000
0.000000
0.000000
0.248275
0.132182
0.063280
0.093407
0.141546
0.106656
0.065999
0.198216
0.037696
0.199350
0.035235
0.205111
0.288073
0.240999
0.116391
0.120742
0.110990
0.305180
0.244513
0.337412
0.347218
0.172969
0.371088
0.100000
0.000000
0.000000
0.000000
0.000000
0.114356
0.163648
0.220890
0.178729
0.232503
0.326894
0.075335
0.095643
0.251702
0.032542
0.022950
0.161093
0.265276
0.149897
0.153377
0.081856
0.245526
0.194374
0.325345
0.221006
0.279592
0.091246
0.450352
0.100000
0.000000
0.000000
0.000000
0.000000
0.102810
0.101499
0.069157
0.065094
0.069546
0.033670
0.113770
0.100464
0.046495
0.142110
0.094415
0.061772
0.287773
0.124379
0.152313
0.352180
0.071923
0.104568
0.282022
0.101301
0.517312
0.148997
0.309203
0.100000
0.000000
0.000000
0.000000
0.000000
0.000000
0.000000
0.000000
0.000000
0.000000
0.000000
0.000000
0.000000
0.000000
0.000000
0.000000
0.000000
0.000000
0.000000
0.000000
0.000000
0.000000
0.000000
0.000000
0.000000
0.000000
0.000000
0.000000
0.000000
0.000000
0.000000
0.000000
0.000000
0.000000
0.000000
0.000000
0.000000
0.000000
0.000000
0.000000
0.000000
0.000000
0.000000
0.000000
0.000000
0.000000
0.000000
0.000000
0.000000
0.000000
0.000000
0.000000
0.000000
0.000000
0.000000
0.000000
0.000000
0.000000
0.000000
0.000000
0.000000
0.000000
0.000000
0.000000
0.000000
0.000000
0.000000
0.000000
0.000000
0.000000
0.000000
0.000000
0.000000
0.000000
0.000000
0.000000
0.000000
0.000000
0.000000
0.000000
0.000000
0.000000
0.000000
0.000000
0.000000
0.000000
0.000000
0.000000
0.000000
0.000000
0.000000
0.000000
0.000000
0.000000
0.000000
0.000000
0.000000
0.000000
0.000000
0.000000
0.000000
0.000000
0.000000
0.000000
0.000000
0.000000
0.000000
0.000000
0.000000
0.000000
0.000000
0.000000
0.000000
</DataArray>
<DataArray NumberOfComponents='1' type='Float32' Name='pressure' format='ascii'>
0.000000
0.000000
0.000000
0.000000
0.000000
0.000000
0.000000
0.000000
0.000000
0.000000
0.000000
0.000000
0.000000
0.000000
0.000000
0.000000
0.000000
0.000000
0.000000
0.000000
0.000000
0.000000
0.000000
0.000000
0.000000
0.000000
0.000000
0.000000
0.000000
0.000000
0.000000
0.000000
0.000000
0.000000
0.000000
0.000000
0.000000
0.000000
0.000000
0.000000
0.000000
0.000000
0.000000
0.000000
0.000000
0.000000
0.000000
0.000000
0.000000
0.000000
0.000000
0.000000
0.000000
0.000000
0.000000
0.000000
0.000000
0.000000
34654.691406
34827.179688
35761.929688
34635.218750
34396.183594
33949.386719
33687.066406
33102.375000
32389.601562
31830.648438
33122.144531
33422.597656
32440.929688
33207.664062
33402.121094
33020.511719
33253.039062
33025.359375
33116.984375
33966.750000
34045.750000
33840.453125
32467.722656
29770.796875
22603.878906
0.000000
0.000000
0.000000
34416.042969
34986.984375
35630.828125
33256.179688
33339.492188
32903.273438
33305.394531
33238.027344
32102.355469
31679.103516
33373.320312
33963.226562
32981.160156
32809.550781
33853.417969
33771.308594
33537.777344
34095.152344
33484.117188
33890.675781
33388.710938
33579.804688
32667.123047
32130.740234
29846.929688
0.000000
0.000000
0.000000
33472.496094
33580.597656
34743.015625
34023.105469
34057.226562
34468.789062
32529.509766
31804.259766
33363.593750
32610.189453
33238.652344
32604.478516
33736.187500
33375.261719
33276.031250
32495.654297
31203.457031
33056.425781
36440.062500
29704.808594
25932.023438
24209.812500
28347.027344
26665.509766
14652.969727
17428.996094
0.000000
0.000000
34381.136719
33927.128906
34504.929688
32860.414062
34478.832031
33562.195312
32583.740234
34265.320312
32754.246094
33850.039062
32683.535156
33293.242188
31478.777344
32170.990234
32225.513672
31758.822266
32083.562500
33426.058594
30329.474609
25174.474609
36847.632812
0.000000
0.000000
0.000000
27202.646484
16820.400391
0.000000
0.000000
35158.023438
35066.414062
34407.500000
34653.261719
33308.203125
33327.203125
33321.652344
32288.837891
32514.400391
33446.457031
32749.873047
33176.445312
33206.992188
32724.134766
32077.548828
30936.292969
32143.636719
28591.900391
25133.943359
21651.343750
30513.375000
22890.507812
23196.632812
0.000000
13494.323242
0.000000
0.000000
0.000000
34296.152344
33927.664062
34406.156250
32712.191406
33346.394531
33496.675781
32988.164062
33301.359375
32591.083984
33407.921875
32907.929688
32578.011719
31522.474609
31752.847656
30672.019531
29015.992188
27958.603516
27759.802734
31473.673828
25969.296875
23864.880859
23814.255859
22805.998047
25933.984375
22818.062500
0.000000
0.000000
0.000000
33727.667969
33957.542969
33041.625000
33240.746094
31980.380859
33068.066406
31844.150391
33111.589844
32539.599609
31483.886719
32424.207031
31519.527344
31133.607422
32407.435547
29670.048828
27550.164062
28046.578125
27195.234375
26894.652344
25085.138672
25736.150391
22471.984375
24521.349609
23732.548828
26125.839844
17684.371094
0.000000
0.000000
34385.718750
34190.839844
33469.140625
33419.945312
34356.488281
33972.820312
33422.640625
32723.009766
32861.941406
31884.267578
31474.052734
32561.457031
30821.562500
28307.000000
30210.453125
30524.816406
30801.031250
28612.324219
26779.744141
25995.837891
24321.666016
24981.677734
22606.513672
20526.339844
21011.832031
16797.771484
0.000000
0.000000
34857.929688
33463.144531
34836.222656
32975.796875
32951.480469
32782.273438
34343.156250
33001.875000
32914.941406
32636.121094
32213.355469
32267.583984
32234.880859
32155.210938
30316.681641
29369.119141
29797.597656
28043.857422
26409.230469
26173.619141
27390.597656
26357.037109
24301.015625
22637.970703
20175.435547
0.000000
0.000000
0.000000
35253.640625
35069.062500
33941.320312
32787.539062
33549.398438
33753.136719
32384.574219
32093.667969
32074.181641
33776.230469
32887.609375
32018.488281
30851.724609
32000.966797
32078.187500
31579.968750
31066.705078
28342.371094
26983.410156
25683.611328
24649.013672
23217.511719
21821.013672
21384.976562
19217.466797
0.000000
0.000000
0.000000
33983.734375
34381.996094
33522.289062
34212.265625
33663.710938
33112.789062
33981.488281
33029.007812
32902.621094
32646.978516
33692.878906
32714.501953
31581.171875
29416.068359
30811.287109
29788.093750
29074.972656
27169.605469
27386.812500
24989.914062
25086.546875
24081.408203
22849.388672
21975.007812
19677.050781
10070.331055
0.000000
0.000000
33565.105469
33326.371094
34072.320312
33904.542969
33000.539062
33820.910156
33845.671875
33329.339844
32709.494141
33499.500000
32987.363281
32070.167969
32350.140625
31293.423828
29514.103516
28743.226562
28038.544922
28351.845703
26238.105469
25481.404297
23309.193359
24480.013672
21587.468750
21605.337891
14558.975586
12327.203125
0.000000
0.000000
34728.277344
34975.035156
34233.757812
33586.128906
33374.500000
33899.820312
32892.269531
33021.136719
32697.617188
31988.642578
31393.232422
32772.929688
30983.060547