<?xml version='1.0' encoding='UTF-8'?>
<VTKFile xmlns='VTK' byte_order='LittleEndian' version='0.1' type='UnstructuredGrid'>
<UnstructuredGrid>
<Piece NumberOfCells='1344' NumberOfPoints='1344'>
<Points>
<DataArray NumberOfComponents='3' type='Float32' Name='Position' format='ascii'>
-0.075000 -0.075000 0.000000
-0.075000 -0.050000 0.000000
-0.075000 -0.025000 0.000000
-0.075000 0.000000 0.000000
-0.075000 0.025000 0.000000
-0.075000 0.050000 0.000000
-0.075000 0.075000 0.000000
-0.075000 0.100000 0.000000
-0.075000 0.125000 0.000000
-0.075000 0.150000 0.000000
-0.075000 0.175000 0.000000
-0.075000 0.200000 0.000000
-0.075000 0.225000 0.000000
-0.075000 0.250000 0.000000
-0.075000 0.275000 0.000000
-0.075000 0.300000 0.000000
-0.075000 0.325000 0.000000
-0.075000 0.350000 0.000000
-0.075000 0.375000 0.000000
-0.075000 0.400000 0.000000
-0.075000 0.425000 0.000000
-0.075000 0.450000 0.000000
-0.075000 0.475000 0.000000
-0.075000 0.500000 0.000000
-0.075000 0.525000 0.000000
-0.075000 0.550000 0.000000
-0.075000 0.575000 0.000000
-0.075000 0.600000 0.000000
-0.050000 -0.075000 0.000000
-0.050000 -0.050000 0.000000
-0.050000 -0.025000 0.000000
-0.050000 0.000000 0.000000
-0.050000 0.025000 0.000000
-0.050000 0.050000 0.000000
-0.050000 0.075000 0.000000
-0.050000 0.100000 0.000000
-0.050000 0.125000 0.000000
-0.050000 0.150000 0.000000
-0.050000 0.175000 0.000000
-0.050000 0.200000 0.000000
-0.050000 0.225000 0.000000
-0.050000 0.250000 0.000000
-0.050000 0.275000 0.000000
-0.050000 0.300000 0.000000
-0.050000 0.325000 0.000000
-0.050000 0.350000 0.000000
-0.050000 0.375000 0.000000
-0.050000 0.400000 0.000000
-0.050000 0.425000 0.000000
-0.050000 0.450000 0.000000
-0.050000 0.475000 0.000000
-0.050000 0.500000 0.000000
-0.050000 0.525000 0.000000
-0.050000 0.550000 0.000000
-0.050000 0.575000 0.000000
-0.050000 0.600000 0.000000
-0.025000 -0.075000 0.000000
-0.025000 -0.050000 0.000000
-0.025000 -0.025000 0.000000
-0.025000 0.000000 0.000000
-0.025000 0.025000 0.000000
-0.025000 0.050000 0.000000
-0.025000 0.075000 0.000000
-0.025000 0.100000 0.000000
-0.025000 0.125000 0.000000
-0.025000 0.150000 0.000000
-0.025000 0.175000 0.000000
-0.025000 0.200000 0.000000
-0.025000 0.225000 0.000000
-0.025000 0.250000 0.000000
-0.025000 0.275000 0.000000
-0.025000 0.300000 0.000000
-0.025000 0.325000 0.000000
-0.025000 0.350000 0.000000
-0.025000 0.375000 0.000000
-0.025000 0.400000 0.000000
-0.025000 0.425000 0.000000
-0.025000 0.450000 0.000000
-0.025000 0.475000 0.000000
-0.025000 0.500000 0.000000
-0.025000 0.525000 0.000000
-0.025000 0.550000 0.000000
-0.025000 0.575000 0.000000
-0.025000 0.600000 0.000000
0.000000 -0.075000 0.000000
0.000000 -0.050000 0.000000
0.000000 -0.025000 0.000000
0.000000 0.000000 0.000000
0.000000 0.025000 0.000000
0.000000 0.050000 0.000000
0.000000 0.075000 0.000000
0.000000 0.100000 0.000000
0.000000 0.125000 0.000000
0.000000 0.150000 0.000000
0.000000 0.175000 0.000000
0.000000 0.200000 0.000000
0.000000 0.225000 0.000000
0.000000 0.250000 0.000000
0.000000 0.275000 0.000000
0.000000 0.300000 0.000000
0.000000 0.325000 0.000000
0.000000 0.350000 0.000000
0.000000 0.375000 0.000000
0.000000 0.400000 0.000000
0.000000 0.425000 0.000000
0.000000 0.450000 0.000000
0.000000 0.475000 0.000000
0.000000 0.500000 0.000000
0.000000 0.525000 0.000000
0.000000 0.550000 0.000000
0.000000 0.575000 0.000000
0.000000 0.600000 0.000000
0.025000 -0.075000 0.000000
0.025000 -0.050000 0.000000
0.025000 -0.025000 0.000000
0.025000 0.000000 0.000000
0.060339 0.025887 0.000000
0.121726 0.024193 0.000000
0.024670 0.023760 0.000000
0.026000 0.113466 0.000000
0.045338 0.123919 0.000000
0.070230 0.270182 0.000000
0.026090 0.193311 0.000000
0.052256 0.215369 0.000000
0.032207 0.240917 0.000000
0.022636 0.259397 0.000000
0.022316 0.364899 0.000000
0.023264 0.411849 0.000000
0.025300 0.497685 0.000000
0.022683 0.523647 0.000000
0.037210 0.541031 0.000000
0.049602 0.566651 0.000000
0.069695 0.582445 0.000000
0.098743 0.590943 0.000000
0.125466 0.577807 0.000000
0.057968 0.600000 0.000000
0.038944 0.600000 0.000000
0.014161 0.600000 0.000000
0.169471 0.600000 0.000000
0.189258 0.600000 0.000000
0.050000 -0.075000 0.000000
0.050000 -0.050000 0.000000
0.050000 -0.025000 0.000000
0.050000 0.000000 0.000000
0.145660 0.025921 0.000000
0.099777 0.039227 0.000000
0.024671 0.056181 0.000000
0.021378 0.086797 0.000000
0.022574 0.141550 0.000000
0.026139 0.169861 0.000000
0.053667 0.254830 0.000000
0.044764 0.281415 0.000000
0.024640 0.289892 0.000000
0.047430 0.353304 0.000000
0.027389 0.338187 0.000000
0.030148 0.388177 0.000000
0.023596 0.438913 0.000000
0.022793 0.468597 0.000000
0.044222 0.479023 0.000000
0.021497 0.559555 0.000000
0.060272 0.541326 0.000000
0.116372 0.538984 0.000000
0.028896 0.582608 0.000000
0.112858 0.600000 0.000000
0.130477 0.600000 0.000000
0.081562 0.600000 0.000000
0.210255 0.576223 0.000000
0.208841 0.600000 0.000000
0.075000 -0.075000 0.000000
0.075000 -0.050000 0.000000
0.075000 -0.025000 0.000000
0.075000 0.000000 0.000000
0.128795 0.048998 0.000000
0.085551 0.021680 0.000000
0.041959 0.037554 0.000000
0.048636 0.089400 0.000000
0.062827 0.231907 0.000000
0.044010 0.152435 0.000000
0.137912 0.272147 0.000000
0.023837 0.216989 0.000000
0.049677 0.309288 0.000000
0.024722 0.315505 0.000000
0.077585 0.367578 0.000000
0.078382 0.318645 0.000000
0.050367 0.404079 0.000000
0.048648 0.427477 0.000000
0.073543 0.447062 0.000000
0.045065 0.451918 0.000000
0.145140 0.533115 0.000000
0.136249 0.555805 0.000000
0.078494 0.560520 0.000000
0.104224 0.563685 0.000000
0.154750 0.576765 0.000000
0.150396 0.600000 0.000000
0.227823 0.600000 0.000000
0.248278 0.600000 0.000000
0.100000 -0.075000 0.000000
0.100000 -0.050000 0.000000
0.100000 -0.025000 0.000000
0.100000 0.000000 0.000000
0.115738 0.099691 0.000000
0.085003 0.102810 0.000000
0.070810 0.142512 0.000000
0.044023 0.068241 0.000000
0.050153 0.188286 0.000000
0.061219 0.108100 0.000000
0.091544 0.262477 0.000000
0.111798 0.239595 0.000000
0.087651 0.234079 0.000000
0.058515 0.330719 0.000000
0.074756 0.392511 0.000000
0.052844 0.375064 0.000000
0.095210 0.430009 0.000000
0.067490 0.470005 0.000000
0.066733 0.496734 0.000000
0.073834 0.520988 0.000000
0.047190 0.510481 0.000000
0.092096 0.539022 0.000000
0.170616 0.529425 0.000000
0.208555 0.538842 0.000000
0.165130 0.554288 0.000000
0.182925 0.577951 0.000000
0.269909 0.576085 0.000000
0.267771 0.600000 0.000000
0.125000 -0.075000 0.000000
0.125000 -0.050000 0.000000
0.125000 -0.025000 0.000000
0.125000 0.000000 0.000000
0.112059 0.121678 0.000000
0.104540 0.061601 0.000000
0.090196 0.155651 0.000000
0.137977 0.246421 0.000000
0.073189 0.197412 0.000000
0.124569 0.220448 0.000000
0.125531 0.295447 0.000000
0.082062 0.346485 0.000000
0.070513 0.293431 0.000000
0.103322 0.379744 0.000000
0.097477 0.401944 0.000000
0.073710 0.420543 0.000000
0.119178 0.444013 0.000000
0.089459 0.484207 0.000000
0.119798 0.469298 0.000000
0.110971 0.495410 0.000000
0.095434 0.513345 0.000000
0.125217 0.515775 0.000000
0.151465 0.508069 0.000000
0.225280 0.556470 0.000000
0.240427 0.579702 0.000000
0.189965 0.552901 0.000000
0.298533 0.578161 0.000000
0.286915 0.600000 0.000000
0.150000 -0.075000 0.000000
0.150000 -0.050000 0.000000
0.150000 -0.025000 0.000000
0.150000 0.000000 0.000000
0.146412 0.060173 0.000000
0.163833 0.133823 0.000000
0.094353 0.084350 0.000000
0.071046 0.051111 0.000000
0.061772 0.168366 0.000000
0.090240 0.186566 0.000000
0.096616 0.213840 0.000000
0.160911 0.279046 0.000000
0.113031 0.267664 0.000000
0.100951 0.289669 0.000000
0.136405 0.346230 0.000000
0.095832 0.458877 0.000000
0.132214 0.394314 0.000000
0.117302 0.418558 0.000000
0.158234 0.386837 0.000000
0.139762 0.454507 0.000000
0.157934 0.474483 0.000000
0.137219 0.487720 0.000000
0.191926 0.518925 0.000000
0.219233 0.515845 0.000000
0.239643 0.535750 0.000000
0.253878 0.555964 0.000000
0.306419 0.600000 0.000000
0.325863 0.600000 0.000000
0.175000 -0.075000 0.000000
0.175000 -0.050000 0.000000
0.175000 -0.025000 0.000000
0.175000 0.000000 0.000000
0.167585 0.025678 0.000000
0.143690 0.111597 0.000000
0.139242 0.129072 0.000000
0.085943 0.127647 0.000000
0.114619 0.147540 0.000000
0.109408 0.169759 0.000000
0.138464 0.186825 0.000000
0.173605 0.178301 0.000000
0.150325 0.223275 0.000000
0.160305 0.250519 0.000000
0.150784 0.302296 0.000000
0.106615 0.355512 0.000000
0.152178 0.362334 0.000000
0.187377 0.426609 0.000000
0.141697 0.415459 0.000000
0.171271 0.451879 0.000000
0.214570 0.472981 0.000000
0.182772 0.474195 0.000000
0.173898 0.499503 0.000000
0.200256 0.493714 0.000000
0.251982 0.516376 0.000000
0.271114 0.537047 0.000000
0.355630 0.576918 0.000000
0.344728 0.600000 0.000000
0.200000 -0.075000 0.000000
0.200000 -0.050000 0.000000
0.200000 -0.025000 0.000000
0.200000 0.000000 0.000000
0.150522 0.088422 0.000000
0.125959 0.077190 0.000000
0.209338 0.132413 0.000000
0.072110 0.069336 0.000000
0.182770 0.147734 0.000000
0.116920 0.197463 0.000000
0.256846 0.121868 0.000000
0.269028 0.102431 0.000000
0.156797 0.200010 0.000000
0.176332 0.233636 0.000000
0.158305 0.329223 0.000000
0.135314 0.319198 0.000000
0.099516 0.313052 0.000000
0.112079 0.332369 0.000000
0.128163 0.371860 0.000000
0.157066 0.433646 0.000000
0.198212 0.452479 0.000000
0.229113 0.495489 0.000000
0.278535 0.512368 0.000000
0.309101 0.509027 0.000000
0.298552 0.530796 0.000000
0.287841 0.554020 0.000000
0.384832 0.575405 0.000000
0.363497 0.600000 0.000000
0.225000 -0.075000 0.000000
0.225000 -0.050000 0.000000
0.225000 -0.025000 0.000000
0.225000 0.000000 0.000000
0.183878 0.043499 0.000000
0.189520 0.077990 0.000000
0.157715 0.161799 0.000000
0.136518 0.162036 0.000000
0.222578 0.082216 0.000000
0.195532 0.102732 0.000000
0.249232 0.143141 0.000000
0.203113 0.159301 0.000000
0.194994 0.182799 0.000000
0.223616 0.170157 0.000000
0.184196 0.268176 0.000000
0.180234 0.365486 0.000000
0.178697 0.343915 0.000000
0.183668 0.390361 0.000000
0.168487 0.411086 0.000000
[...]
<PointData>
<DataArray NumberOfComponents='1' type='Int32' Name='ParticleType' format='ascii'>
3
3
3
3
3
3
3
3
3
3
3
3
3
3
3
3
3
3
3
3
3
3
3
3
3
3
3
3
3
3
3
3
3
3
3
3
3
3
3
3
3
3
3
3
3
3
3
3
3
3
3
3
3
3
3
3
3
3
2
2
2
2
2
2
2
2
2
2
2
2
2
2
2
2
2
2
2
2
2
2
2
2
2
2
3
3
2
2
2
2
2
2
2
2
2
2
2
2
2
2
2
2
2
2
2
2
2
2
2
2
2
2
3
3
2
2
0
0
0
0
0
0
0
0
0
0
0
0
0
0
0
0
0
0
0
0
0
0
0
0
3
3
2
2
0
0
0
0
0
0
0
0
0
0
0
0
0
0
0
0
0
0
0
0
0
0
0
0
3
3
2
2
0
0
0
0
0
0
0
0
0
0
0
0
0
0
0
0
0
0
0
0
0
0
0
0
3
3
2
2
0
0
0
0
0
0
0
0
0
0
0
0
0
0
0
0
0
0
0
0
0
0
0
0
3
3
2
2
0
0
0
0
0
0
0
0
0
0
0
0
0
0
0
0
0
0
0
0
0
0
0
0
3
3
2
2
0
0
0
0
0
0
0
0
0
0
0
0
0
0
0
0
0
0
0
0
0
0
0
0
3
3
2
2
0
0
0
0
0
0
0
0
0
0
0
0
0
0
0
0
0
0
0
0
0
0
0
0
3
3
2
2
0
0
0
0
0
0
0
0
0
0
0
0
0
0
0
0
0
0
0
0
0
0
0
0
3
3
2
2
0
0
0
0
0
0
0
0
0
0
0
0
0
0
0
0
0
0
0
0
0
0
0
0
3
3
2
2
0
0
0
0
0
0
0
0
0
0
0
0
0
0
0
0
0
0
0
0
0
0
0
0
3
3
2
2
0
0
0
0
0
0
0
0
0
0
0
0
0
0
0
0
0
0
0
0
0
0
0
0
3
3
2
2
0
0
0
0
0
0
0
0
0
0
0
0
0
0
0
0
0
0
0
0
0
0
0
0
3
3
2
2
0
0
0
0
0
0
0
0
0
0
0
0
0
0
0
0
0
0
0
0
0
0
0
0
3
3
2
2
0
0
0
0
0
0
0
0
0
0
0
0
0
0
0
0
0
0
0
0
0
0
0
0
3
3
2
2
0
0
0
0
0
0
0
0
0
0
0
0
0
0
0
0
0
0
0
0
0
0
0
0
3
3
2
2
0
0
0
0
0
0
0
0
0
0
0
0
0
0
0
0
0
0
0
0
0
0
0
0
3
3
2
2
0
0
0
0
0
0
0
0
0
0
0
0
0
0
0
0
0
0
0
0
0
0
0
0
3
3
2
2
0
0
0
0
0
0
0
0
0
0
0
0
0
0
0
0
0
0
0
0
0
0
0
0
3
3
2
2
0
0
0
0
0
0
0
0
0
0
0
0
0
0
0
0
0
0
0
0
0
0
0
0
3
3
2
2
0
0
0
0
0
0
0
0
0
0
0
0
0
0
0
0
0
0
0
0
0
0
0
0
3
3
2
2
0
0
0
0
0
0
0
0
0
0
0
0
0
0
0
0
0
0
0
0
0
0
0
0
3
3
2
2
0
0
0
0
0
0
0
0
0
0
0
0
0
0
0
0
0
0
0
0
0
0
0
0
3
3
2
2
0
0
0
0
0
0
0
0
0
0
0
0
0
0
0
0
0
0
0
0
0
0
0
0
3
3
2
2
0
0
0
0
0
0
0
0
0
0
0
0
0
0
0
0
0
0
0
0
0
0
0
0
3
3
2
2
0
0
0
0
0
0
0
0
0
0
0
0
0
0
0
0
0
0
0
0
0
0
0
0
3
3
2
2
0
0
0
0
0
0
0
0
0
0
0
0
0
0
0
0
0
0
0
0
0
0
0
0
3
3
2
2
0
0
0
0
0
0
0
0
0
0
0
0
0
0
0
0
0
0
0
0
0
0
0
0
3
3
2
2
0
0
0
0
0
0
0
0
0
0
0
0
0
0
0
0
0
0
0
0
0
0
0
0
3
3
2
2
0
0
0
0
0
0
0
0
0
0
0
0
0
0
0
0
0
0
0
0
0
0
0
0
3
3
2
2
0
0
0
0
0
0
0
0
0
0
0
0
0
0
0
0
0
0
0
0
0
0
0
0
3
3
2
2
0
0
0
0
0
0
0
0
0
0
0
0
0
0
0
0
0
0
0
0
0
0
0
0
3
3
2
2
0
0
0
0
0
0
0
0
0
0
0
0
0
0
0
0
0
0
0
0
0
0
0
0
3
3
2
2
0
0
0
0
0
0
0
0
0
0
0
0
0
0
0
0
0
0
0
0
0
0
0
0
3
3
2
2
0
0
0
0
0
0
0
0
0
0
0
0
0
0
0
0
0
0
0
0
0
0
0
0
3
3
2
2
0
0
0
0
0
0
0
0
0
0
0
0
0
0
0
0
0
0
0
0
0
0
0
0
3
3
2
2
0
0
0
0
0
0
0
0
0
0
0
0
0
0
0
0
0
0
0
0
0
0
0
0
3
3
2
2
0
0
0
0
0
0
0
0
0
0
0
0
0
0
0
0
0
0
0
0
0
0
0
0
3
3
2
2
0
0
0
0
0
0
0
0
0
0
0
0
0
0
0
0
0
0
0
0
0
0
0
0
3
3
2
2
0
0
0
0
0
0
0
0
0
0
0
0
0
0
0
0
0
0
0
0
0
0
0
0
3
3
2
2
0
0
0
0
0
0
0
0
0
0
0
0
0
0
0
0
0
0
0
0
0
0
0
0
3
3
2
2
2
2
2
2
2
2
2
2
2
2
2
2
2
2
2
2
2
2
2
2
2
2
2
2
3
3
2
2
2
2
2
2
2
2
2
2
2
2
2
2
2
2
2
2
2
2
2
2
2
2
2
2
3
3
3
3
3
3
3
3
3
3
3
3
3
3
3
3
3
3
3
3
3
3
3
3
3
3
3
3
3
3
3
3
3
3
3
3
3
3
3
3
3
3
3
3
3
3
3
3
3
3
3
3
3
3
3
3
</DataArray>
<DataArray NumberOfComponents='1' type='Float32' Name='Velocity' format='ascii'>
0.000000
0.000000
0.000000
0.000000
0.000000
0.000000
0.000000
0.000000
0.000000
0.000000
0.000000
0.000000
0.000000
0.000000
0.000000
0.000000
0.000000
0.000000
0.000000
0.000000
0.000000
0.000000
0.000000
0.000000
0.000000
0.000000
0.000000
0.000000
0.000000
0.000000
0.000000
0.000000
0.000000
0.000000
0.000000
0.000000
0.000000
0.000000
0.000000
0.000000
0.000000
0.000000
0.000000
0.000000
0.000000
0.000000
0.000000
0.000000
0.000000
0.000000
0.000000
0.000000
0.000000
0.000000
0.000000
0.000000
0.000000
0.000000
0.000000
0.000000
0.000000
0.000000
0.000000
0.000000
0.000000
0.000000
0.000000
0.000000
0.000000
0.000000
0.000000
0.000000
0.000000
0.000000
0.000000
0.000000
0.000000
0.000000
0.000000
0.000000
0.000000
0.000000
0.000000
0.000000
0.000000
0.000000
0.000000
0.000000
0.000000
0.000000
0.000000
0.000000
0.000000
0.000000
0.000000
0.000000
0.000000
0.000000
0.000000
0.000000
0.000000
0.000000
0.000000
0.000000
0.000000
0.000000
0.000000
0.000000
0.000000
0.000000
0.000000
0.000000
0.000000
0.000000
0.000000
0.000000
0.120949
0.328460
0.047670
0.273002
0.125494
0.055700
0.169448
0.191851
0.207019
0.217358
0.192829
0.110952
0.134319
0.147937
0.141647
0.032452
0.100000
0.100000
0.100000
0.100000
0.100000
0.100000
0.100000
0.100000
0.000000
0.000000
0.000000
0.000000
0.061172
0.187059
0.287284
0.384059
0.241464
0.216594
0.114157
0.093398
0.092196
0.123395
0.176908
0.137866
0.186909
0.066759
0.232142
0.047126
0.359378
0.307740
0.100000
0.100000
0.100000
0.100000
0.100000
0.100000
0.000000
0.000000
0.000000
0.000000
0.194406
0.217327
0.098859
0.133392
0.159187
0.109537
0.140404
0.289444
0.076002
0.151363
0.098642
0.111667
0.216939
0.272827
0.068559
0.119223
0.256656
0.205199
0.089257
0.499016
0.100000
0.100000
0.100000
0.100000
0.000000
0.000000
0.000000
0.000000
0.116076
0.041532
0.156924
0.302568
0.241141
0.354171
0.223974
0.179306
0.157560
0.161264
0.127091
0.212848
0.226639
0.134517
0.353242
0.288981
0.088674
0.100264
0.058696
0.132165
0.248929
0.100000
0.100000
0.100000
0.000000
0.000000
0.000000
0.000000
0.226948
0.228961
0.114498
0.149233
0.262280
0.149095
0.334994
0.128360
0.296901
0.191485
0.164830
0.182975
0.300517
0.382502
0.130760
0.349453
0.302752
0.221168
0.199745
0.240961
0.100000
0.180849
0.100000
0.100000
0.000000
0.000000
0.000000
0.000000
0.150468
0.234109
0.263159
0.311922
0.185244
0.249765
0.331508
0.207785
0.045180
0.257981
0.249838
0.041613
0.166370
0.232835
0.234357
0.196256
0.095829
0.068712
0.099580
0.343676
0.109325
0.141618
0.100000
0.100000
0.000000
0.000000
0.000000
0.000000
0.151511
0.265494
0.085695
0.263514
0.322434
0.310334
0.233149
0.148290
0.189900
0.197186
0.069766
0.175242
0.267408
0.181697
0.337282
0.226081
0.197846
0.199271
0.240535
0.120339
0.203042
0.153952
0.100000
0.100000
0.000000
0.000000
0.000000
0.000000
0.155362
0.174616
0.251352
0.260817
0.227576
0.200813
0.137094
0.284993
0.160513
0.221742
0.168352
0.093791
0.188665
0.252270
0.138764
0.223944
0.060882
0.251983
0.269349
0.260166
0.171312
0.211216
0.100000
0.100000
0.000000
0.000000
0.000000
0.000000
0.069337
0.083188
0.186491
0.354551
0.151072
0.106082
0.020018
0.188174
0.111465
0.175245
0.205664
0.300342
0.263486
0.131241
0.139091
0.263340
0.176995
0.153344
0.153217
0.298824
0.127156
0.249464
0.100000
0.100000
0.000000
0.000000
0.000000
0.000000
0.117849
0.130842
0.161858
0.082650
0.018987
0.285120
0.179864
0.222999
0.025725
0.078020
0.038179
0.138622
0.055082
0.068547
0.015433
0.214924
0.087040
0.202962
0.242560
0.228918
0.095861
0.366792
0.100000
0.100000
0.000000
0.000000
0.000000
0.000000
0.133139
0.176408
0.240027
0.141173
0.202524
0.374757
0.208671
0.039633
0.130099
0.143597
0.043039
0.097493
0.156121
0.091987
0.118283
0.133843
0.233038
0.176354
0.210631
0.275542
0.286888
0.100000
0.254038
0.100000
0.000000
0.000000
0.000000
0.000000
0.111677
0.261326
0.317427
0.134925
0.155790
0.211889
0.311271
0.089616
0.166244
0.165110
0.120323
0.071686
0.213486
0.074202
0.054201
0.096432
0.177387
0.182626
0.048972
0.250020
0.396439
0.296822
0.209181
0.100000
0.000000
0.000000
0.000000
0.000000
0.209239
0.150478
0.114613
0.158765
0.119607
0.199202
0.292300
0.109603
0.203630
0.125250
0.247291
0.122868
0.056407
0.256487
0.226267
0.193796
0.356609
0.083341
0.160689
0.159793
0.377725
0.450485
0.100000
0.100000
0.000000
0.000000
0.000000
0.000000
0.062358
0.132471
0.194518
0.090765
0.043041
0.203372
0.223545
0.236568
0.129110
0.113740
0.334288
0.127625
0.062874
0.128786
0.324917
0.103657
0.176824
0.266802
0.196847
0.159672
0.009786
0.175248
0.196945
0.100000
0.000000
0.000000
0.000000
0.000000
0.053189
0.113467
0.128973
0.165601
0.148358
0.173552
0.140612
0.054676
0.192513
0.145646
0.302199
0.253649
0.212767
0.088836
0.266215
0.112325
0.039176
0.166419
0.190424
0.159743
0.241833
0.154384
0.100000
0.100000
0.000000
0.000000
0.000000
0.000000
0.205358
0.162184
0.156332
0.157811
0.131588
0.312899
0.062380
0.137097
0.207303
0.538273
0.100577
0.180742
0.320551
0.273001
0.383042
0.165972
0.033494
0.039102
0.009412
0.136305
0.057688
0.166559
0.100000
0.100000
0.000000
0.000000
0.000000
0.000000
0.089905
0.128512
0.151503
0.077359
0.163044
0.235204
0.205159
0.175794
0.134262
0.148692
0.210635
0.120939
0.195845
0.152150
0.066049
0.359782
0.212264
0.178573
0.155727
0.221680
0.270094
0.299418
0.307918
0.100000
0.000000
0.000000
0.000000
0.000000
0.056456
0.091942
0.136429
0.061531
0.124285
0.140360
0.073519
0.119301
0.033450
0.321253
0.190419
0.116917
0.218971
0.087332
0.105811
0.216221
0.108210
0.073430
0.132957
0.219821
0.099489
0.115182
0.411934
0.100000
0.000000
0.000000
0.000000
0.000000
0.055998
0.063155
0.226175
0.151302
0.365008
0.156091
0.088288
0.146587
0.107070
0.225559
0.206144
0.165159
0.149540
0.157781
0.054810
0.274927
0.017808
0.030735
0.095671
0.221027
0.200692
0.096756
0.330667
0.100000
0.000000
0.000000
0.000000
0.000000
0.059773
0.053768
0.088092
0.082499
0.067103
0.105412
0.097307
0.042836
0.102300
0.110061
0.079103
0.032651
0.156769
0.101015
0.138016
0.156012
0.206195
0.219466
0.055531
0.162621
0.223715
0.238953
0.100000
0.100000
0.000000
0.000000
0.000000
0.000000
0.084765
0.093529
0.088482
0.072816
0.052019
0.027590
0.141726
0.193158
0.154662
0.123115
0.207843
0.264679
0.128602
0.122203
0.267772
0.083351
0.202082
0.061896
0.270147
0.108853
0.190878
0.194596
0.344657
0.100000
0.000000
0.000000
0.000000
0.000000
0.125747
0.095374
0.095249
0.196801
0.361541
0.162262
0.250683
0.044346
0.165997
0.243983
0.157075
0.367312
0.382976
0.166728
0.100266
0.089137
0.212053
0.086308
0.236898
0.081252
0.240590
0.475267
0.256389
0.100000
0.000000
0.000000
0.000000
0.000000
0.052999
0.107404
0.096816
0.085741
0.078669
0.136936
0.044548
0.145179
0.066727
0.071796
0.104038
0.136542
0.197415
0.148030
0.207637
0.179452
0.205557
0.226212
0.169417
0.251984
0.280947
0.384009
0.512595
0.100000
0.000000
0.000000
0.000000
0.000000
0.011399
0.127009
0.143066
0.086978
0.247974
0.469625
0.168492
0.132328
0.146013
0.045253
0.167699
0.095333
0.190093
0.148583
0.102368
0.032574
0.241835
0.112744
0.160665
0.106874
0.168789
0.333866
0.309887
0.100000
0.000000
0.000000
0.000000
0.000000
0.031674
0.168823
0.073128
0.199711
0.119566
0.169944
0.083926
0.136850
0.094974
0.174397
0.103438
0.145350
0.009305
0.033741
0.244622
0.206992
0.306094
0.164349
0.270710
0.129099
0.226228
0.248272
0.226818
0.100000
0.000000
0.000000
0.000000
0.000000
0.044053
0.109169
0.010169
0.233349
0.143054
0.171709
0.176452
0.199247
0.013648
0.132371
0.102498
0.049374
0.127746
0.045247
0.022689
0.291353
0.072985
0.173818
0.250923
0.222703
0.635359
0.412546
0.100000
0.100000
0.000000
0.000000
0.000000
0.000000
0.146712
0.266526
0.049583
0.077740
0.219671
0.179354
0.345843
0.076099
0.284958
0.038335
0.125759
0.187377
0.201549
0.264990
0.185143
0.169207
0.226282
0.205378
0.109623
0.278774
0.183369
0.108115
0.101690
0.100000
0.000000
0.000000
0.000000
0.000000
0.058928
0.119052
0.151369
0.210098
0.088190
0.160204
0.129064
0.149850
0.137752
0.066729
0.207644
0.152564
0.235135
0.131367
0.113848
0.353720
0.076578
0.146706
0.203489
0.066918
0.130763
0.258150
0.520022
0.100000
0.000000
0.000000
0.000000
0.000000
0.209427
0.206457
0.174524
0.159099
0.207895
0.049485
0.085619
0.163177
0.197638
0.116705
0.123081
0.161327
0.111376
0.175192
0.186469
0.119972
0.117877
0.130461
0.262171
0.127656
0.046119
0.302898
0.100000
0.100000
0.000000
0.000000
0.000000
0.000000
0.142953
0.288260
0.111952
0.144745
0.108580
0.351112
0.106969
0.060378
0.201205
0.099330
0.131434
0.188482
0.073458
0.060404
0.188847
0.199319
0.135099
0.345133
0.135175
0.090724
0.462534
0.073896
0.300319
0.100000
0.000000
0.000000
0.000000
0.000000
0.113279
0.160560
0.102603
0.183562
0.133308
0.107872
0.144068
0.039143
0.261843
0.163876
0.134533
0.108553
0.168504
0.170883
0.326834
0.148728
0.245885
0.204704
0.124384
0.220268
0.214176
0.885931
0.151783
0.100000
0.000000
0.000000
0.000000
0.000000
0.061433
0.198844
0.138446
0.188083
0.310180
0.267686
0.194163
0.146144
0.313471
0.298075
0.220544
0.297432
0.237923
0.027498
0.097874
0.149889
0.296716
0.195946
0.095888
0.166306
0.176923
0.133814
0.528876
0.100000
0.000000
0.000000
0.000000
0.000000
0.113653
0.260988
0.174300
0.244241
0.126273
0.272112
0.330781
0.273812
0.163192
0.094887
0.213026
0.128015
0.209001
0.088866
0.177735
0.123195
0.204408
0.090472
0.067654
0.170378
0.257897
0.170737
0.450887
0.100000
0.000000
0.000000
0.000000
0.000000
0.175921
0.154059
0.177296
0.208003
0.106212
0.121694
0.131750
0.273657
0.039221
0.210956
0.084498
0.040217
0.154507
0.096170
0.144189
0.092813
0.146114
0.179400
0.060238
0.064659
0.324060
0.402736
0.396906
0.100000
0.000000
0.000000
0.000000
0.000000
0.090300
0.198442
0.194670
0.170559
0.072027
0.183736
0.253891
0.107734
0.111600
0.127828
0.159078
0.136787
0.163787
0.094205
0.088250
0.243093
0.162437
0.197211
0.244921
0.186483
0.287207
0.261384
0.201899
0.100000
0.000000
0.000000
0.000000
0.000000
0.092017
0.165198
0.211269
0.157908
0.265040
0.138198
0.114403
0.278670
0.012013
0.110490
0.021970
0.143650
0.155738
0.065027
0.218375
0.059203
0.291388
0.117793
0.125832
0.222731
0.182595
0.439966
0.338639
0.100000
0.000000
0.000000
0.000000
0.000000
0.337584
0.133244
0.279435
0.175152
0.040545
0.297242
0.066834
0.078571
0.114270
0.166913
0.073686
0.123392
0.164598
0.201299
0.175495
0.185759
0.382418
0.209889
0.094842
0.119821
0.195601
0.179451
0.127154
0.100000
0.000000
0.000000
0.000000
0.000000
0.210127
0.025374
0.267456
0.098914
0.178672
0.096000
0.297696
0.140697
0.116576
0.133540
0.187435
0.112805
0.112609
0.057839
0.260450
0.278937
0.071678
0.110299
0.275854
0.109641
0.476411
0.231864
0.302921
0.100000
0.000000
0.000000
0.000000
0.000000
0.107418
0.166622
0.192380
0.129078
0.012844
0.255808
0.141038
0.072011
0.048936
0.161551
0.038752
0.159466
0.184378
0.038831
0.174749
0.089998
0.126418
0.257288
0.086507
0.101897
0.172560
0.227362
0.162722
0.100000
0.000000
0.000000
0.000000
0.000000
0.193152
0.174325
0.199202
0.101503
0.125393
0.064179
0.092783
0.159648
0.189223
0.163476
0.162752
0.186276
0.109220
0.143851
0.103118
0.238603
0.344390
0.108328
0.200398
0.192275
0.167518
0.092429
0.753595
0.100000
0.000000
0.000000
0.000000
0.000000
0.000000
0.000000
0.000000
0.000000
0.000000
0.000000
0.000000
0.000000
0.000000
0.000000
0.000000
0.000000
0.000000
0.000000
0.000000
0.000000
0.000000
0.000000
0.000000
0.000000
0.000000
0.000000
0.000000
0.000000
0.000000
0.000000
0.000000
0.000000
0.000000
0.000000
0.000000
0.000000
0.000000
0.000000
0.000000
0.000000
0.000000
0.000000
0.000000
0.000000
0.000000
0.000000
0.000000
0.000000
0.000000
0.000000
0.000000
0.000000
0.000000
0.000000
0.000000
0.000000
0.000000
0.000000
0.000000
0.000000
0.000000
0.000000
0.000000
0.000000
0.000000
0.000000
0.000000
0.000000
0.000000
0.000000
0.000000
0.000000
0.000000
0.000000
0.000000
0.000000
0.000000
0.000000
0.000000
0.000000
0.000000
0.000000
0.000000
0.000000
0.000000
0.000000
0.000000
0.000000
0.000000
0.000000
0.000000
0.000000
0.000000
0.000000
0.000000
0.000000
0.000000
0.000000
0.000000
0.000000
0.000000
0.000000
0.000000
0.000000
0.000000
0.000000
0.000000
0.000000
0.000000
0.000000
0.000000
0.000000
</DataArray>
<DataArray NumberOfComponents='1' type='Float32' Name='pressure' format='ascii'>
0.000000
0.000000
0.000000
0.000000
0.000000
0.000000
0.000000
0.000000
0.000000
0.000000
0.000000
0.000000
0.000000
0.000000
0.000000
0.000000
0.000000
0.000000
0.000000
0.000000
0.000000
0.000000
0.000000
0.000000
0.000000
0.000000
0.000000
0.000000
0.000000
0.000000
0.000000
0.000000
0.000000
0.000000
0.000000
0.000000
0.000000
0.000000
0.000000
0.000000
0.000000
0.000000
0.000000
0.000000
0.000000
0.000000
0.000000
0.000000
0.000000
0.000000
0.000000
0.000000
0.000000
0.000000
0.000000
0.000000
0.000000
0.000000
61269.753906
61236.800781
61244.468750
61150.886719
62051.187500
61921.984375
61124.394531
61484.960938
60297.445312
60509.027344
61255.226562
61985.789062
61979.898438
61979.871094
62222.578125
63107.316406
64131.539062
64331.382812
65376.281250
65537.046875
65519.667969
63691.425781
61638.992188
54004.664062
41841.910156
0.000000
0.000000
0.000000
61203.621094
61698.242188
61095.312500
60230.957031
61794.140625
61040.109375
60754.097656
61491.644531
60252.238281
60392.667969
60829.324219
61428.886719
61723.128906
62195.976562
62019.261719
63045.191406
63193.148438
63685.324219
64727.667969
65204.960938
65881.593750
64978.839844
65172.750000
58794.132812
52947.675781
0.000000
0.000000
0.000000
61354.960938
61412.554688
60315.878906
59553.464844
60560.800781
60169.449219
60673.949219
62050.644531
61806.550781
60534.136719
61256.371094
61761.308594
63459.675781
64355.226562
64005.691406
64922.406250
66744.921875
66739.835938
75171.320312
62227.867188
66526.437500
61850.691406
59253.136719
45525.089844
72582.976562
72815.242188
0.000000
0.000000
60106.925781
59541.496094
59251.464844
60268.617188
59787.691406
61024.414062
60574.867188
60008.253906
61227.703125
60756.339844
61434.609375
63129.109375
61596.039062
63473.652344
64504.660156
65017.597656
66023.929688
64544.433594
67724.945312
66866.281250
69033.539062
0.000000
54797.355469
58135.601562
78515.734375
72460.281250
0.000000
0.000000
61291.222656
60811.320312
59956.183594
61214.875000
61327.906250
60257.796875
60629.640625
60927.367188
60919.070312
60496.910156
61919.867188
62570.175781
63210.113281
62240.699219
63685.429688
64414.058594
64981.359375
64441.769531
68710.101562
66787.187500
66952.742188
62542.441406
76191.937500
68840.421875
70906.640625
69853.875000
0.000000
0.000000
60774.605469
59853.328125
58773.820312
60260.949219
59921.488281
60425.648438
60615.062500
60155.832031
60561.496094
60869.648438
60278.761719
62354.328125
63649.136719
62988.664062
64761.449219
66141.281250
67313.445312
69109.343750
64330.679688
66700.773438
69226.234375
71461.757812
70538.781250
79862.968750
71791.789062
66702.125000
0.000000
0.000000
60271.800781
60302.925781
58299.582031
60069.070312
59697.273438
59712.101562
60435.570312
59966.949219
60183.867188
61230.585938
61433.535156
62861.820312
64036.132812
63839.992188
64569.667969
67674.312500
65844.929688
69107.382812
69525.390625
68006.203125
68119.656250
73054.593750
78103.570312
71007.765625
67710.429688
62735.718750
0.000000
0.000000
59279.562500
59653.492188
59676.578125
57440.097656
60663.167969
59557.914062
60006.062500
59933.203125
59763.476562
60831.054688
61223.406250
60714.273438
61900.394531
65957.500000
63286.929688
63453.082031
61953.781250
64386.218750
65438.207031
66611.070312
69368.585938
67835.242188
69471.890625
69192.414062
59860.621094
57499.011719
0.000000
0.000000
58980.906250
59912.042969
59036.191406
59276.863281
59595.355469
60650.125000
59209.507812
60481.062500
58991.925781
58945.000000
59336.292969
59646.847656
59912.332031
62892.574219
61212.699219
62986.382812
64144.265625
64803.437500
65275.871094
66202.781250
65974.000000
66465.039062
66707.859375
66625.320312
59669.832031
55435.214844
0.000000
0.000000
59478.066406
59310.242188
59604.906250
58280.867188
56712.246094
59873.695312
59442.777344
59722.707031
56826.718750
57481.390625
59555.007812
59158.425781
60945.671875
62056.015625
61987.050781
61598.128906
62493.820312
64574.851562
63632.800781
64867.347656
62556.546875
60222.902344
63046.394531
64032.953125
56490.375000
53905.597656
0.000000
0.000000
58912.195312
58955.019531
58911.679688
59410.175781
59296.109375
59292.214844
57742.851562
58004.109375
57189.625000
58568.250000
57926.828125
58593.132812
59064.695312
61420.718750
61426.304688
62780.222656
63088.949219
62026.070312
62561.652344
63969.679688
61340.847656
59701.648438
58018.960938
59695.792969
52096.507812
52911.671875
0.000000
0.000000
58214.421875
57977.378906
57985.601562
58555.628906
57366.218750
59821.429688
58236.347656
58657.660156
56852.011719
58240.730469
56849.851562
57915.273438
58957.511719
60041.144531
60697.605469
61342.726562
63060.847656
61615.250000
62064.406250
63202.484375
55172.675781
56950.613281
55491.113281
59580.089844
50834.875000
51111.835938
0.000000
0.000000
57107.769531
56436.550781
58645.316406
58045.703125
58894.652344
58037.187500
55656.644531
56217.453125
56193.234375
57860.011719
59575.933594