<?xml version='1.0' encoding='UTF-8'?>
<VTKFile xmlns='VTK' byte_order='LittleEndian' version='0.1' type='UnstructuredGrid'>
<UnstructuredGrid>
<Piece NumberOfCells='1344' NumberOfPoints='1344'>
<Points>
<DataArray NumberOfComponents='3' type='Float32' Name='Position' format='ascii'>
-0.075000 -0.075000 0.000000
-0.075000 -0.050000 0.000000
-0.075000 -0.025000 0.000000
-0.075000 0.000000 0.000000
-0.075000 0.025000 0.000000
-0.075000 0.050000 0.000000
-0.075000 0.075000 0.000000
-0.075000 0.100000 0.000000
-0.075000 0.125000 0.000000
-0.075000 0.150000 0.000000
-0.075000 0.175000 0.000000
-0.075000 0.200000 0.000000
-0.075000 0.225000 0.000000
-0.075000 0.250000 0.000000
-0.075000 0.275000 0.000000
-0.075000 0.300000 0.000000
-0.075000 0.325000 0.000000
-0.075000 0.350000 0.000000
-0.075000 0.375000 0.000000
-0.075000 0.400000 0.000000
-0.075000 0.425000 0.000000
-0.075000 0.450000 0.000000
-0.075000 0.475000 0.000000
-0.075000 0.500000 0.000000
-0.075000 0.525000 0.000000
-0.075000 0.550000 0.000000
-0.075000 0.575000 0.000000
-0.075000 0.600000 0.000000
-0.050000 -0.075000 0.000000
-0.050000 -0.050000 0.000000
-0.050000 -0.025000 0.000000
-0.050000 0.000000 0.000000
-0.050000 0.025000 0.000000
-0.050000 0.050000 0.000000
-0.050000 0.075000 0.000000
-0.050000 0.100000 0.000000
-0.050000 0.125000 0.000000
-0.050000 0.150000 0.000000
-0.050000 0.175000 0.000000
-0.050000 0.200000 0.000000
-0.050000 0.225000 0.000000
-0.050000 0.250000 0.000000
-0.050000 0.275000 0.000000
-0.050000 0.300000 0.000000
-0.050000 0.325000 0.000000
-0.050000 0.350000 0.000000
-0.050000 0.375000 0.000000
-0.050000 0.400000 0.000000
-0.050000 0.425000 0.000000
-0.050000 0.450000 0.000000
-0.050000 0.475000 0.000000
-0.050000 0.500000 0.000000
-0.050000 0.525000 0.000000
-0.050000 0.550000 0.000000
-0.050000 0.575000 0.000000
-0.050000 0.600000 0.000000
-0.025000 -0.075000 0.000000
-0.025000 -0.050000 0.000000
-0.025000 -0.025000 0.000000
-0.025000 0.000000 0.000000
-0.025000 0.025000 0.000000
-0.025000 0.050000 0.000000
-0.025000 0.075000 0.000000
-0.025000 0.100000 0.000000
-0.025000 0.125000 0.000000
-0.025000 0.150000 0.000000
-0.025000 0.175000 0.000000
-0.025000 0.200000 0.000000
-0.025000 0.225000 0.000000
-0.025000 0.250000 0.000000
-0.025000 0.275000 0.000000
-0.025000 0.300000 0.000000
-0.025000 0.325000 0.000000
-0.025000 0.350000 0.000000
-0.025000 0.375000 0.000000
-0.025000 0.400000 0.000000
-0.025000 0.425000 0.000000
-0.025000 0.450000 0.000000
-0.025000 0.475000 0.000000
-0.025000 0.500000 0.000000
-0.025000 0.525000 0.000000
-0.025000 0.550000 0.000000
-0.025000 0.575000 0.000000
-0.025000 0.600000 0.000000
0.000000 -0.075000 0.000000
0.000000 -0.050000 0.000000
0.000000 -0.025000 0.000000
0.000000 0.000000 0.000000
0.000000 0.025000 0.000000
0.000000 0.050000 0.000000
0.000000 0.075000 0.000000
0.000000 0.100000 0.000000
0.000000 0.125000 0.000000
0.000000 0.150000 0.000000
0.000000 0.175000 0.000000
0.000000 0.200000 0.000000
0.000000 0.225000 0.000000
0.000000 0.250000 0.000000
0.000000 0.275000 0.000000
0.000000 0.300000 0.000000
0.000000 0.325000 0.000000
0.000000 0.350000 0.000000
0.000000 0.375000 0.000000
0.000000 0.400000 0.000000
0.000000 0.425000 0.000000
0.000000 0.450000 0.000000
0.000000 0.475000 0.000000
0.000000 0.500000 0.000000
0.000000 0.525000 0.000000
0.000000 0.550000 0.000000
0.000000 0.575000 0.000000
0.000000 0.600000 0.000000
0.025000 -0.075000 0.000000
0.025000 -0.050000 0.000000
0.025000 -0.025000 0.000000
0.025000 0.000000 0.000000
0.023845 0.029047 0.000000
0.043278 0.058003 0.000000
0.021785 0.061017 0.000000
0.024111 0.115645 0.000000
0.024852 0.160611 0.000000
0.025676 0.185752 0.000000
0.026462 0.207460 0.000000
0.023844 0.235746 0.000000
0.024047 0.262475 0.000000
0.025914 0.285123 0.000000
0.025714 0.311138 0.000000
0.024047 0.335288 0.000000
0.027601 0.359293 0.000000
0.022998 0.383819 0.000000
0.023826 0.414530 0.000000
0.024771 0.439855 0.000000
0.024344 0.467610 0.000000
0.024715 0.492026 0.000000
0.022127 0.533453 0.000000
0.024972 0.559304 0.000000
0.029172 0.583444 0.000000
0.014408 0.600000 0.000000
0.080156 0.600000 0.000000
0.098478 0.600000 0.000000
0.050000 -0.075000 0.000000
0.050000 -0.050000 0.000000
0.050000 -0.025000 0.000000
0.050000 0.000000 0.000000
0.042754 0.024484 0.000000
0.067270 0.049318 0.000000
0.047170 0.081126 0.000000
0.024335 0.092447 0.000000
0.029847 0.140341 0.000000
0.054003 0.157035 0.000000
0.051785 0.183825 0.000000
0.043451 0.222823 0.000000
0.050850 0.254073 0.000000
0.052491 0.276436 0.000000
0.049861 0.301407 0.000000
0.050830 0.324460 0.000000
0.051104 0.351247 0.000000
0.052727 0.374970 0.000000
0.044051 0.397524 0.000000
0.048094 0.427315 0.000000
0.047446 0.450970 0.000000
0.051491 0.476656 0.000000
0.034574 0.511034 0.000000
0.045117 0.540979 0.000000
0.053212 0.574888 0.000000
0.041833 0.600000 0.000000
0.110082 0.581185 0.000000
0.120195 0.600000 0.000000
0.075000 -0.075000 0.000000
0.075000 -0.050000 0.000000
0.075000 -0.025000 0.000000
0.075000 0.000000 0.000000
0.068778 0.024544 0.000000
0.091124 0.050733 0.000000
0.072048 0.073046 0.000000
0.049881 0.124596 0.000000
0.072800 0.126271 0.000000
0.071938 0.178025 0.000000
0.062759 0.209449 0.000000
0.067822 0.237372 0.000000
0.077195 0.260791 0.000000
0.080020 0.283238 0.000000
0.076180 0.308564 0.000000
0.077062 0.331578 0.000000
0.076239 0.354722 0.000000
0.078642 0.380689 0.000000
0.067012 0.404152 0.000000
0.073460 0.426680 0.000000
0.070137 0.461095 0.000000
0.080639 0.487073 0.000000
0.057144 0.499390 0.000000
0.063387 0.521189 0.000000
0.065066 0.552256 0.000000
0.059958 0.600000 0.000000
0.138611 0.600000 0.000000
0.157606 0.600000 0.000000
0.100000 -0.075000 0.000000
0.100000 -0.050000 0.000000
0.100000 -0.025000 0.000000
0.100000 0.000000 0.000000
0.093826 0.023676 0.000000
0.102022 0.070221 0.000000
0.081861 0.095778 0.000000
0.057357 0.101870 0.000000
0.095964 0.134700 0.000000
0.075171 0.152215 0.000000
0.093927 0.181912 0.000000
0.085094 0.212186 0.000000
0.095363 0.237091 0.000000
0.105045 0.257614 0.000000
0.103502 0.287292 0.000000
0.101608 0.311551 0.000000
0.104784 0.336347 0.000000
0.100547 0.362229 0.000000
0.101417 0.388522 0.000000
0.095473 0.411621 0.000000
0.093480 0.438261 0.000000
0.093931 0.464860 0.000000
0.099997 0.497230 0.000000
0.104011 0.520129 0.000000
0.082689 0.531211 0.000000
0.079899 0.577097 0.000000
0.160884 0.578802 0.000000
0.178420 0.600000 0.000000
0.125000 -0.075000 0.000000
0.125000 -0.050000 0.000000
0.125000 -0.025000 0.000000
0.125000 0.000000 0.000000
0.115061 0.037340 0.000000
0.128806 0.058628 0.000000
0.115291 0.088366 0.000000
0.097932 0.111206 0.000000
0.121893 0.134004 0.000000
0.108306 0.158562 0.000000
0.117080 0.179811 0.000000
0.106936 0.208596 0.000000
0.120223 0.232767 0.000000
0.128134 0.262983 0.000000
0.125323 0.292965 0.000000
0.128498 0.315588 0.000000
0.126109 0.343840 0.000000
0.124472 0.369957 0.000000
0.125537 0.399715 0.000000
0.117141 0.425419 0.000000
0.114810 0.454750 0.000000
0.119291 0.481419 0.000000
0.124897 0.510132 0.000000
0.113334 0.548383 0.000000
0.133562 0.572111 0.000000
0.092085 0.555377 0.000000
0.189090 0.583100 0.000000
0.200761 0.600000 0.000000
0.150000 -0.075000 0.000000
0.150000 -0.050000 0.000000
0.150000 -0.025000 0.000000
0.150000 0.000000 0.000000
0.131036 0.023095 0.000000
0.150635 0.045794 0.000000
0.139165 0.079294 0.000000
0.128159 0.107375 0.000000
0.143877 0.129503 0.000000
0.133987 0.157918 0.000000
0.147875 0.179045 0.000000
0.132120 0.202370 0.000000
0.141449 0.221290 0.000000
0.143930 0.246831 0.000000
0.148704 0.277925 0.000000
0.153388 0.304298 0.000000
0.152682 0.327619 0.000000
0.148430 0.353662 0.000000
0.146963 0.379623 0.000000
0.142871 0.410035 0.000000
0.137518 0.438222 0.000000
0.140219 0.467090 0.000000
0.145163 0.493320 0.000000
0.149347 0.515489 0.000000
0.131824 0.540231 0.000000
0.151359 0.552762 0.000000
0.215946 0.584949 0.000000
0.227474 0.600000 0.000000
0.175000 -0.075000 0.000000
0.175000 -0.050000 0.000000
0.175000 -0.025000 0.000000
0.175000 0.000000 0.000000
0.159042 0.025290 0.000000
0.174409 0.051076 0.000000
0.163755 0.074939 0.000000
0.153959 0.101247 0.000000
0.167201 0.127654 0.000000
0.161266 0.155986 0.000000
0.177626 0.175975 0.000000
0.161341 0.197955 0.000000
0.176136 0.215961 0.000000
0.168772 0.240629 0.000000
0.168651 0.265488 0.000000
0.178360 0.287519 0.000000
0.176795 0.312943 0.000000
0.176168 0.339294 0.000000
0.172094 0.364698 0.000000
0.169560 0.389030 0.000000
0.169373 0.412020 0.000000
0.161895 0.436298 0.000000
0.160613 0.459541 0.000000
0.172601 0.480797 0.000000
0.173920 0.504324 0.000000
0.168043 0.532544 0.000000
0.241227 0.578404 0.000000
0.247445 0.600000 0.000000
0.200000 -0.075000 0.000000
0.200000 -0.050000 0.000000
0.200000 -0.025000 0.000000
0.200000 0.000000 0.000000
0.185856 0.022827 0.000000
0.198224 0.048077 0.000000
0.189136 0.073488 0.000000
0.177482 0.099245 0.000000
0.190980 0.126275 0.000000
0.183757 0.149783 0.000000
0.204158 0.172489 0.000000
0.191300 0.198109 0.000000
0.200982 0.221448 0.000000
0.191023 0.249565 0.000000
0.197942 0.273561 0.000000
0.202439 0.306189 0.000000
0.201205 0.331193 0.000000
0.197458 0.355484 0.000000
0.196459 0.379925 0.000000
0.195215 0.411073 0.000000
0.187737 0.433362 0.000000
0.194422 0.456596 0.000000
0.198560 0.476803 0.000000
0.196071 0.500062 0.000000
0.191514 0.531947 0.000000
0.177512 0.555928 0.000000
0.268145 0.578052 0.000000
0.267847 0.600000 0.000000
0.225000 -0.075000 0.000000
0.225000 -0.050000 0.000000
0.225000 -0.025000 0.000000
0.225000 0.000000 0.000000
0.211555 0.026010 0.000000
0.225078 0.046730 0.000000
0.213665 0.074691 0.000000
0.201587 0.100070 0.000000
0.218658 0.122942 0.000000
0.211957 0.145750 0.000000
0.229632 0.162611 0.000000
0.217813 0.189640 0.000000
0.225943 0.219145 0.000000
0.215930 0.241006 0.000000
0.221848 0.266526 0.000000
0.219719 0.292840 0.000000
0.225962 0.322689 0.000000
0.227128 0.348407 0.000000
0.219052 0.373942 0.000000
[...]
<PointData>
<DataArray NumberOfComponents='1' type='Int32' Name='ParticleType' format='ascii'>
3
3
3
3
3
3
3
3
3
3
3
3
3
3
3
3
3
3
3
3
3
3
3
3
3
3
3
3
3
3
3
3
3
3
3
3
3
3
3
3
3
3
3
3
3
3
3
3
3
3
3
3
3
3
3
3
3
3
2
2
2
2
2
2
2
2
2
2
2
2
2
2
2
2
2
2
2
2
2
2
2
2
2
2
3
3
2
2
2
2
2
2
2
2
2
2
2
2
2
2
2
2
2
2
2
2
2
2
2
2
2
2
3
3
2
2
0
0
0
0
0
0
0
0
0
0
0
0
0
0
0
0
0
0
0
0
0
0
0
0
3
3
2
2
0
0
0
0
0
0
0
0
0
0
0
0
0
0
0
0
0
0
0
0
0
0
0
0
3
3
2
2
0
0
0
0
0
0
0
0
0
0
0
0
0
0
0
0
0
0
0
0
0
0
0
0
3
3
2
2
0
0
0
0
0
0
0
0
0
0
0
0
0
0
0
0
0
0
0
0
0
0
0
0
3
3
2
2
0
0
0
0
0
0
0
0
0
0
0
0
0
0
0
0
0
0
0
0
0
0
0
0
3
3
2
2
0
0
0
0
0
0
0
0
0
0
0
0
0
0
0
0
0
0
0
0
0
0
0
0
3
3
2
2
0
0
0
0
0
0
0
0
0
0
0
0
0
0
0
0
0
0
0
0
0
0
0
0
3
3
2
2
0
0
0
0
0
0
0
0
0
0
0
0
0
0
0
0
0
0
0
0
0
0
0
0
3
3
2
2
0
0
0
0
0
0
0
0
0
0
0
0
0
0
0
0
0
0
0
0
0
0
0
0
3
3
2
2
0
0
0
0
0
0
0
0
0
0
0
0
0
0
0
0
0
0
0
0
0
0
0
0
3
3
2
2
0
0
0
0
0
0
0
0
0
0
0
0
0
0
0
0
0
0
0
0
0
0
0
0
3
3
2
2
0
0
0
0
0
0
0
0
0
0
0
0
0
0
0
0
0
0
0
0
0
0
0
0
3
3
2
2
0
0
0
0
0
0
0
0
0
0
0
0
0
0
0
0
0
0
0
0
0
0
0
0
3
3
2
2
0
0
0
0
0
0
0
0
0
0
0
0
0
0
0
0
0
0
0
0
0
0
0
0
3
3
2
2
0
0
0
0
0
0
0
0
0
0
0
0
0
0
0
0
0
0
0
0
0
0
0
0
3
3
2
2
0
0
0
0
0
0
0
0
0
0
0
0
0
0
0
0
0
0
0
0
0
0
0
0
3
3
2
2
0
0
0
0
0
0
0
0
0
0
0
0
0
0
0
0
0
0
0
0
0
0
0
0
3
3
2
2
0
0
0
0
0
0
0
0
0
0
0
0
0
0
0
0
0
0
0
0
0
0
0
0
3
3
2
2
0
0
0
0
0
0
0
0
0
0
0
0
0
0
0
0
0
0
0
0
0
0
0
0
3
3
2
2
0
0
0
0
0
0
0
0
0
0
0
0
0
0
0
0
0
0
0
0
0
0
0
0
3
3
2
2
0
0
0
0
0
0
0
0
0
0
0
0
0
0
0
0
0
0
0
0
0
0
0
0
3
3
2
2
0
0
0
0
0
0
0
0
0
0
0
0
0
0
0
0
0
0
0
0
0
0
0
0
3
3
2
2
0
0
0
0
0
0
0
0
0
0
0
0
0
0
0
0
0
0
0
0
0
0
0
0
3
3
2
2
0
0
0
0
0
0
0
0
0
0
0
0
0
0
0
0
0
0
0
0
0
0
0
0
3
3
2
2
0
0
0
0
0
0
0
0
0
0
0
0
0
0
0
0
0
0
0
0
0
0
0
0
3
3
2
2
0
0
0
0
0
0
0
0
0
0
0
0
0
0
0
0
0
0
0
0
0
0
0
0
3
3
2
2
0
0
0
0
0
0
0
0
0
0
0
0
0
0
0
0
0
0
0
0
0
0
0
0
3
3
2
2
0
0
0
0
0
0
0
0
0
0
0
0
0
0
0
0
0
0
0
0
0
0
0
0
3
3
2
2
0
0
0
0
0
0
0
0
0
0
0
0
0
0
0
0
0
0
0
0
0
0
0
0
3
3
2
2
0
0
0
0
0
0
0
0
0
0
0
0
0
0
0
0
0
0
0
0
0
0
0
0
3
3
2
2
0
0
0
0
0
0
0
0
0
0
0
0
0
0
0
0
0
0
0
0
0
0
0
0
3
3
2
2
0
0
0
0
0
0
0
0
0
0
0
0
0
0
0
0
0
0
0
0
0
0
0
0
3
3
2
2
0
0
0
0
0
0
0
0
0
0
0
0
0
0
0
0
0
0
0
0
0
0
0
0
3
3
2
2
0
0
0
0
0
0
0
0
0
0
0
0
0
0
0
0
0
0
0
0
0
0
0
0
3
3
2
2
0
0
0
0
0
0
0
0
0
0
0
0
0
0
0
0
0
0
0
0
0
0
0
0
3
3
2
2
0
0
0
0
0
0
0
0
0
0
0
0
0
0
0
0
0
0
0
0
0
0
0
0
3
3
2
2
0
0
0
0
0
0
0
0
0
0
0
0
0
0
0
0
0
0
0
0
0
0
0
0
3
3
2
2
0
0
0
0
0
0
0
0
0
0
0
0
0
0
0
0
0
0
0
0
0
0
0
0
3
3
2
2
0
0
0
0
0
0
0
0
0
0
0
0
0
0
0
0
0
0
0
0
0
0
0
0
3
3
2
2
0
0
0
0
0
0
0
0
0
0
0
0
0
0
0
0
0
0
0
0
0
0
0
0
3
3
2
2
2
2
2
2
2
2
2
2
2
2
2
2
2
2
2
2
2
2
2
2
2
2
2
2
3
3
2
2
2
2
2
2
2
2
2
2
2
2
2
2
2
2
2
2
2
2
2
2
2
2
2
2
3
3
3
3
3
3
3
3
3
3
3
3
3
3
3
3
3
3
3
3
3
3
3
3
3
3
3
3
3
3
3
3
3
3
3
3
3
3
3
3
3
3
3
3
3
3
3
3
3
3
3
3
3
3
3
3
</DataArray>
<DataArray NumberOfComponents='1' type='Float32' Name='Velocity' format='ascii'>
0.000000
0.000000
0.000000
0.000000
0.000000
0.000000
0.000000
0.000000
0.000000
0.000000
0.000000
0.000000
0.000000
0.000000
0.000000
0.000000
0.000000
0.000000
0.000000
0.000000
0.000000
0.000000
0.000000
0.000000
0.000000
0.000000
0.000000
0.000000
0.000000
0.000000
0.000000
0.000000
0.000000
0.000000
0.000000
0.000000
0.000000
0.000000
0.000000
0.000000
0.000000
0.000000
0.000000
0.000000
0.000000
0.000000
0.000000
0.000000
0.000000
0.000000
0.000000
0.000000
0.000000
0.000000
0.000000
0.000000
0.000000
0.000000
0.000000
0.000000
0.000000
0.000000
0.000000
0.000000
0.000000
0.000000
0.000000
0.000000
0.000000
0.000000
0.000000
0.000000
0.000000
0.000000
0.000000
0.000000
0.000000
0.000000
0.000000
0.000000
0.000000
0.000000
0.000000
0.000000
0.000000
0.000000
0.000000
0.000000
0.000000
0.000000
0.000000
0.000000
0.000000
0.000000
0.000000
0.000000
0.000000
0.000000
0.000000
0.000000
0.000000
0.000000
0.000000
0.000000
0.000000
0.000000
0.000000
0.000000
0.000000
0.000000
0.000000
0.000000
0.000000
0.000000
0.000000
0.000000
0.024005
0.034528
0.116598
0.024496
0.310634
0.174517
0.149968
0.271691
0.101623
0.204829
0.118748
0.223686
0.155108
0.195977
0.081052
0.150135
0.098558
0.006033
0.026962
0.078525
0.100000
0.100000
0.100000
0.100000
0.000000
0.000000
0.000000
0.000000
0.067434
0.029911
0.044642
0.130372
0.168208
0.414363
0.185623
0.064916
0.198732
0.106440
0.200699
0.162841
0.175151
0.166898
0.165603
0.289533
0.125573
0.190365
0.146962
0.127482
0.100000
0.100000
0.100000
0.100000
0.000000
0.000000
0.000000
0.000000
0.090363
0.056782
0.088304
0.212376
0.181972
0.137402
0.076755
0.134669
0.084777
0.124619
0.134682
0.110098
0.119659
0.047590
0.091044
0.038725
0.253579
0.379575
0.117293
0.166394
0.215634
0.100000
0.100000
0.100000
0.000000
0.000000
0.000000
0.000000
0.057039
0.133163
0.287846
0.193324
0.093482
0.211791
0.055326
0.129206
0.040361
0.109756
0.079561
0.073390
0.115983
0.184410
0.140424
0.078626
0.107940
0.091265
0.284265
0.345072
0.052936
0.100000
0.100000
0.100000
0.000000
0.000000
0.000000
0.000000
0.099870
0.165767
0.111288
0.249384
0.068839
0.074816
0.129906
0.070326
0.143962
0.071582
0.190470
0.046675
0.100643
0.072682
0.167370
0.168862
0.119864
0.048706
0.157913
0.019596
0.196607
0.037967
0.100000
0.100000
0.000000
0.000000
0.000000
0.000000
0.047252
0.194017
0.011001
0.072723
0.142810
0.182129
0.064339
0.184293
0.014700
0.098708
0.088847
0.161217
0.140691
0.121035
0.136872
0.234227
0.184072
0.119067
0.060800
0.259414
0.028296
0.064577
0.100000
0.100000
0.000000
0.000000
0.000000
0.000000
0.051182
0.157796
0.160029
0.090950
0.109086
0.019152
0.080843
0.138225
0.066247
0.154282
0.118952
0.041798
0.062569
0.040899
0.027420
0.130144
0.057323
0.053140
0.149472
0.160493
0.168186
0.057329
0.100000
0.100000
0.000000
0.000000
0.000000
0.000000
0.068872
0.095236
0.107477
0.039310
0.096100
0.169745
0.100842
0.084089
0.140197
0.054837
0.130410
0.080078
0.029250
0.051984
0.261430
0.097668
0.195869
0.204519
0.164659
0.078709
0.232553
0.288361
0.100000
0.100000
0.000000
0.000000
0.000000
0.000000
0.069189
0.114127
0.115735
0.095111
0.175531
0.025552
0.079960
0.115467
0.028164
0.147570
0.057014
0.103915
0.038013
0.102104
0.029695
0.274635
0.156899
0.222983
0.042579
0.140969
0.083663
0.186035
0.100000
0.100000
0.000000
0.000000
0.000000
0.000000
0.056472
0.109208
0.043259
0.053631
0.081803
0.048094
0.074735
0.153425
0.165481
0.165359
0.065958
0.095129
0.073942
0.037978
0.063413
0.109218
0.100718
0.045126
0.210737
0.318371
0.163530
0.146431
0.100000
0.100000
0.000000
0.000000
0.000000
0.000000
0.047533
0.161644
0.114136
0.067483
0.074769
0.043174
0.141301
0.120033
0.153851
0.063801
0.056472
0.082276
0.092249
0.036787
0.132372
0.116555
0.099786
0.133707
0.090570
0.122526
0.121194
0.084213
0.100000
0.100000
0.000000
0.000000
0.000000
0.000000
0.055898
0.140933
0.056823
0.042451
0.053510
0.090694
0.049665
0.074925
0.049745
0.071760
0.095063
0.148284
0.040610
0.019707
0.196505
0.192928
0.209204
0.252926
0.124065
0.125690
0.201541
0.144084
0.100000
0.100000
0.000000
0.000000
0.000000
0.000000
0.036572
0.163175
0.106675
0.053673
0.123168
0.040409
0.084394
0.139442
0.201059
0.099141
0.226919
0.131608
0.080187
0.032451
0.096168
0.076189
0.240168
0.184557
0.370690
0.064641
0.148653
0.260227
0.100000
0.100000
0.000000
0.000000
0.000000
0.000000
0.048324
0.101525
0.099453
0.080951
0.051330
0.030497
0.090776
0.083039
0.152415
0.053650
0.110847
0.254652
0.128742
0.131135
0.122367
0.159932
0.142235
0.135976
0.236442
0.153323
0.045640
0.259203
0.100000
0.100000
0.000000
0.000000
0.000000
0.000000
0.038438
0.055307
0.122254
0.136282
0.016299
0.029912
0.069642
0.141371
0.085483
0.025135
0.061594
0.157245
0.018269
0.097659
0.124101
0.083381
0.116562
0.026938
0.337184
0.076275
0.261124
0.083267
0.100000
0.100000
0.000000
0.000000
0.000000
0.000000
0.063204
0.120440
0.076692
0.094702
0.044815
0.100741
0.077660
0.120026
0.047915
0.073918
0.102696
0.117615
0.052005
0.131610
0.112341
0.118546
0.025705
0.112473
0.191422
0.427114
0.242948
0.149510
0.100000
0.100000
0.000000
0.000000
0.000000
0.000000
0.014639
0.028373
0.139734
0.093210
0.074529
0.104196
0.021698
0.033554
0.077243
0.032045
0.156898
0.101213
0.044601
0.036993
0.331110
0.067524
0.135902
0.280150
0.203845
0.052683
0.543790
0.083154
0.100000
0.100000
0.000000
0.000000
0.000000
0.000000
0.048393
0.062698
0.136537
0.090883
0.028433
0.055495
0.075345
0.097994
0.083320
0.102658
0.085630
0.015297
0.017878
0.066888
0.027070
0.145804
0.298311
0.096098
0.223580
0.386391
0.071060
0.536483
0.100000
0.100000
0.000000
0.000000
0.000000
0.000000
0.075812
0.081196
0.095875
0.111654
0.025521
0.067213
0.042407
0.077517
0.061248
0.118280
0.072835
0.063233
0.083877
0.058336
0.226439
0.109310
0.086141
0.090314
0.208457
0.079701
0.091980
0.451675
0.100000
0.100000
0.000000
0.000000
0.000000
0.000000
0.018702
0.046515
0.162335
0.119769
0.056770
0.034043
0.126761
0.086572
0.011027
0.057450
0.043533
0.088287
0.050912
0.080024
0.010639
0.215923
0.086748
0.035833
0.072740
0.198466
0.171182
0.241255
0.100000
0.100000
0.000000
0.000000
0.000000
0.000000
0.054133
0.098051
0.098473
0.030346
0.060598
0.052224
0.086682
0.104567
0.032626
0.045305
0.152479
0.076519
0.011453
0.154320
0.026293
0.034513
0.141718
0.056074
0.313260
0.076253
0.163008
0.296510
0.100000
0.100000
0.000000
0.000000
0.000000
0.000000
0.050454
0.075708
0.047672
0.156518
0.071951
0.057416
0.121378
0.112319
0.034872
0.095461
0.110848
0.055872
0.102713
0.075333
0.069273
0.239876
0.110831
0.134384
0.136799
0.077998
0.297032
0.254244
0.100000
0.100000
0.000000
0.000000
0.000000
0.000000
0.036007
0.079902
0.052440
0.085561
0.037155
0.067678
0.133870
0.129351
0.062821
0.016429
0.200313
0.109691
0.113277
0.185332
0.119560
0.040188
0.126141
0.171313
0.226305
0.058133
0.141482
0.176606
0.100000
0.100000
0.000000
0.000000
0.000000
0.000000
0.043916
0.092094
0.078947
0.141097
0.069275
0.108937
0.131414
0.100082
0.099456
0.179615
0.081374
0.195710
0.064011
0.110512
0.244545
0.230851
0.075391
0.223463
0.009470
0.062588
0.063228
0.152521
0.100000
0.100000
0.000000
0.000000
0.000000
0.000000
0.051907
0.087196
0.009914
0.150762
0.027609
0.122882
0.090864
0.043605
0.066451
0.135658
0.079320
0.108739
0.113835
0.077748
0.054802
0.022559
0.372200
0.124954
0.047658
0.124864
0.070069
0.415324
0.100000
0.100000
0.000000
0.000000
0.000000
0.000000
0.050176
0.141739
0.066149
0.088885
0.076704
0.096601
0.082256
0.013411
0.143219
0.154998
0.032113
0.067221
0.367251
0.130828
0.248328
0.127460
0.058676
0.053046
0.251155
0.135660
0.261641
0.297477
0.100000
0.100000
0.000000
0.000000
0.000000
0.000000
0.099481
0.158227
0.008142
0.163073
0.074852
0.007924
0.149612
0.174435
0.050955
0.129236
0.075515
0.074663
0.211195
0.155963
0.077328
0.182674
0.180517
0.364222
0.190562
0.164524
0.132151
0.151151
0.100000
0.100000
0.000000
0.000000
0.000000
0.000000
0.056327
0.153230
0.047968
0.008218
0.097588
0.156097
0.073567
0.074737
0.202155
0.075953
0.180353
0.083453
0.189118
0.068447
0.191579
0.075646
0.190858
0.268188
0.173818
0.251545
0.139864
0.242066
0.100000
0.100000
0.000000
0.000000
0.000000
0.000000
0.043356
0.052898
0.124773
0.182348
0.071000
0.158933
0.046674
0.022051
0.060735
0.173159
0.116090
0.083602
0.143435
0.085657
0.082725
0.083159
0.192456
0.033270
0.266746
0.157855
0.284100
0.210079
0.100000
0.100000
0.000000
0.000000
0.000000
0.000000
0.065505
0.060737
0.145817
0.077435
0.093758
0.187764
0.074193
0.072921
0.098486
0.127984
0.049122
0.154184
0.217365
0.024530
0.168891
0.162009
0.085808
0.236623
0.241955
0.372456
0.098990
0.192382
0.100000
0.100000
0.000000
0.000000
0.000000
0.000000
0.074696
0.049941
0.039172
0.019275
0.126447
0.016710
0.193068
0.231333
0.239478
0.128995
0.137256
0.075300
0.055796
0.062814
0.037801
0.154616
0.135257
0.099125
0.090747
0.412940
0.250525
0.268037
0.100000
0.100000
0.000000
0.000000
0.000000
0.000000
0.027142
0.023774
0.084443
0.059251
0.128652
0.122904
0.157293
0.157338
0.051914
0.091310
0.070949
0.050326
0.183138
0.127223
0.232746
0.287149
0.243122
0.269471
0.166797
0.151960
0.195497
0.115094
0.100000
0.100000
0.000000
0.000000
0.000000
0.000000
0.054461
0.145705
0.035352
0.098010
0.024799
0.060500
0.189229
0.163392
0.014738
0.086270
0.133108
0.140545
0.131703
0.229811
0.255004
0.279092
0.226293
0.120207
0.459455
0.244928
0.038475
0.403535
0.100000
0.100000
0.000000
0.000000
0.000000
0.000000
0.078409
0.117484
0.021988
0.065531
0.143999
0.202908
0.046598
0.117509
0.255595
0.071080
0.184172
0.100933
0.032337
0.045422
0.185165
0.116212
0.148673
0.231679
0.247758
0.221230
0.350448
0.122208
0.305914
0.100000
0.000000
0.000000
0.000000
0.000000
0.078481
0.143990
0.162040
0.083640
0.180529
0.206617
0.257866
0.140513
0.158541
0.064014
0.149744
0.199039
0.161026
0.155136
0.132373
0.101259
0.077810
0.183333
0.246338
0.060124
0.138569
0.332784
0.372662
0.100000
0.000000
0.000000
0.000000
0.000000
0.059443
0.067431
0.132086
0.156442
0.304504
0.084651
0.167045
0.113478
0.154580
0.106486
0.042433
0.193096
0.183104
0.098306
0.173562
0.166573
0.238812
0.074806
0.246767
0.179969
0.214134
0.126822
0.092802
0.100000
0.000000
0.000000
0.000000
0.000000
0.132023
0.178477
0.097811
0.264199
0.022922
0.271676
0.029361
0.174060
0.155354
0.185006
0.087600
0.212458
0.123074
0.156918
0.261896
0.165321
0.248341
0.082477
0.103061
0.296977
0.129486
0.158737
0.325680
0.100000
0.000000
0.000000
0.000000
0.000000
0.024289
0.103589
0.125202
0.262185
0.124337
0.409599
0.233965
0.138756
0.036351
0.030247
0.119904
0.198531
0.108014
0.136944
0.203940
0.080333
0.251405
0.188739
0.096004
0.291929
0.124738
0.051325
0.145904
0.100000
0.000000
0.000000
0.000000
0.000000
0.025513
0.045199
0.101620
0.132098
0.323106
0.139176
0.039853
0.157353
0.157482
0.083013
0.112673
0.138908
0.137628
0.158407
0.147649
0.199674
0.261022
0.072714
0.183218
0.213341
0.209338
0.131255
0.195781
0.100000
0.000000
0.000000
0.000000
0.000000
0.071309
0.039337
0.180761
0.231158
0.110679
0.161917
0.101665
0.225359
0.048168
0.050163
0.150322
0.076820
0.097386
0.109315
0.148660
0.123936
0.263088
0.113044
0.047632
0.068875
0.090858
0.087313
0.081208
0.100000
0.000000
0.000000
0.000000
0.000000
0.000000
0.000000
0.000000
0.000000
0.000000
0.000000
0.000000
0.000000
0.000000
0.000000
0.000000
0.000000
0.000000
0.000000
0.000000
0.000000
0.000000
0.000000
0.000000
0.000000
0.000000
0.000000
0.000000
0.000000
0.000000
0.000000
0.000000
0.000000
0.000000
0.000000
0.000000
0.000000
0.000000
0.000000
0.000000
0.000000
0.000000
0.000000
0.000000
0.000000
0.000000
0.000000
0.000000
0.000000
0.000000
0.000000
0.000000
0.000000
0.000000
0.000000
0.000000
0.000000
0.000000
0.000000
0.000000
0.000000
0.000000
0.000000
0.000000
0.000000
0.000000
0.000000
0.000000
0.000000
0.000000
0.000000
0.000000
0.000000
0.000000
0.000000
0.000000
0.000000
0.000000
0.000000
0.000000
0.000000
0.000000
0.000000
0.000000
0.000000
0.000000
0.000000
0.000000
0.000000
0.000000
0.000000
0.000000
0.000000
0.000000
0.000000
0.000000
0.000000
0.000000
0.000000
0.000000
0.000000
0.000000
0.000000
0.000000
0.000000
0.000000
0.000000
0.000000
0.000000
0.000000
0.000000
0.000000
0.000000
</DataArray>
<DataArray NumberOfComponents='1' type='Float32' Name='pressure' format='ascii'>
0.000000
0.000000
0.000000
0.000000
0.000000
0.000000
0.000000
0.000000
0.000000
0.000000
0.000000
0.000000
0.000000
0.000000
0.000000
0.000000
0.000000
0.000000
0.000000
0.000000
0.000000
0.000000
0.000000
0.000000
0.000000
0.000000
0.000000
0.000000
0.000000
0.000000
0.000000
0.000000
0.000000
0.000000
0.000000
0.000000
0.000000
0.000000
0.000000
0.000000
0.000000
0.000000
0.000000
0.000000
0.000000
0.000000
0.000000
0.000000
0.000000
0.000000
0.000000
0.000000
0.000000
0.000000
0.000000
0.000000
0.000000
0.000000
23881.427734
24069.416016
24643.806641
25092.337891
24759.291016
24254.562500
23407.544922
22537.015625
22121.396484
21790.212891
22424.740234
22629.884766
22080.218750
21249.876953
21717.751953
21513.408203
22480.677734
22539.958984
22529.232422
22186.603516
22591.054688
22705.402344
23373.802734
21078.871094
16463.441406
0.000000
0.000000
0.000000
23788.976562
23702.257812
24293.621094
24297.248047
24307.041016
24042.048828
23707.875000
22318.142578
22644.492188
22526.683594
22982.437500
22485.458984
22469.054688
21596.132812
22003.371094
21706.412109
21973.568359
22217.259766
22269.859375
22373.853516
22400.623047
22448.490234
24478.251953
22977.492188
22415.447266
0.000000
0.000000
0.000000
23128.984375
23487.658203
24303.728516
23887.824219
23514.384766
23277.564453
23370.546875
23405.597656
22645.453125
21764.152344
22193.785156
22025.113281
22074.128906
22078.753906
22010.113281
21931.720703
21891.843750
22494.376953
22451.578125
22684.878906
24946.714844
24489.269531
31994.773438
18431.408203
18567.847656
0.000000
0.000000
0.000000
24213.685547
24667.343750
24257.830078
24316.175781
24413.910156
23022.380859
23637.490234
22238.302734
22534.478516
22915.546875
22400.712891
22026.898438
22064.890625
21520.531250
22083.957031
21141.107422
22525.910156
21455.601562
22140.294922
23036.693359
23083.314453
24722.306641
29316.376953
22760.400391
24997.328125
15553.345703
0.000000
0.000000
24730.482422
24938.748047
24163.701172
24337.210938
23025.658203
23907.927734
23309.615234
23614.339844
21863.777344
22410.634766
21597.785156
22399.253906
22141.876953
21752.121094
22374.677734
21735.992188
21913.333984
22307.654297
21957.062500
21534.611328
23082.263672
23817.513672
23807.621094
22723.378906
16647.728516
14500.605469
0.000000
0.000000
25126.048828
24949.750000
23845.681641
23760.955078
23673.576172
23383.085938
23505.298828
22993.939453
22595.632812
22563.414062
22752.218750
21732.113281
22044.964844
21404.960938
21802.984375
21238.781250
21622.826172
21139.597656
21511.445312
22504.132812
21743.220703
22295.050781
23271.935547
28108.001953
23700.644531
0.000000
0.000000
0.000000
25287.419922
24794.857422
24258.109375
23725.318359
23836.060547
23152.990234
23313.080078
22549.628906
23277.855469
21833.105469
22202.712891
22052.365234
22118.869141
21656.585938
21692.222656
21154.619141
21943.244141
21537.261719
21292.152344
21411.917969
21403.148438
21430.876953
21690.968750
23586.859375
22700.449219
0.000000
0.000000
0.000000
24547.027344
24456.298828
24150.929688
23838.794922
23937.404297
23307.820312
23413.490234
23181.726562
22419.437500
22632.605469
22337.808594
22145.871094
21528.128906
21619.707031
21314.527344
21633.974609
20999.013672
20827.904297
20984.566406
21160.662109
20898.193359
21023.070312
21044.800781
18682.835938
22546.585938
0.000000
0.000000
0.000000
24807.945312
24164.103516
24095.214844
24124.105469
23568.310547
23359.253906
23248.189453
22770.343750
22798.546875
22270.521484
22585.460938
21666.076172
22294.066406
21360.953125
21777.822266
20897.226562
21465.406250
21142.621094
21323.333984
21225.269531
21176.398438
19400.253906
20041.878906
19846.970703
24421.597656
15215.572266
0.000000
0.000000
24508.851562
24599.607422
24209.509766
23900.595703
23481.072266
23676.277344
23139.330078
23023.392578
22403.281250
22209.324219
21935.285156
21760.187500
21549.697266
21331.054688
21376.876953
21026.128906
20850.740234
20761.865234
20569.105469
20200.064453
20617.626953
19905.701172
18774.984375
18259.617188
27495.230469
20402.962891
0.000000
0.000000
24076.708984
24612.943359
23821.023438
24091.642578
23584.714844
23538.414062
23054.675781
23027.023438
22838.722656
22575.384766
22216.591797
21848.718750
21853.294922
21491.591797
21143.707031
20887.414062
21099.978516
20096.134766
20769.806641
19828.705078
19977.259766
18760.052734
19908.203125
16215.375977
27251.023438
22183.044922
0.000000
0.000000
24276.972656
24008.933594
24086.222656
23614.244141
23304.667969
23359.996094
22902.632812
22750.923828
22178.984375
22119.648438
21999.734375
21483.636719
21341.048828
20828.869141
21024.775391
20265.832031
20753.244141
20649.310547
19864.826172
20259.474609
19128.158203
19760.814453
19463.984375
18111.900391
28366.796875
20310.390625
0.000000
0.000000
23603.779297
24807.332031
23943.943359
23739.976562
23736.593750
23444.025391
22985.677734
22835.044922
22458.794922
22702.404297
21504.304688
22077.587891