<?xml version='1.0' encoding='UTF-8'?>
<VTKFile xmlns='VTK' byte_order='LittleEndian' version='0.1' type='UnstructuredGrid'>
<UnstructuredGrid>
<Piece NumberOfCells='1344' NumberOfPoints='1344'>
<Points>
<DataArray NumberOfComponents='3' type='Float32' Name='Position' format='ascii'>
-0.075000 -0.075000 0.000000
-0.075000 -0.050000 0.000000
-0.075000 -0.025000 0.000000
-0.075000 0.000000 0.000000
-0.075000 0.025000 0.000000
-0.075000 0.050000 0.000000
-0.075000 0.075000 0.000000
-0.075000 0.100000 0.000000
-0.075000 0.125000 0.000000
-0.075000 0.150000 0.000000
-0.075000 0.175000 0.000000
-0.075000 0.200000 0.000000
-0.075000 0.225000 0.000000
-0.075000 0.250000 0.000000
-0.075000 0.275000 0.000000
-0.075000 0.300000 0.000000
-0.075000 0.325000 0.000000
-0.075000 0.350000 0.000000
-0.075000 0.375000 0.000000
-0.075000 0.400000 0.000000
-0.075000 0.425000 0.000000
-0.075000 0.450000 0.000000
-0.075000 0.475000 0.000000
-0.075000 0.500000 0.000000
-0.075000 0.525000 0.000000
-0.075000 0.550000 0.000000
-0.075000 0.575000 0.000000
-0.075000 0.600000 0.000000
-0.050000 -0.075000 0.000000
-0.050000 -0.050000 0.000000
-0.050000 -0.025000 0.000000
-0.050000 0.000000 0.000000
-0.050000 0.025000 0.000000
-0.050000 0.050000 0.000000
-0.050000 0.075000 0.000000
-0.050000 0.100000 0.000000
-0.050000 0.125000 0.000000
-0.050000 0.150000 0.000000
-0.050000 0.175000 0.000000
-0.050000 0.200000 0.000000
-0.050000 0.225000 0.000000
-0.050000 0.250000 0.000000
-0.050000 0.275000 0.000000
-0.050000 0.300000 0.000000
-0.050000 0.325000 0.000000
-0.050000 0.350000 0.000000
-0.050000 0.375000 0.000000
-0.050000 0.400000 0.000000
-0.050000 0.425000 0.000000
-0.050000 0.450000 0.000000
-0.050000 0.475000 0.000000
-0.050000 0.500000 0.000000
-0.050000 0.525000 0.000000
-0.050000 0.550000 0.000000
-0.050000 0.575000 0.000000
-0.050000 0.600000 0.000000
-0.025000 -0.075000 0.000000
-0.025000 -0.050000 0.000000
-0.025000 -0.025000 0.000000
-0.025000 0.000000 0.000000
-0.025000 0.025000 0.000000
-0.025000 0.050000 0.000000
-0.025000 0.075000 0.000000
-0.025000 0.100000 0.000000
-0.025000 0.125000 0.000000
-0.025000 0.150000 0.000000
-0.025000 0.175000 0.000000
-0.025000 0.200000 0.000000
-0.025000 0.225000 0.000000
-0.025000 0.250000 0.000000
-0.025000 0.275000 0.000000
-0.025000 0.300000 0.000000
-0.025000 0.325000 0.000000
-0.025000 0.350000 0.000000
-0.025000 0.375000 0.000000
-0.025000 0.400000 0.000000
-0.025000 0.425000 0.000000
-0.025000 0.450000 0.000000
-0.025000 0.475000 0.000000
-0.025000 0.500000 0.000000
-0.025000 0.525000 0.000000
-0.025000 0.550000 0.000000
-0.025000 0.575000 0.000000
-0.025000 0.600000 0.000000
0.000000 -0.075000 0.000000
0.000000 -0.050000 0.000000
0.000000 -0.025000 0.000000
0.000000 0.000000 0.000000
0.000000 0.025000 0.000000
0.000000 0.050000 0.000000
0.000000 0.075000 0.000000
0.000000 0.100000 0.000000
0.000000 0.125000 0.000000
0.000000 0.150000 0.000000
0.000000 0.175000 0.000000
0.000000 0.200000 0.000000
0.000000 0.225000 0.000000
0.000000 0.250000 0.000000
0.000000 0.275000 0.000000
0.000000 0.300000 0.000000
0.000000 0.325000 0.000000
0.000000 0.350000 0.000000
0.000000 0.375000 0.000000
0.000000 0.400000 0.000000
0.000000 0.425000 0.000000
0.000000 0.450000 0.000000
0.000000 0.475000 0.000000
0.000000 0.500000 0.000000
0.000000 0.525000 0.000000
0.000000 0.550000 0.000000
0.000000 0.575000 0.000000
0.000000 0.600000 0.000000
0.025000 -0.075000 0.000000
0.025000 -0.050000 0.000000
0.025000 -0.025000 0.000000
0.025000 0.000000 0.000000
0.031698 0.021715 0.000000
0.065063 0.023940 0.000000
0.022805 0.041096 0.000000
0.020325 0.114027 0.000000
0.036581 0.197552 0.000000
0.071490 0.261546 0.000000
0.022738 0.218063 0.000000
0.048939 0.253928 0.000000
0.021147 0.267368 0.000000
0.021563 0.309680 0.000000
0.024023 0.377011 0.000000
0.023151 0.412286 0.000000
0.023926 0.440566 0.000000
0.023596 0.467105 0.000000
0.024463 0.494045 0.000000
0.023405 0.522036 0.000000
0.025629 0.546503 0.000000
0.055761 0.556557 0.000000
0.072039 0.577854 0.000000
0.044513 0.578064 0.000000
0.035596 0.600000 0.000000
0.015622 0.600000 0.000000
0.131648 0.600000 0.000000
0.151278 0.600000 0.000000
0.050000 -0.075000 0.000000
0.050000 -0.050000 0.000000
0.050000 -0.025000 0.000000
0.050000 0.000000 0.000000
0.092042 0.024783 0.000000
0.059712 0.043071 0.000000
0.024392 0.070735 0.000000
0.035477 0.092380 0.000000
0.027169 0.150686 0.000000
0.021829 0.178407 0.000000
0.067346 0.233091 0.000000
0.045889 0.277795 0.000000
0.040391 0.297544 0.000000
0.042397 0.326370 0.000000
0.024152 0.341103 0.000000
0.037782 0.394087 0.000000
0.045830 0.429728 0.000000
0.050495 0.453215 0.000000
0.046881 0.479002 0.000000
0.046084 0.507032 0.000000
0.047816 0.532496 0.000000
0.073050 0.515094 0.000000
0.021732 0.571748 0.000000
0.073935 0.600000 0.000000
0.094088 0.600000 0.000000
0.054907 0.600000 0.000000
0.162571 0.577392 0.000000
0.170704 0.600000 0.000000
0.075000 -0.075000 0.000000
0.075000 -0.050000 0.000000
0.075000 -0.025000 0.000000
0.075000 0.000000 0.000000
0.091237 0.047998 0.000000
0.043727 0.060184 0.000000
0.058021 0.083921 0.000000
0.037382 0.130831 0.000000
0.075112 0.208893 0.000000
0.049940 0.220907 0.000000
0.100331 0.216842 0.000000
0.028045 0.242674 0.000000
0.077849 0.284690 0.000000
0.068433 0.303031 0.000000
0.066964 0.328347 0.000000
0.039381 0.357327 0.000000
0.055653 0.377021 0.000000
0.061015 0.412858 0.000000
0.073539 0.432693 0.000000
0.071960 0.465952 0.000000
0.097690 0.512995 0.000000
0.102197 0.536911 0.000000
0.073125 0.538941 0.000000
0.090500 0.558652 0.000000
0.105279 0.579294 0.000000
0.112845 0.600000 0.000000
0.190265 0.600000 0.000000
0.208884 0.600000 0.000000
0.100000 -0.075000 0.000000
0.100000 -0.050000 0.000000
0.100000 -0.025000 0.000000
0.100000 0.000000 0.000000
0.115441 0.049000 0.000000
0.061201 0.130508 0.000000
0.066616 0.165871 0.000000
0.055823 0.108486 0.000000
0.058744 0.189639 0.000000
0.045641 0.163520 0.000000
0.121201 0.243274 0.000000
0.098346 0.238595 0.000000
0.094939 0.263203 0.000000
0.109147 0.304026 0.000000
0.086854 0.320817 0.000000
0.066308 0.354781 0.000000
0.078583 0.396146 0.000000
0.105437 0.388311 0.000000
0.095541 0.418857 0.000000
0.091113 0.450607 0.000000
0.069604 0.489920 0.000000
0.093840 0.482753 0.000000
0.125171 0.528138 0.000000
0.153943 0.530306 0.000000
0.120277 0.554867 0.000000
0.134521 0.576377 0.000000
0.218487 0.578215 0.000000
0.228123 0.600000 0.000000
0.125000 -0.075000 0.000000
0.125000 -0.050000 0.000000
0.125000 -0.025000 0.000000
0.125000 0.000000 0.000000
0.099015 0.078633 0.000000
0.075883 0.066209 0.000000
0.081633 0.143685 0.000000
0.116985 0.199145 0.000000
0.089659 0.191718 0.000000
0.133036 0.216066 0.000000
0.147208 0.232634 0.000000
0.133927 0.260422 0.000000
0.110095 0.279187 0.000000
0.117760 0.322136 0.000000
0.089096 0.347916 0.000000
0.084984 0.376406 0.000000
0.133527 0.394535 0.000000
0.119527 0.412087 0.000000
0.144434 0.430907 0.000000
0.112075 0.434930 0.000000
0.111791 0.463797 0.000000
0.113782 0.497022 0.000000
0.137433 0.506957 0.000000
0.170912 0.552792 0.000000
0.191390 0.576309 0.000000
0.145407 0.551939 0.000000
0.247343 0.576433 0.000000
0.248002 0.600000 0.000000
0.150000 -0.075000 0.000000
0.150000 -0.050000 0.000000
0.150000 -0.025000 0.000000
0.150000 0.000000 0.000000
0.117580 0.024586 0.000000
0.122896 0.082030 0.000000
0.106507 0.104377 0.000000
0.081945 0.095175 0.000000
0.094685 0.166101 0.000000
0.114148 0.173782 0.000000
0.143039 0.186794 0.000000
0.160464 0.250604 0.000000
0.151683 0.282588 0.000000
0.131156 0.289618 0.000000
0.113712 0.344976 0.000000
0.117733 0.367080 0.000000
0.151712 0.372047 0.000000
0.152661 0.406175 0.000000
0.172675 0.424924 0.000000
0.160960 0.449640 0.000000
0.135733 0.452633 0.000000
0.132202 0.477755 0.000000
0.162455 0.505417 0.000000
0.197558 0.511991 0.000000
0.180411 0.528051 0.000000
0.195751 0.552891 0.000000
0.267671 0.600000 0.000000
0.286820 0.600000 0.000000
0.175000 -0.075000 0.000000
0.175000 -0.050000 0.000000
0.175000 -0.025000 0.000000
0.175000 0.000000 0.000000
0.143612 0.024556 0.000000
0.133734 0.059583 0.000000
0.142587 0.097088 0.000000
0.110460 0.140222 0.000000
0.123493 0.118493 0.000000
0.129152 0.150915 0.000000
0.148027 0.166242 0.000000
0.173178 0.147891 0.000000
0.161832 0.199577 0.000000
0.172730 0.219923 0.000000
0.177433 0.275424 0.000000
0.143517 0.322551 0.000000
0.138348 0.357180 0.000000
0.174641 0.398597 0.000000
0.198883 0.410552 0.000000
0.190423 0.440359 0.000000
0.202205 0.465221 0.000000
0.176156 0.466348 0.000000
0.155254 0.482742 0.000000
0.183613 0.490850 0.000000
0.224432 0.512280 0.000000
0.211367 0.537357 0.000000
0.302487 0.576645 0.000000
0.306418 0.600000 0.000000
0.200000 -0.075000 0.000000
0.200000 -0.050000 0.000000
0.200000 -0.025000 0.000000
0.200000 0.000000 0.000000
0.167290 0.024987 0.000000
0.154215 0.048973 0.000000
0.156562 0.079654 0.000000
0.089768 0.122718 0.000000
0.189161 0.127639 0.000000
0.153323 0.137502 0.000000
0.212229 0.127039 0.000000
0.244199 0.133985 0.000000
0.173092 0.176291 0.000000
0.180992 0.246053 0.000000
0.158728 0.304109 0.000000
0.178985 0.317328 0.000000
0.158940 0.337950 0.000000
0.179783 0.345209 0.000000
0.175386 0.374172 0.000000
0.199452 0.384438 0.000000
0.212545 0.434988 0.000000
0.209923 0.490012 0.000000
0.236431 0.487985 0.000000
0.252810 0.509355 0.000000
0.238175 0.531410 0.000000
0.229173 0.555953 0.000000
0.329598 0.577102 0.000000
0.324524 0.600000 0.000000
0.225000 -0.075000 0.000000
0.225000 -0.050000 0.000000
0.225000 -0.025000 0.000000
0.225000 0.000000 0.000000
0.195056 0.024295 0.000000
0.178177 0.048590 0.000000
0.174430 0.095762 0.000000
0.152579 0.117607 0.000000
0.220346 0.066107 0.000000
0.203268 0.081852 0.000000
0.242608 0.166165 0.000000
0.195523 0.153323 0.000000
0.204811 0.172478 0.000000
0.188536 0.195245 0.000000
0.199373 0.271239 0.000000
0.216201 0.299524 0.000000
0.204770 0.322207 0.000000
0.216549 0.341682 0.000000
0.197964 0.360947 0.000000
[...]
<PointData>
<DataArray NumberOfComponents='1' type='Int32' Name='ParticleType' format='ascii'>
3
3
3
3
3
3
3
3
3
3
3
3
3
3
3
3
3
3
3
3
3
3
3
3
3
3
3
3
3
3
3
3
3
3
3
3
3
3
3
3
3
3
3
3
3
3
3
3
3
3
3
3
3
3
3
3
3
3
2
2
2
2
2
2
2
2
2
2
2
2
2
2
2
2
2
2
2
2
2
2
2
2
2
2
3
3
2
2
2
2
2
2
2
2
2
2
2
2
2
2
2
2
2
2
2
2
2
2
2
2
2
2
3
3
2
2
0
0
0
0
0
0
0
0
0
0
0
0
0
0
0
0
0
0
0
0
0
0
0
0
3
3
2
2
0
0
0
0
0
0
0
0
0
0
0
0
0
0
0
0
0
0
0
0
0
0
0
0
3
3
2
2
0
0
0
0
0
0
0
0
0
0
0
0
0
0
0
0
0
0
0
0
0
0
0
0
3
3
2
2
0
0
0
0
0
0
0
0
0
0
0
0
0
0
0
0
0
0
0
0
0
0
0
0
3
3
2
2
0
0
0
0
0
0
0
0
0
0
0
0
0
0
0
0
0
0
0
0
0
0
0
0
3
3
2
2
0
0
0
0
0
0
0
0
0
0
0
0
0
0
0
0
0
0
0
0
0
0
0
0
3
3
2
2
0
0
0
0
0
0
0
0
0
0
0
0
0
0
0
0
0
0
0
0
0
0
0
0
3
3
2
2
0
0
0
0
0
0
0
0
0
0
0
0
0
0
0
0
0
0
0
0
0
0
0
0
3
3
2
2
0
0
0
0
0
0
0
0
0
0
0
0
0
0
0
0
0
0
0
0
0
0
0
0
3
3
2
2
0
0
0
0
0
0
0
0
0
0
0
0
0
0
0
0
0
0
0
0
0
0
0
0
3
3
2
2
0
0
0
0
0
0
0
0
0
0
0
0
0
0
0
0
0
0
0
0
0
0
0
0
3
3
2
2
0
0
0
0
0
0
0
0
0
0
0
0
0
0
0
0
0
0
0
0
0
0
0
0
3
3
2
2
0
0
0
0
0
0
0
0
0
0
0
0
0
0
0
0
0
0
0
0
0
0
0
0
3
3
2
2
0
0
0
0
0
0
0
0
0
0
0
0
0
0
0
0
0
0
0
0
0
0
0
0
3
3
2
2
0
0
0
0
0
0
0
0
0
0
0
0
0
0
0
0
0
0
0
0
0
0
0
0
3
3
2
2
0
0
0
0
0
0
0
0
0
0
0
0
0
0
0
0
0
0
0
0
0
0
0
0
3
3
2
2
0
0
0
0
0
0
0
0
0
0
0
0
0
0
0
0
0
0
0
0
0
0
0
0
3
3
2
2
0
0
0
0
0
0
0
0
0
0
0
0
0
0
0
0
0
0
0
0
0
0
0
0
3
3
2
2
0
0
0
0
0
0
0
0
0
0
0
0
0
0
0
0
0
0
0
0
0
0
0
0
3
3
2
2
0
0
0
0
0
0
0
0
0
0
0
0
0
0
0
0
0
0
0
0
0
0
0
0
3
3
2
2
0
0
0
0
0
0
0
0
0
0
0
0
0
0
0
0
0
0
0
0
0
0
0
0
3
3
2
2
0
0
0
0
0
0
0
0
0
0
0
0
0
0
0
0
0
0
0
0
0
0
0
0
3
3
2
2
0
0
0
0
0
0
0
0
0
0
0
0
0
0
0
0
0
0
0
0
0
0
0
0
3
3
2
2
0
0
0
0
0
0
0
0
0
0
0
0
0
0
0
0
0
0
0
0
0
0
0
0
3
3
2
2
0
0
0
0
0
0
0
0
0
0
0
0
0
0
0
0
0
0
0
0
0
0
0
0
3
3
2
2
0
0
0
0
0
0
0
0
0
0
0
0
0
0
0
0
0
0
0
0
0
0
0
0
3
3
2
2
0
0
0
0
0
0
0
0
0
0
0
0
0
0
0
0
0
0
0
0
0
0
0
0
3
3
2
2
0
0
0
0
0
0
0
0
0
0
0
0
0
0
0
0
0
0
0
0
0
0
0
0
3
3
2
2
0
0
0
0
0
0
0
0
0
0
0
0
0
0
0
0
0
0
0
0
0
0
0
0
3
3
2
2
0
0
0
0
0
0
0
0
0
0
0
0
0
0
0
0
0
0
0
0
0
0
0
0
3
3
2
2
0
0
0
0
0
0
0
0
0
0
0
0
0
0
0
0
0
0
0
0
0
0
0
0
3
3
2
2
0
0
0
0
0
0
0
0
0
0
0
0
0
0
0
0
0
0
0
0
0
0
0
0
3
3
2
2
0
0
0
0
0
0
0
0
0
0
0
0
0
0
0
0
0
0
0
0
0
0
0
0
3
3
2
2
0
0
0
0
0
0
0
0
0
0
0
0
0
0
0
0
0
0
0
0
0
0
0
0
3
3
2
2
0
0
0
0
0
0
0
0
0
0
0
0
0
0
0
0
0
0
0
0
0
0
0
0
3
3
2
2
0
0
0
0
0
0
0
0
0
0
0
0
0
0
0
0
0
0
0
0
0
0
0
0
3
3
2
2
0
0
0
0
0
0
0
0
0
0
0
0
0
0
0
0
0
0
0
0
0
0
0
0
3
3
2
2
0
0
0
0
0
0
0
0
0
0
0
0
0
0
0
0
0
0
0
0
0
0
0
0
3
3
2
2
0
0
0
0
0
0
0
0
0
0
0
0
0
0
0
0
0
0
0
0
0
0
0
0
3
3
2
2
0
0
0
0
0
0
0
0
0
0
0
0
0
0
0
0
0
0
0
0
0
0
0
0
3
3
2
2
2
2
2
2
2
2
2
2
2
2
2
2
2
2
2
2
2
2
2
2
2
2
2
2
3
3
2
2
2
2
2
2
2
2
2
2
2
2
2
2
2
2
2
2
2
2
2
2
2
2
2
2
3
3
3
3
3
3
3
3
3
3
3
3
3
3
3
3
3
3
3
3
3
3
3
3
3
3
3
3
3
3
3
3
3
3
3
3
3
3
3
3
3
3
3
3
3
3
3
3
3
3
3
3
3
3
3
3
</DataArray>
<DataArray NumberOfComponents='1' type='Float32' Name='Velocity' format='ascii'>
0.000000
0.000000
0.000000
0.000000
0.000000
0.000000
0.000000
0.000000
0.000000
0.000000
0.000000
0.000000
0.000000
0.000000
0.000000
0.000000
0.000000
0.000000
0.000000
0.000000
0.000000
0.000000
0.000000
0.000000
0.000000
0.000000
0.000000
0.000000
0.000000
0.000000
0.000000
0.000000
0.000000
0.000000
0.000000
0.000000
0.000000
0.000000
0.000000
0.000000
0.000000
0.000000
0.000000
0.000000
0.000000
0.000000
0.000000
0.000000
0.000000
0.000000
0.000000
0.000000
0.000000
0.000000
0.000000
0.000000
0.000000
0.000000
0.000000
0.000000
0.000000
0.000000
0.000000
0.000000
0.000000
0.000000
0.000000
0.000000
0.000000
0.000000
0.000000
0.000000
0.000000
0.000000
0.000000
0.000000
0.000000
0.000000
0.000000
0.000000
0.000000
0.000000
0.000000
0.000000
0.000000
0.000000
0.000000
0.000000
0.000000
0.000000
0.000000
0.000000
0.000000
0.000000
0.000000
0.000000
0.000000
0.000000
0.000000
0.000000
0.000000
0.000000
0.000000
0.000000
0.000000
0.000000
0.000000
0.000000
0.000000
0.000000
0.000000
0.000000
0.000000
0.000000
0.000000
0.000000
0.049739
0.138991
0.100584
0.225726
0.123202
0.514146
0.184452
0.097158
0.044521
0.047165
0.096378
0.112665
0.219081
0.174377
0.361400
0.125491
0.343711
0.384392
0.100000
0.100000
0.100000
0.100000
0.100000
0.100000
0.000000
0.000000
0.000000
0.000000
0.195773
0.212828
0.161763
0.035231
0.144390
0.122214
0.120634
0.075452
0.075985
0.175771
0.047800
0.127421
0.226167
0.185289
0.324991
0.372218
0.072987
0.300125
0.482518
0.100000
0.100000
0.100000
0.100000
0.100000
0.000000
0.000000
0.000000
0.000000
0.026941
0.166818
0.044578
0.310313
0.210328
0.350626
0.232850
0.088656
0.089416
0.238505
0.200922
0.191378
0.433369
0.066976
0.483895
0.439133
0.226832
0.225672
0.237829
0.069861
0.100000
0.100000
0.100000
0.100000
0.000000
0.000000
0.000000
0.000000
0.276180
0.196747
0.202302
0.179528
0.247820
0.030424
0.205606
0.195309
0.115587
0.084679
0.395915
0.260461
0.318548
0.399334
0.365484
0.111745
0.103555
0.377488
0.171344
0.226494
0.182697
0.100000
0.100000
0.100000
0.000000
0.000000
0.000000
0.000000
0.256947
0.191136
0.145478
0.181299
0.102670
0.164384
0.188433
0.524760
0.196206
0.088778
0.587404
0.415865
0.591787
0.435779
0.112270
0.245485
0.247677
0.156261
0.192626
0.079622
0.100000
0.116474
0.100000
0.100000
0.000000
0.000000
0.000000
0.000000
0.267709
0.039767
0.128324
0.318470
0.140475
0.053089
0.257177
0.303778
0.035970
0.301473
0.154767
0.140644
0.039590
0.236814
0.031666
0.177353
0.255609
0.226605
0.266115
0.152078
0.192279
0.153356
0.100000
0.100000
0.000000
0.000000
0.000000
0.000000
0.165882
0.245008
0.213005
0.225635
0.065845
0.163447
0.126711
0.087366
0.058470
0.339003
0.064106
0.191977
0.425450
0.293969
0.180030
0.200223
0.193820
0.142652
0.078549
0.200078
0.357259
0.041756
0.100000
0.100000
0.000000
0.000000
0.000000
0.000000
0.122336
0.158832
0.147935
0.109421
0.106764
0.079486
0.248110
0.176581
0.145401
0.055729
0.149524
0.145716
0.426632
0.130491
0.223405
0.009961
0.325793
0.034134
0.037356
0.167226
0.068833
0.044544
0.100000
0.100000
0.000000
0.000000
0.000000
0.000000
0.095972
0.128677
0.201739
0.035038
0.097127
0.218548
0.068426
0.193417
0.124228
0.010317
0.449306
0.092324
0.384779
0.043054
0.273269
0.131613
0.062303
0.103949
0.149426
0.180193
0.137247
0.089717
0.100000
0.100000
0.000000
0.000000
0.000000
0.000000
0.064284
0.168591
0.164056
0.220811
0.225253
0.068502
0.135784
0.416903
0.050686
0.186054
0.076645
0.418979
0.048206
0.181532
0.338130
0.169752
0.058269
0.209965
0.170139
0.069780
0.062217
0.267196
0.100000
0.100000
0.000000
0.000000
0.000000
0.000000
0.051603
0.241499
0.204447
0.217524
0.217024
0.241911
0.034903
0.245074
0.160642
0.355289
0.120559
0.185637
0.083754
0.054468
0.131219
0.215627
0.227415
0.049573
0.058969
0.198872
0.240261
0.100000
0.100000
0.100000
0.000000
0.000000
0.000000
0.000000
0.066959
0.209646
0.102351
0.101447
0.101121
0.103735
0.146454
0.085824
0.171849
0.196313
0.097118
0.270942
0.165770
0.077617
0.177566
0.172078
0.132493
0.154529
0.277229
0.174330
0.453500
0.425710
0.100000
0.100000
0.000000
0.000000
0.000000
0.000000
0.020306
0.128118
0.174627
0.124365
0.268619
0.274980
0.248462
0.222625
0.040483
0.240901
0.097251
0.054678
0.160108
0.310142
0.134320
0.099741
0.133183
0.189207
0.116559
0.129878
0.307643
0.163576
0.100000
0.100000
0.000000
0.000000
0.000000
0.000000
0.094109
0.082058
0.209285
0.081170
0.166647
0.339929
0.116825
0.256059
0.195438
0.101627
0.057466
0.086241
0.170407
0.252741
0.134809
0.215902
0.096235
0.262396
0.036303
0.132407
0.185344
0.094906
0.100000
0.100000
0.000000
0.000000
0.000000
0.000000
0.185113
0.150087
0.133068
0.062655
0.307334
0.241612
0.037345
0.059209
0.099727
0.070606
0.152996
0.083634
0.170730
0.013396
0.350908
0.121517
0.215228
0.158947
0.115911
0.073649
0.176589
0.197653
0.100000
0.100000
0.000000
0.000000
0.000000
0.000000
0.088792
0.095535
0.119762
0.116912
0.141311
0.094434
0.070795
0.114262
0.028849
0.283133
0.192248
0.083739
0.180978
0.353219
0.140320
0.203943
0.360772
0.123425
0.111966
0.059373
0.207517
0.193040
0.100000
0.100000
0.000000
0.000000
0.000000
0.000000
0.085708
0.074229
0.106026
0.178907
0.177334
0.082645
0.091191
0.127852
0.173236
0.328699
0.127724
0.314866
0.081902
0.220340
0.233799
0.241775
0.095343
0.098253
0.227868
0.177839
0.067471
0.100000
0.100000
0.100000
0.000000
0.000000
0.000000
0.000000
0.077328
0.130823
0.073334
0.028913
0.234016
0.182742
0.165417
0.120437
0.263444
0.206560
0.083590
0.111853
0.060644
0.301804
0.103172
0.186715
0.243583
0.093205
0.274108
0.360914
0.083219
0.077547
0.122638
0.100000
0.000000
0.000000
0.000000
0.000000
0.174400
0.040434
0.054755
0.056838
0.099403
0.146694
0.043852
0.185126
0.133984
0.098016
0.171611
0.055088
0.280324
0.104939
0.173126
0.219921
0.311195
0.188214
0.151227
0.107344
0.375044
0.111846
0.100000
0.100000
0.000000
0.000000
0.000000
0.000000
0.037539
0.099285
0.049435
0.122240
0.332210
0.157958
0.205265
0.126438
0.118418
0.138866
0.090238
0.103043
0.171763
0.098548
0.187401
0.133985
0.042736
0.169194
0.124497
0.141106
0.009017
0.100000
0.100000
0.100000
0.000000
0.000000
0.000000
0.000000
0.174860
0.079178
0.087120
0.313251
0.161658
0.124324
0.114841
0.275404
0.035289
0.150384
0.108001
0.239444
0.071166
0.181405
0.199960
0.158243
0.327310
0.142524
0.170946
0.290449
0.111356
0.151076
0.100000
0.100000
0.000000
0.000000
0.000000
0.000000
0.109540
0.144628
0.081863
0.012667
0.044875
0.292880
0.048454
0.123672
0.103576
0.141392
0.203858
0.176711
0.149474
0.019553
0.052755
0.026254
0.020977
0.231807
0.220907
0.157350
0.181029
0.137848
0.318293
0.100000
0.000000
0.000000
0.000000
0.000000
0.083804
0.089897
0.075515
0.207924
0.051649
0.209915
0.106627
0.163445
0.064573
0.065540
0.214775
0.121547
0.122045
0.119558
0.216428
0.058146
0.180290
0.118727
0.361074
0.099685
0.128982
0.029308
0.065312
0.100000
0.000000
0.000000
0.000000
0.000000
0.038976
0.197627
0.155344
0.131224
0.213092
0.100060
0.186816
0.154581
0.051928
0.095059
0.037344
0.165318
0.064396
0.066174
0.256013
0.115694
0.082013
0.079154
0.082948
0.221754
0.128599
0.084742
0.295193
0.100000
0.000000
0.000000
0.000000
0.000000
0.117127
0.068779
0.138947
0.019174
0.191966
0.335308
0.082776
0.147964
0.015543
0.151912
0.058234
0.141278
0.101891
0.210784
0.056431
0.195747
0.158065
0.171604
0.140128
0.196862
0.185446
0.089053
0.595987
0.100000
0.000000
0.000000
0.000000
0.000000
0.117151
0.234836
0.043401
0.099107
0.111384
0.045713
0.038876
0.116383
0.160853
0.213027
0.198443
0.219362
0.022948
0.075505
0.289837
0.128501
0.072695
0.036750
0.006938
0.146898
0.092058
0.202433
0.100000
0.100000
0.000000
0.000000
0.000000
0.000000
0.137564
0.041245
0.155393
0.040362
0.090663
0.150950
0.090789
0.265111
0.120545
0.217277
0.326062
0.121487
0.105176
0.120347
0.046906
0.303500
0.413080
0.171903
0.089202
0.027852
0.117259
0.295968
0.149615
0.100000
0.000000
0.000000
0.000000
0.000000
0.088526
0.095481
0.065984
0.048164
0.091278
0.175117
0.064795
0.106927
0.108222
0.087941
0.312542
0.148016
0.238198
0.047210
0.087259
0.066530
0.121806
0.185792
0.171577
0.079755
0.237038
0.190097
0.319050
0.100000
0.000000
0.000000
0.000000
0.000000
0.172482
0.193821
0.096169
0.214225
0.063562
0.048339
0.081173
0.052789
0.136552
0.003916
0.112318
0.149460
0.173498
0.226211
0.135403
0.268946
0.239738
0.082260
0.076445
0.092669
0.356036
0.198041
0.100000
0.100000
0.000000
0.000000
0.000000
0.000000
0.070031
0.088548
0.011454
0.052463
0.092193
0.142637
0.090114
0.152810
0.203793
0.158585
0.261200
0.063168
0.187863
0.242418
0.188331
0.252161
0.168103
0.108493
0.043580
0.141993
0.126978
0.094594
0.251010
0.100000
0.000000
0.000000
0.000000
0.000000
0.153994
0.307684
0.051326
0.142034
0.170629
0.110320
0.074802
0.220077
0.022405
0.231571
0.211535
0.068963
0.060234
0.018272
0.051862
0.263293
0.325377
0.092833
0.178616
0.166059
0.094950
0.076627
0.205719
0.100000
0.000000
0.000000
0.000000
0.000000
0.121364
0.307614
0.275387
0.094471
0.173998
0.143512
0.302414
0.062908
0.070389
0.217090
0.104500
0.087688
0.101189
0.269767
0.296001
0.148499
0.125259
0.096553
0.261223
0.156796
0.299831
0.362613
0.132745
0.100000
0.000000
0.000000
0.000000
0.000000
0.253210
0.071320
0.198310
0.178966
0.165876
0.083779
0.272877
0.192824
0.113258
0.202922
0.030199
0.111481
0.158417
0.141622
0.109378
0.007303
0.223020
0.181660
0.034474
0.206144
0.241959
0.163964
0.173086
0.100000
0.000000
0.000000
0.000000
0.000000
0.170482
0.102669
0.092134
0.169041
0.143684
0.335410
0.055296
0.068961
0.174682
0.378394
0.095472
0.101871
0.054293
0.190752
0.048058
0.287127
0.059194
0.059756
0.136872
0.234331
0.320141
0.270859
0.080703
0.100000
0.000000
0.000000
0.000000
0.000000
0.167494
0.197383
0.174524
0.316459
0.187458
0.290695
0.396408
0.298987
0.395829
0.063575
0.234862
0.091420
0.235128
0.213853
0.099642
0.205231
0.106404
0.166712
0.229369
0.122265
0.275996
0.189006
0.114216
0.100000
0.000000
0.000000
0.000000
0.000000
0.055498
0.134637
0.045740
0.159805
0.152032
0.169188
0.229473
0.122460
0.196353
0.178663
0.149647
0.225779
0.032944
0.011105
0.094823
0.187058
0.228594
0.193183
0.110674
0.190916
0.171893
0.093786
0.830981
0.100000
0.000000
0.000000
0.000000
0.000000
0.027000
0.173544
0.208116
0.143255
0.126584
0.286325
0.078868
0.162313
0.272029
0.093316
0.087220
0.346578
0.201064
0.138340
0.271335
0.131246
0.110938
0.115653
0.026498
0.027868
0.144437
0.110022
0.334047
0.100000
0.000000
0.000000
0.000000
0.000000
0.101164
0.083695
0.230272
0.220678
0.150991
0.242070
0.144808
0.062965
0.121842
0.165928
0.074615
0.079506
0.251389
0.184400
0.250785
0.014207
0.152687
0.234120
0.194025
0.237732
0.138851
0.075548
0.344175
0.100000
0.000000
0.000000
0.000000
0.000000
0.107353
0.200345
0.116703
0.252211
0.156236
0.067469
0.083998
0.110693
0.086845
0.015180
0.030820
0.118654
0.212628
0.187497
0.168476
0.116886
0.026818
0.054674
0.247664
0.113387
0.088706
0.199350
0.035876
0.100000
0.000000
0.000000
0.000000
0.000000
0.188765
0.082269
0.036622
0.107185
0.182539
0.105506
0.305278
0.044116
0.288752
0.032956
0.169032
0.155238
0.228209
0.158287
0.142271
0.135789
0.086412
0.328724
0.170006
0.183897
0.085387
0.176285
0.429373
0.100000
0.000000
0.000000
0.000000
0.000000
0.000000
0.000000
0.000000
0.000000
0.000000
0.000000
0.000000
0.000000
0.000000
0.000000
0.000000
0.000000
0.000000
0.000000
0.000000
0.000000
0.000000
0.000000
0.000000
0.000000
0.000000
0.000000
0.000000
0.000000
0.000000
0.000000
0.000000
0.000000
0.000000
0.000000
0.000000
0.000000
0.000000
0.000000
0.000000
0.000000
0.000000
0.000000
0.000000
0.000000
0.000000
0.000000
0.000000
0.000000
0.000000
0.000000
0.000000
0.000000
0.000000
0.000000
0.000000
0.000000
0.000000
0.000000
0.000000
0.000000
0.000000
0.000000
0.000000
0.000000
0.000000
0.000000
0.000000
0.000000
0.000000
0.000000
0.000000
0.000000
0.000000
0.000000
0.000000
0.000000
0.000000
0.000000
0.000000
0.000000
0.000000
0.000000
0.000000
0.000000
0.000000
0.000000
0.000000
0.000000
0.000000
0.000000
0.000000
0.000000
0.000000
0.000000
0.000000
0.000000
0.000000
0.000000
0.000000
0.000000
0.000000
0.000000
0.000000
0.000000
0.000000
0.000000
0.000000
0.000000
0.000000
0.000000
0.000000
0.000000
</DataArray>
<DataArray NumberOfComponents='1' type='Float32' Name='pressure' format='ascii'>
0.000000
0.000000
0.000000
0.000000
0.000000
0.000000
0.000000
0.000000
0.000000
0.000000
0.000000
0.000000
0.000000
0.000000
0.000000
0.000000
0.000000
0.000000
0.000000
0.000000
0.000000
0.000000
0.000000
0.000000
0.000000
0.000000
0.000000
0.000000
0.000000
0.000000
0.000000
0.000000
0.000000
0.000000
0.000000
0.000000
0.000000
0.000000
0.000000
0.000000
0.000000
0.000000
0.000000
0.000000
0.000000
0.000000
0.000000
0.000000
0.000000
0.000000
0.000000
0.000000
0.000000
0.000000
0.000000
0.000000
0.000000
0.000000
54322.742188
54168.019531
53884.621094
54437.738281
54097.378906
54781.773438
54896.941406
52730.878906
54081.082031
52683.156250
53121.585938
52682.554688
53293.628906
52521.035156
51628.109375
50477.179688
50411.878906
50195.210938
50735.460938
50869.222656
50748.308594
50237.593750
49917.289062
46778.777344
42899.820312
0.000000
0.000000
0.000000
54489.281250
54247.953125
52998.347656
54628.562500
53108.718750
52753.644531
53927.507812
52066.390625
54072.421875
50975.523438
52285.148438
52340.871094
51857.621094
50599.960938
50977.355469
49309.871094
49601.144531
49361.683594
50262.687500
50739.417969
50827.367188
50497.457031
51501.980469
49165.878906
53759.257812
40440.074219
0.000000
0.000000
55526.281250
55173.730469
54052.835938
54268.039062
53945.648438
54450.761719
53613.964844
52319.457031
52004.429688
52647.222656
50443.488281
51027.953125
49562.500000
49169.664062
50012.550781
49655.117188
48690.777344
49397.203125
47449.097656
43695.117188
40362.117188
47116.613281
32903.214844
46448.507812
35947.496094
45685.691406
0.000000
0.000000
54766.902344
53319.699219
54604.042969
53553.722656
53221.492188
53356.761719
52388.972656
52408.691406
52219.148438
51876.441406
51524.804688
49181.328125
50870.796875
50215.648438
51338.320312
50070.179688
49307.570312
48245.687500
46890.875000
47657.136719
52719.722656
27655.246094
25771.359375
0.000000
59896.000000
54162.144531
0.000000
0.000000
54312.058594
54070.507812
54268.335938
53883.695312
54642.531250
53534.878906
53134.500000
51740.992188
52728.218750
52486.398438
50942.835938
50615.226562
52260.261719
50528.875000
48940.878906
50416.886719
49556.531250
49940.621094
48737.785156
46831.433594
44645.695312
41133.312500
40579.152344
0.000000
64702.667969
69630.078125
0.000000
0.000000
54116.714844
54456.343750
53780.335938
53278.621094
52690.386719
52682.410156
52919.878906
52922.750000
52744.777344
52465.652344
53117.496094
51492.808594
50713.636719
50341.277344
51046.101562
50065.582031
51245.328125
51255.480469
50582.789062
48711.828125
48429.488281
53970.230469
45081.101562
49544.277344
74468.359375
67075.453125
0.000000
0.000000
54190.089844
54458.726562
53720.593750
53227.800781
53458.281250
53660.207031
52272.503906
52024.937500
52810.589844
51780.378906
52751.515625
51287.320312
49833.574219
50927.980469
51647.390625
51628.785156
51989.171875
51719.406250
51049.199219
50929.390625
51803.414062
57602.460938
70199.773438
52033.644531
71222.398438
63435.585938
0.000000
0.000000
54175.304688
54808.398438
53689.730469
53596.164062
53795.343750
53255.082031
53310.640625
52709.070312
53081.109375
53479.644531
52501.550781
52212.371094
51797.269531
50793.464844
51693.785156
52076.925781
53027.308594
52892.046875
51507.304688
52599.351562
55334.687500
58274.968750
56757.558594
63701.535156
62070.496094
59208.128906
0.000000
0.000000
53864.710938
53454.058594
53945.882812
54007.523438
53767.703125
53252.300781
52649.453125
53015.367188
53164.707031
53057.121094
53038.589844
52749.843750
52112.863281
50586.031250
52517.304688
53399.324219
53434.902344
53974.957031
54839.226562
54958.011719
52365.714844
54670.910156
59036.582031
62295.558594
60802.558594
49008.742188
0.000000
0.000000
54201.183594
54131.488281
54407.847656
53368.769531
53591.621094
53255.968750
52926.269531
53724.859375
53213.527344
52145.925781
52532.859375
52152.656250
52496.949219
53295.550781
51397.164062
51413.335938
52989.750000
53163.011719
54016.132812
56449.203125
56489.015625
56981.664062
61229.578125
65046.027344
53499.996094
0.000000
0.000000
0.000000
54217.964844
54608.011719
53224.054688
53586.703125
52847.449219
53305.546875
53417.964844
53523.351562
53819.285156
53531.230469
52452.746094
53290.679688
52269.785156
53403.453125
52618.078125
53438.582031
53445.750000
53392.773438
55169.925781
55245.386719
56423.367188
56201.726562
56681.859375
62389.980469
55386.660156
40174.050781
0.000000
0.000000
54208.828125
54147.234375
53627.968750
53569.347656
53801.121094
53570.949219
52796.980469
53055.570312
51376.890625
52470.242188
52793.292969
52523.382812
53332.390625
52390.871094
51774.042969
51488.605469
53490.429688
54201.648438
54967.984375
54886.156250
54743.589844
55709.535156
55922.445312
59537.765625
49493.625000
45921.902344
0.000000
0.000000
54410.187500
54893.125000
52144.714844
53961.656250
53876.597656
53439.695312
52610.859375
53456.367188
52936.886719
53450.500000
52422.820312