<?xml version='1.0' encoding='UTF-8'?>
<VTKFile xmlns='VTK' byte_order='LittleEndian' version='0.1' type='UnstructuredGrid'>
<UnstructuredGrid>
<Piece NumberOfCells='1344' NumberOfPoints='1344'>
<Points>
<DataArray NumberOfComponents='3' type='Float32' Name='Position' format='ascii'>
-0.075000 -0.075000 0.000000
-0.075000 -0.050000 0.000000
-0.075000 -0.025000 0.000000
-0.075000 0.000000 0.000000
-0.075000 0.025000 0.000000
-0.075000 0.050000 0.000000
-0.075000 0.075000 0.000000
-0.075000 0.100000 0.000000
-0.075000 0.125000 0.000000
-0.075000 0.150000 0.000000
-0.075000 0.175000 0.000000
-0.075000 0.200000 0.000000
-0.075000 0.225000 0.000000
-0.075000 0.250000 0.000000
-0.075000 0.275000 0.000000
-0.075000 0.300000 0.000000
-0.075000 0.325000 0.000000
-0.075000 0.350000 0.000000
-0.075000 0.375000 0.000000
-0.075000 0.400000 0.000000
-0.075000 0.425000 0.000000
-0.075000 0.450000 0.000000
-0.075000 0.475000 0.000000
-0.075000 0.500000 0.000000
-0.075000 0.525000 0.000000
-0.075000 0.550000 0.000000
-0.075000 0.575000 0.000000
-0.075000 0.600000 0.000000
-0.050000 -0.075000 0.000000
-0.050000 -0.050000 0.000000
-0.050000 -0.025000 0.000000
-0.050000 0.000000 0.000000
-0.050000 0.025000 0.000000
-0.050000 0.050000 0.000000
-0.050000 0.075000 0.000000
-0.050000 0.100000 0.000000
-0.050000 0.125000 0.000000
-0.050000 0.150000 0.000000
-0.050000 0.175000 0.000000
-0.050000 0.200000 0.000000
-0.050000 0.225000 0.000000
-0.050000 0.250000 0.000000
-0.050000 0.275000 0.000000
-0.050000 0.300000 0.000000
-0.050000 0.325000 0.000000
-0.050000 0.350000 0.000000
-0.050000 0.375000 0.000000
-0.050000 0.400000 0.000000
-0.050000 0.425000 0.000000
-0.050000 0.450000 0.000000
-0.050000 0.475000 0.000000
-0.050000 0.500000 0.000000
-0.050000 0.525000 0.000000
-0.050000 0.550000 0.000000
-0.050000 0.575000 0.000000
-0.050000 0.600000 0.000000
-0.025000 -0.075000 0.000000
-0.025000 -0.050000 0.000000
-0.025000 -0.025000 0.000000
-0.025000 0.000000 0.000000
-0.025000 0.025000 0.000000
-0.025000 0.050000 0.000000
-0.025000 0.075000 0.000000
-0.025000 0.100000 0.000000
-0.025000 0.125000 0.000000
-0.025000 0.150000 0.000000
-0.025000 0.175000 0.000000
-0.025000 0.200000 0.000000
-0.025000 0.225000 0.000000
-0.025000 0.250000 0.000000
-0.025000 0.275000 0.000000
-0.025000 0.300000 0.000000
-0.025000 0.325000 0.000000
-0.025000 0.350000 0.000000
-0.025000 0.375000 0.000000
-0.025000 0.400000 0.000000
-0.025000 0.425000 0.000000
-0.025000 0.450000 0.000000
-0.025000 0.475000 0.000000
-0.025000 0.500000 0.000000
-0.025000 0.525000 0.000000
-0.025000 0.550000 0.000000
-0.025000 0.575000 0.000000
-0.025000 0.600000 0.000000
0.000000 -0.075000 0.000000
0.000000 -0.050000 0.000000
0.000000 -0.025000 0.000000
0.000000 0.000000 0.000000
0.000000 0.025000 0.000000
0.000000 0.050000 0.000000
0.000000 0.075000 0.000000
0.000000 0.100000 0.000000
0.000000 0.125000 0.000000
0.000000 0.150000 0.000000
0.000000 0.175000 0.000000
0.000000 0.200000 0.000000
0.000000 0.225000 0.000000
0.000000 0.250000 0.000000
0.000000 0.275000 0.000000
0.000000 0.300000 0.000000
0.000000 0.325000 0.000000
0.000000 0.350000 0.000000
0.000000 0.375000 0.000000
0.000000 0.400000 0.000000
0.000000 0.425000 0.000000
0.000000 0.450000 0.000000
0.000000 0.475000 0.000000
0.000000 0.500000 0.000000
0.000000 0.525000 0.000000
0.000000 0.550000 0.000000
0.000000 0.575000 0.000000
0.000000 0.600000 0.000000
0.025000 -0.075000 0.000000
0.025000 -0.050000 0.000000
0.025000 -0.025000 0.000000
0.025000 0.000000 0.000000
0.024843 0.024959 0.000000
0.025072 0.050155 0.000000
0.024913 0.075140 0.000000
0.025027 0.100247 0.000000
0.024922 0.125365 0.000000
0.025011 0.150426 0.000000
0.024925 0.175608 0.000000
0.024978 0.200671 0.000000
0.024927 0.225929 0.000000
0.024958 0.250984 0.000000
0.024897 0.276342 0.000000
0.024923 0.301414 0.000000
0.024895 0.326900 0.000000
0.024907 0.351985 0.000000
0.024738 0.377646 0.000000
0.025013 0.402894 0.000000
0.024652 0.428563 0.000000
0.024793 0.454032 0.000000
0.024884 0.479874 0.000000
0.024468 0.505205 0.000000
0.024027 0.532152 0.000000
0.021588 0.563091 0.000000
0.041737 0.575726 0.000000
0.041946 0.600000 0.000000
0.050000 -0.075000 0.000000
0.050000 -0.050000 0.000000
0.050000 -0.025000 0.000000
0.050000 0.000000 0.000000
0.049809 0.024977 0.000000
0.049927 0.050048 0.000000
0.049851 0.075124 0.000000
0.049906 0.100131 0.000000
0.049790 0.125218 0.000000
0.049885 0.150236 0.000000
0.049752 0.175316 0.000000
0.049825 0.200332 0.000000
0.049712 0.225419 0.000000
0.049733 0.250408 0.000000
0.049651 0.275542 0.000000
0.049616 0.300444 0.000000
0.049503 0.325614 0.000000
0.049438 0.350538 0.000000
0.049272 0.375734 0.000000
0.049144 0.400535 0.000000
0.048955 0.426033 0.000000
0.048910 0.450970 0.000000
0.048606 0.476161 0.000000
0.048795 0.501857 0.000000
0.048818 0.526932 0.000000
0.043645 0.549929 0.000000
0.066945 0.575555 0.000000
0.066968 0.600000 0.000000
0.075000 -0.075000 0.000000
0.075000 -0.050000 0.000000
0.075000 -0.025000 0.000000
0.075000 0.000000 0.000000
0.074712 0.024976 0.000000
0.074922 0.050140 0.000000
0.074832 0.075147 0.000000
0.074861 0.100224 0.000000
0.074815 0.125300 0.000000
0.074849 0.150374 0.000000
0.074781 0.175432 0.000000
0.074824 0.200547 0.000000
0.074760 0.225592 0.000000
0.074778 0.250721 0.000000
0.074750 0.275762 0.000000
0.074707 0.300911 0.000000
0.074748 0.325971 0.000000
0.074595 0.351081 0.000000
0.074649 0.376064 0.000000
0.074458 0.401313 0.000000
0.074438 0.426076 0.000000
0.074046 0.451021 0.000000
0.074392 0.476571 0.000000
0.073279 0.500491 0.000000
0.074161 0.527037 0.000000
0.071624 0.550485 0.000000
0.092054 0.575547 0.000000
0.092025 0.600000 0.000000
0.100000 -0.075000 0.000000
0.100000 -0.050000 0.000000
0.100000 -0.025000 0.000000
0.100000 0.000000 0.000000
0.099651 0.024980 0.000000
0.099808 0.050032 0.000000
0.099767 0.075081 0.000000
0.099771 0.100127 0.000000
0.099704 0.125168 0.000000
0.099735 0.150253 0.000000
0.099667 0.175260 0.000000
0.099670 0.200389 0.000000
0.099625 0.225328 0.000000
0.099582 0.250516 0.000000
0.099563 0.275409 0.000000
0.099459 0.300625 0.000000
0.099435 0.325487 0.000000
0.099314 0.350732 0.000000
0.099224 0.375734 0.000000
0.099139 0.400684 0.000000
0.099057 0.426039 0.000000
0.098651 0.451069 0.000000
0.099204 0.475899 0.000000
0.097841 0.501376 0.000000
0.100023 0.526281 0.000000
0.095510 0.549897 0.000000
0.117035 0.575575 0.000000
0.117002 0.600000 0.000000
0.125000 -0.075000 0.000000
0.125000 -0.050000 0.000000
0.125000 -0.025000 0.000000
0.125000 0.000000 0.000000
0.124598 0.025011 0.000000
0.124823 0.050102 0.000000
0.124741 0.075173 0.000000
0.124713 0.100211 0.000000
0.124702 0.125295 0.000000
0.124695 0.150379 0.000000
0.124654 0.175381 0.000000
0.124677 0.200549 0.000000
0.124622 0.225496 0.000000
0.124646 0.250705 0.000000
0.124567 0.275646 0.000000
0.124633 0.300833 0.000000
0.124458 0.325887 0.000000
0.124586 0.350889 0.000000
0.124320 0.376007 0.000000
0.124364 0.401083 0.000000
0.124180 0.426061 0.000000
0.123902 0.450827 0.000000
0.124185 0.476564 0.000000
0.122975 0.500555 0.000000
0.124677 0.526603 0.000000
0.122278 0.551169 0.000000
0.141992 0.575586 0.000000
0.142003 0.600000 0.000000
0.150000 -0.075000 0.000000
0.150000 -0.050000 0.000000
0.150000 -0.025000 0.000000
0.150000 0.000000 0.000000
0.149490 0.024930 0.000000
0.149711 0.050102 0.000000
0.149652 0.075095 0.000000
0.149645 0.100186 0.000000
0.149625 0.125185 0.000000
0.149594 0.150266 0.000000
0.149590 0.175259 0.000000
0.149548 0.200373 0.000000
0.149517 0.225338 0.000000
0.149493 0.250454 0.000000
0.149410 0.275473 0.000000
0.149374 0.300523 0.000000
0.149331 0.325586 0.000000
0.149148 0.350669 0.000000
0.149284 0.375802 0.000000
0.148882 0.400634 0.000000
0.149252 0.426124 0.000000
0.148371 0.450867 0.000000
0.149557 0.475923 0.000000
0.147531 0.501034 0.000000
0.150058 0.525877 0.000000
0.146773 0.550126 0.000000
0.167029 0.575606 0.000000
0.167004 0.600000 0.000000
0.175000 -0.075000 0.000000
0.175000 -0.050000 0.000000
0.175000 -0.025000 0.000000
0.175000 0.000000 0.000000
0.174460 0.024981 0.000000
0.174667 0.050082 0.000000
0.174642 0.075113 0.000000
0.174613 0.100172 0.000000
0.174591 0.125214 0.000000
0.174589 0.150327 0.000000
0.174538 0.175341 0.000000
0.174550 0.200478 0.000000
0.174506 0.225512 0.000000
0.174483 0.250640 0.000000
0.174503 0.275643 0.000000
0.174355 0.300800 0.000000
0.174501 0.325762 0.000000
0.174190 0.350854 0.000000
0.174433 0.375851 0.000000
0.173917 0.400972 0.000000
0.174365 0.425882 0.000000
0.173497 0.450741 0.000000
0.174303 0.476357 0.000000
0.172919 0.500411 0.000000
0.174773 0.526279 0.000000
0.172643 0.550763 0.000000
0.191984 0.575615 0.000000
0.191998 0.600000 0.000000
0.200000 -0.075000 0.000000
0.200000 -0.050000 0.000000
0.200000 -0.025000 0.000000
0.200000 0.000000 0.000000
0.199372 0.024991 0.000000
0.199598 0.050066 0.000000
0.199577 0.075130 0.000000
0.199523 0.100165 0.000000
0.199536 0.125235 0.000000
0.199456 0.150278 0.000000
0.199484 0.175313 0.000000
0.199383 0.200404 0.000000
0.199447 0.225362 0.000000
0.199284 0.250512 0.000000
0.199411 0.275444 0.000000
0.199180 0.300585 0.000000
0.199308 0.325599 0.000000
0.199059 0.350668 0.000000
0.199169 0.375880 0.000000
0.198924 0.400592 0.000000
0.199061 0.426251 0.000000
0.198567 0.450716 0.000000
0.199388 0.475981 0.000000
0.197917 0.500980 0.000000
0.199855 0.525687 0.000000
0.197552 0.550445 0.000000
0.217021 0.575635 0.000000
0.217004 0.600000 0.000000
0.225000 -0.075000 0.000000
0.225000 -0.050000 0.000000
0.225000 -0.025000 0.000000
0.225000 0.000000 0.000000
0.224319 0.024975 0.000000
0.224558 0.050103 0.000000
0.224541 0.075120 0.000000
0.224464 0.100204 0.000000
0.224523 0.125222 0.000000
0.224404 0.150333 0.000000
0.224504 0.175311 0.000000
0.224356 0.200450 0.000000
0.224477 0.225424 0.000000
0.224317 0.250541 0.000000
0.224397 0.275594 0.000000
0.224252 0.300609 0.000000
0.224299 0.325811 0.000000
0.224088 0.350634 0.000000
0.224296 0.375917 0.000000
[...]
<PointData>
<DataArray NumberOfComponents='1' type='Int32' Name='ParticleType' format='ascii'>
3
3
3
3
3
3
3
3
3
3
3
3
3
3
3
3
3
3
3
3
3
3
3
3
3
3
3
3
3
3
3
3
3
3
3
3
3
3
3
3
3
3
3
3
3
3
3
3
3
3
3
3
3
3
3
3
3
3
2
2
2
2
2
2
2
2
2
2
2
2
2
2
2
2
2
2
2
2
2
2
2
2
2
2
3
3
2
2
2
2
2
2
2
2
2
2
2
2
2
2
2
2
2
2
2
2
2
2
2
2
2
2
3
3
2
2
0
0
0
0
0
0
0
0
0
0
0
0
0
0
0
0
0
0
0
0
0
0
0
0
3
3
2
2
0
0
0
0
0
0
0
0
0
0
0
0
0
0
0
0
0
0
0
0
0
0
0
0
3
3
2
2
0
0
0
0
0
0
0
0
0
0
0
0
0
0
0
0
0
0
0
0
0
0
0
0
3
3
2
2
0
0
0
0
0
0
0
0
0
0
0
0
0
0
0
0
0
0
0
0
0
0
0
0
3
3
2
2
0
0
0
0
0
0
0
0
0
0
0
0
0
0
0
0
0
0
0
0
0
0
0
0
3
3
2
2
0
0
0
0
0
0
0
0
0
0
0
0
0
0
0
0
0
0
0
0
0
0
0
0
3
3
2
2
0
0
0
0
0
0
0
0
0
0
0
0
0
0
0
0
0
0
0
0
0
0
0
0
3
3
2
2
0
0
0
0
0
0
0
0
0
0
0
0
0
0
0
0
0
0
0
0
0
0
0
0
3
3
2
2
0
0
0
0
0
0
0
0
0
0
0
0
0
0
0
0
0
0
0
0
0
0
0
0
3
3
2
2
0
0
0
0
0
0
0
0
0
0
0
0
0
0
0
0
0
0
0
0
0
0
0
0
3
3
2
2
0
0
0
0
0
0
0
0
0
0
0
0
0
0
0
0
0
0
0
0
0
0
0
0
3
3
2
2
0
0
0
0
0
0
0
0
0
0
0
0
0
0
0
0
0
0
0
0
0
0
0
0
3
3
2
2
0
0
0
0
0
0
0
0
0
0
0
0
0
0
0
0
0
0
0
0
0
0
0
0
3
3
2
2
0
0
0
0
0
0
0
0
0
0
0
0
0
0
0
0
0
0
0
0
0
0
0
0
3
3
2
2
0
0
0
0
0
0
0
0
0
0
0
0
0
0
0
0
0
0
0
0
0
0
0
0
3
3
2
2
0
0
0
0
0
0
0
0
0
0
0
0
0
0
0
0
0
0
0
0
0
0
0
0
3
3
2
2
0
0
0
0
0
0
0
0
0
0
0
0
0
0
0
0
0
0
0
0
0
0
0
0
3
3
2
2
0
0
0
0
0
0
0
0
0
0
0
0
0
0
0
0
0
0
0
0
0
0
0
0
3
3
2
2
0
0
0
0
0
0
0
0
0
0
0
0
0
0
0
0
0
0
0
0
0
0
0
0
3
3
2
2
0
0
0
0
0
0
0
0
0
0
0
0
0
0
0
0
0
0
0
0
0
0
0
0
3
3
2
2
0
0
0
0
0
0
0
0
0
0
0
0
0
0
0
0
0
0
0
0
0
0
0
0
3
3
2
2
0
0
0
0
0
0
0
0
0
0
0
0
0
0
0
0
0
0
0
0
0
0
0
0
3
3
2
2
0
0
0
0
0
0
0
0
0
0
0
0
0
0
0
0
0
0
0
0
0
0
0
0
3
3
2
2
0
0
0
0
0
0
0
0
0
0
0
0
0
0
0
0
0
0
0
0
0
0
0
0
3
3
2
2
0
0
0
0
0
0
0
0
0
0
0
0
0
0
0
0
0
0
0
0
0
0
0
0
3
3
2
2
0
0
0
0
0
0
0
0
0
0
0
0
0
0
0
0
0
0
0
0
0
0
0
0
3
3
2
2
0
0
0
0
0
0
0
0
0
0
0
0
0
0
0
0
0
0
0
0
0
0
0
0
3
3
2
2
0
0
0
0
0
0
0
0
0
0
0
0
0
0
0
0
0
0
0
0
0
0
0
0
3
3
2
2
0
0
0
0
0
0
0
0
0
0
0
0
0
0
0
0
0
0
0
0
0
0
0
0
3
3
2
2
0
0
0
0
0
0
0
0
0
0
0
0
0
0
0
0
0
0
0
0
0
0
0
0
3
3
2
2
0
0
0
0
0
0
0
0
0
0
0
0
0
0
0
0
0
0
0
0
0
0
0
0
3
3
2
2
0
0
0
0
0
0
0
0
0
0
0
0
0
0
0
0
0
0
0
0
0
0
0
0
3
3
2
2
0
0
0
0
0
0
0
0
0
0
0
0
0
0
0
0
0
0
0
0
0
0
0
0
3
3
2
2
0
0
0
0
0
0
0
0
0
0
0
0
0
0
0
0
0
0
0
0
0
0
0
0
3
3
2
2
0
0
0
0
0
0
0
0
0
0
0
0
0
0
0
0
0
0
0
0
0
0
0
0
3
3
2
2
0
0
0
0
0
0
0
0
0
0
0
0
0
0
0
0
0
0
0
0
0
0
0
0
3
3
2
2
0
0
0
0
0
0
0
0
0
0
0
0
0
0
0
0
0
0
0
0
0
0
0
0
3
3
2
2
0
0
0
0
0
0
0
0
0
0
0
0
0
0
0
0
0
0
0
0
0
0
0
0
3
3
2
2
0
0
0
0
0
0
0
0
0
0
0
0
0
0
0
0
0
0
0
0
0
0
0
0
3
3
2
2
0
0
0
0
0
0
0
0
0
0
0
0
0
0
0
0
0
0
0
0
0
0
0
0
3
3
2
2
2
2
2
2
2
2
2
2
2
2
2
2
2
2
2
2
2
2
2
2
2
2
2
2
3
3
2
2
2
2
2
2
2
2
2
2
2
2
2
2
2
2
2
2
2
2
2
2
2
2
2
2
3
3
3
3
3
3
3
3
3
3
3
3
3
3
3
3
3
3
3
3
3
3
3
3
3
3
3
3
3
3
3
3
3
3
3
3
3
3
3
3
3
3
3
3
3
3
3
3
3
3
3
3
3
3
3
3
</DataArray>
<DataArray NumberOfComponents='1' type='Float32' Name='Velocity' format='ascii'>
0.000000
0.000000
0.000000
0.000000
0.000000
0.000000
0.000000
0.000000
0.000000
0.000000
0.000000
0.000000
0.000000
0.000000
0.000000
0.000000
0.000000
0.000000
0.000000
0.000000
0.000000
0.000000
0.000000
0.000000
0.000000
0.000000
0.000000
0.000000
0.000000
0.000000
0.000000
0.000000
0.000000
0.000000
0.000000
0.000000
0.000000
0.000000
0.000000
0.000000
0.000000
0.000000
0.000000
0.000000
0.000000
0.000000
0.000000
0.000000
0.000000
0.000000
0.000000
0.000000
0.000000
0.000000
0.000000
0.000000
0.000000
0.000000
0.000000
0.000000
0.000000
0.000000
0.000000
0.000000
0.000000
0.000000
0.000000
0.000000
0.000000
0.000000
0.000000
0.000000
0.000000
0.000000
0.000000
0.000000
0.000000
0.000000
0.000000
0.000000
0.000000
0.000000
0.000000
0.000000
0.000000
0.000000
0.000000
0.000000
0.000000
0.000000
0.000000
0.000000
0.000000
0.000000
0.000000
0.000000
0.000000
0.000000
0.000000
0.000000
0.000000
0.000000
0.000000
0.000000
0.000000
0.000000
0.000000
0.000000
0.000000
0.000000
0.000000
0.000000
0.000000
0.000000
0.000000
0.000000
0.003805
0.004532
0.005647
0.005967
0.006637
0.007873
0.010647
0.010105
0.017699
0.014742
0.024726
0.019140
0.035728
0.023126
0.046892
0.030373
0.058772
0.036445
0.066114
0.029442
0.077812
0.124242
0.100000
0.100000
0.000000
0.000000
0.000000
0.000000
0.004364
0.002633
0.002420
0.003492
0.002984
0.004148
0.002901
0.004771
0.002455
0.007383
0.002722
0.010641
0.007628
0.017075
0.005253
0.022877
0.009438
0.015574
0.017055
0.012028
0.045696
0.042509
0.100000
0.100000
0.000000
0.000000
0.000000
0.000000
0.004016
0.003323
0.002803
0.008145
0.002244
0.010502
0.001598
0.012374
0.003682
0.016801
0.004856
0.018607
0.005902
0.019086
0.004218
0.016083
0.010386
0.010306
0.015921
0.044134
0.023388
0.065293
0.100000
0.100000
0.000000
0.000000
0.000000
0.000000
0.005546
0.002327
0.004169
0.004976
0.007628
0.008126
0.008914
0.009737
0.008076
0.009354
0.007495
0.007796
0.010930
0.001519
0.017166
0.003219
0.012570
0.020755
0.011219
0.007549
0.011972
0.049736
0.100000
0.100000
0.000000
0.000000
0.000000
0.000000
0.007212
0.005814
0.005780
0.010199
0.006207
0.013852
0.006400
0.015977
0.006200
0.015698
0.007746
0.011526
0.009628
0.015745
0.003261
0.023708
0.003825
0.014607
0.009173
0.046714
0.018882
0.051154
0.100000
0.100000
0.000000
0.000000
0.000000
0.000000
0.007589
0.002989
0.005571
0.007418
0.010692
0.011032
0.012290
0.011133
0.011443
0.010552
0.009703
0.019627
0.011908
0.024850
0.002132
0.015430
0.002897
0.028799
0.004397
0.026236
0.021973
0.035266
0.100000
0.100000
0.000000
0.000000
0.000000
0.000000
0.008316
0.001768
0.003724
0.007660
0.005928
0.013798
0.008435
0.018348
0.008094
0.024839
0.009700
0.024089
0.005835
0.014312
0.012786
0.012821
0.020570
0.001744
0.021830
0.031058
0.009032
0.036934
0.100000
0.100000
0.000000
0.000000
0.000000
0.000000
0.008914
0.003831
0.004919
0.009644
0.007143
0.014598
0.010002
0.019523
0.013033
0.018347
0.011755
0.011931
0.014923
0.010118
0.017952
0.008374
0.013267
0.034860
0.003667
0.036589
0.015890
0.033635
0.100000
0.100000
0.000000
0.000000
0.000000
0.000000
0.010116
0.007262
0.006352
0.012569
0.007733
0.016118
0.008260
0.016282
0.008180
0.015072
0.010464
0.015173
0.005833
0.022157
0.003787
0.031517
0.000801
0.017955
0.019393
0.026709
0.014603
0.024643
0.100000
0.100000
0.000000
0.000000
0.000000
0.000000
0.010602
0.006406
0.007056
0.010171
0.009353
0.012357
0.010594
0.013584
0.010095
0.017787
0.007528
0.027101
0.008248
0.023503
0.009095
0.005969
0.023194
0.019296
0.000530
0.029147
0.011237
0.028718
0.100000
0.100000
0.000000
0.000000
0.000000
0.000000
0.009892
0.006459
0.005675
0.011614
0.006834
0.015090
0.006871
0.019258
0.008653
0.024606
0.007709
0.017254
0.011212
0.009582
0.014909
0.022592
0.001425
0.027417
0.013005
0.026913
0.014214
0.025274
0.100000
0.100000
0.000000
0.000000
0.000000
0.000000
0.011869
0.008315
0.007539
0.013649
0.008385
0.017157
0.009794
0.019909
0.009610
0.013681
0.012718
0.012825
0.006945
0.023137
0.001384
0.020558
0.013597
0.018249
0.003849
0.031839
0.005785
0.024489
0.100000
0.100000
0.000000
0.000000
0.000000
0.000000
0.012385
0.009765
0.008706
0.013962
0.009265
0.015101
0.008432
0.011382
0.008598
0.014505
0.005995
0.023906
0.005953
0.020625
0.012387
0.018888
0.008320
0.029389
0.008304
0.024890
0.007189
0.030437
0.100000
0.100000
0.000000
0.000000
0.000000
0.000000
0.011845
0.009058
0.008978
0.012529
0.010499
0.012446
0.009924
0.017092
0.009175
0.022958
0.008165
0.017547
0.008291
0.015240
0.004430
0.020267
0.007764
0.017813
0.002526
0.031635
0.004347
0.026054
0.100000
0.100000
0.000000
0.000000
0.000000
0.000000
0.013540
0.008820
0.007856
0.012616
0.009058
0.015994
0.010127
0.017764
0.009443
0.013604
0.009799
0.015600
0.008693
0.022584
0.009126
0.021706
0.011010
0.029804
0.004616
0.027824
0.002845
0.034864
0.100000
0.100000
0.000000
0.000000
0.000000
0.000000
0.013837
0.009399
0.010552
0.014052
0.010733
0.014939
0.010698
0.012878
0.011071
0.015316
0.010109
0.019403
0.008206
0.015413
0.007480
0.018195
0.004187
0.019988
0.004302
0.029802
0.005216
0.028572
0.100000
0.100000
0.000000
0.000000
0.000000
0.000000
0.013165
0.009370
0.008532
0.011887
0.011576
0.011449
0.010975
0.013380
0.011009
0.016731
0.010584
0.016146
0.011362
0.020900
0.010751
0.022528
0.012701
0.027553
0.007229
0.030553
0.002291
0.036002
0.100000
0.100000
0.000000
0.000000
0.000000
0.000000
0.016439
0.007683
0.010037
0.011535
0.010055
0.013735
0.011977
0.015404
0.012051
0.014253
0.012464
0.015739
0.011248
0.015516
0.008912
0.017986
0.006755
0.022698
0.005486
0.029937
0.005018
0.031879
0.100000
0.100000
0.000000
0.000000
0.000000
0.000000
0.013888
0.008215
0.010669
0.011664
0.012512
0.011597
0.010960
0.010791
0.012352
0.012750
0.013652
0.016317
0.013852
0.019259
0.015034
0.021886
0.013410
0.026146
0.011525
0.032599
0.002792
0.035547
0.100000
0.100000
0.000000
0.000000
0.000000
0.000000
0.014148
0.007597
0.006219
0.010322
0.012003
0.011306
0.014933
0.012432
0.013828
0.014096
0.013449
0.013628
0.014581
0.014323
0.010452
0.017380
0.012606
0.023943
0.007733
0.030948
0.005405
0.031143
0.100000
0.100000
0.000000
0.000000
0.000000
0.000000
0.017938
0.006710
0.011472
0.009459
0.008128
0.010255
0.011184
0.010144
0.015122
0.011039
0.017016
0.014665
0.015842
0.017993
0.019543
0.020600
0.014886
0.023989
0.015850
0.031011
0.006126
0.034545
0.100000
0.100000
0.000000
0.000000
0.000000
0.000000
0.013412
0.006023
0.009342
0.008399
0.016218
0.010275
0.011875
0.012176
0.012490
0.012480
0.014848
0.012431
0.018052
0.012250
0.012689
0.015653
0.018143
0.023981
0.013679
0.030022
0.011303
0.025514
0.100000
0.100000
0.000000
0.000000
0.000000
0.000000
0.014464
0.006845
0.004343
0.010312
0.008361
0.008131
0.018404
0.009003
0.016811
0.010157
0.016264
0.013612
0.016839
0.016851
0.022815
0.019153
0.018519
0.019371
0.019770
0.021957
0.014981
0.030844
0.100000
0.100000
0.000000
0.000000
0.000000
0.000000
0.015133
0.004662
0.009781
0.007952
0.007713
0.012536
0.006629
0.011805
0.016566
0.012199
0.019665
0.010762
0.019546
0.010728
0.015918
0.011575
0.023258
0.021384
0.024346
0.027149
0.022222
0.019185
0.100000
0.100000
0.000000
0.000000
0.000000
0.000000
0.013765
0.006810
0.006955
0.005748
0.014371
0.008301
0.014954
0.010360
0.008088
0.013047
0.013366
0.012658
0.019414
0.014498
0.025032
0.018820
0.022880
0.015105
0.024468
0.015361
0.019738
0.028209
0.100000
0.100000
0.000000
0.000000
0.000000
0.000000
0.011424
0.007663
0.003090
0.010336
0.005111
0.008777
0.014731
0.013795
0.021607
0.011429
0.015384
0.011701
0.013556
0.015198
0.016080
0.008548
0.026679
0.022227
0.031664
0.028836
0.032627
0.019276
0.100000
0.100000
0.000000
0.000000
0.000000
0.000000
0.010944
0.009184
0.002308
0.010764
0.006232
0.011786
0.004868
0.012795
0.010603
0.009539
0.021035
0.009171
0.023775
0.009353
0.026069
0.023965
0.026969
0.013236
0.030837
0.019377
0.020890
0.025118
0.100000
0.100000
0.000000
0.000000
0.000000
0.000000
0.010788
0.007640
0.002456
0.008984
0.004602
0.008548
0.012225
0.012629
0.008868
0.018689
0.006568
0.014274
0.010246
0.011564
0.019478
0.005260
0.024582
0.027453
0.032539
0.026625
0.044035
0.022303
0.100000
0.100000
0.000000
0.000000
0.000000
0.000000
0.010752
0.011565
0.004153
0.008230
0.005489
0.007385
0.007176
0.005656
0.018332
0.007829
0.019080
0.011242
0.015387
0.019580
0.016205
0.029954
0.026254
0.013584
0.031824
0.028659
0.026313
0.021061
0.100000
0.100000
0.000000
0.000000
0.000000
0.000000
0.008725
0.011916
0.005283
0.014512
0.001149
0.008931
0.008371
0.010219
0.007437
0.011619
0.013474
0.005482
0.019455
0.002050
0.027676
0.006267
0.016972
0.032328
0.041041
0.020829
0.055127
0.029006
0.100000
0.100000
0.000000
0.000000
0.000000
0.000000
0.010484
0.008490
0.004694
0.011623
0.003063
0.014498
0.002430
0.010312
0.015505
0.009844
0.012813
0.020334
0.005492
0.025550
0.012640
0.017353
0.034923
0.014391
0.026048
0.037220
0.035770
0.009652
0.100000
0.100000
0.000000
0.000000
0.000000
0.000000
0.009575
0.006836
0.003146
0.008850
0.003716
0.006884
0.004742
0.010702
0.004795
0.011870
0.017075
0.007667
0.026197
0.013476
0.017272
0.033399
0.005841
0.027270
0.041097
0.035529
0.066107
0.056445
0.100000
0.100000
0.000000
0.000000
0.000000
0.000000
0.013058
0.008041
0.008733
0.008286
0.007810
0.008472
0.007426
0.003553
0.013762
0.006549
0.007453
0.017392
0.010807
0.011890
0.034039
0.013679
0.036777
0.032352
0.019130
0.048337
0.047949
0.008287
0.100000
0.100000
0.000000
0.000000
0.000000
0.000000
0.010065
0.009280
0.004325
0.013955
0.001549
0.012202
0.002866
0.012177
0.005203
0.008696
0.019750
0.008974
0.016948
0.033926
0.010312
0.031654
0.029972
0.015660
0.055165
0.023479
0.069972
0.095118
0.100000
0.100000
0.000000
0.000000
0.000000
0.000000
0.011319
0.001658
0.006133
0.003393
0.004772
0.007919
0.001784
0.007466
0.007843
0.011100
0.003451
0.014583
0.019838
0.012185
0.034198
0.026523
0.012916
0.065451
0.011200
0.034150
0.116199
0.007304
0.100000
0.100000
0.000000
0.000000
0.000000
0.000000
0.008597
0.003152
0.005380
0.006084
0.005425
0.006771
0.003983
0.009304
0.004983
0.005627
0.017348
0.007307
0.011058
0.030759
0.020982
0.013675
0.082233
0.048845
0.086297
0.037306
0.040872
0.042644
0.100000
0.100000
0.000000
0.000000
0.000000
0.000000
0.007658
0.001840
0.004463
0.001527
0.004039
0.002167
0.003430
0.003560
0.002597
0.009952
0.008907
0.015158
0.012062
0.008023
0.008324
0.044967
0.014031
0.011318
0.065277
0.078608
0.149524
0.067516
0.100000
0.100000
0.000000
0.000000
0.000000
0.000000
0.004527
0.003176
0.006630
0.004560
0.007763
0.005278
0.008660
0.007803
0.008189
0.010694
0.014253
0.021458
0.003844
0.034182
0.023350
0.009656
0.052979
0.064565
0.027044
0.138443
0.104603
0.175651
0.100000
0.100000
0.000000
0.000000
0.000000
0.000000
0.004400
0.005327
0.004144
0.007982
0.003490
0.007642
0.002172
0.008757
0.004394
0.010430
0.004753
0.000202
0.004321
0.005792
0.007509
0.012008
0.039151
0.043198
0.117655
0.074698
0.047754
0.113802
0.100000
0.100000
0.000000
0.000000
0.000000
0.000000
0.001856
0.003091
0.008863
0.004811
0.013541
0.007504
0.017181
0.012082
0.020416
0.014409
0.029776
0.020458
0.040712
0.035577
0.044376
0.019439
0.088585
0.031897
0.149122
0.046265
0.095109
0.320714
0.492157
0.100000
0.000000
0.000000
0.000000
0.000000
0.000000
0.000000
0.000000
0.000000
0.000000
0.000000
0.000000
0.000000
0.000000
0.000000
0.000000
0.000000
0.000000
0.000000
0.000000
0.000000
0.000000
0.000000
0.000000
0.000000
0.000000
0.000000
0.000000
0.000000
0.000000
0.000000
0.000000
0.000000
0.000000
0.000000
0.000000
0.000000
0.000000
0.000000
0.000000
0.000000
0.000000
0.000000
0.000000
0.000000
0.000000
0.000000
0.000000
0.000000
0.000000
0.000000
0.000000
0.000000
0.000000
0.000000
0.000000
0.000000
0.000000
0.000000
0.000000
0.000000
0.000000
0.000000
0.000000
0.000000
0.000000
0.000000
0.000000
0.000000
0.000000
0.000000
0.000000
0.000000
0.000000
0.000000
0.000000
0.000000
0.000000
0.000000
0.000000
0.000000
0.000000
0.000000
0.000000
0.000000
0.000000
0.000000
0.000000
0.000000
0.000000
0.000000
0.000000
0.000000
0.000000
0.000000
0.000000
0.000000
0.000000
0.000000
0.000000
0.000000
0.000000
0.000000
0.000000
0.000000
0.000000
0.000000
0.000000
0.000000
0.000000
0.000000
0.000000
0.000000
</DataArray>
<DataArray NumberOfComponents='1' type='Float32' Name='pressure' format='ascii'>
0.000000
0.000000
0.000000
0.000000
0.000000
0.000000
0.000000
0.000000
0.000000
0.000000
0.000000
0.000000
0.000000
0.000000
0.000000
0.000000
0.000000
0.000000
0.000000
0.000000
0.000000
0.000000
0.000000
0.000000
0.000000
0.000000
0.000000
0.000000
0.000000
0.000000
0.000000
0.000000
0.000000
0.000000
0.000000
0.000000
0.000000
0.000000
0.000000
0.000000
0.000000
0.000000
0.000000
0.000000
0.000000
0.000000
0.000000
0.000000
0.000000
0.000000
0.000000
0.000000
0.000000
0.000000
0.000000
0.000000
0.000000
0.000000
5507.869141
5465.278809
5399.756348
5132.458984
4953.948242
4678.224609
4470.952148
4199.238770
3984.297363
3723.616455
3496.793457
3244.223389
3018.630615
2763.380127
2520.441650
2268.253418
2055.927979
1707.975830
1552.020264
1240.593262
960.346924
918.700806
854.149902
1166.084961
187.099319
0.000000
0.000000
0.000000
5533.554688
5562.651367
5487.249023
5130.338867
4976.452148
4656.164062
4485.118652
4176.439453
3993.396973
3701.306885
3498.756104
3225.365479
3017.695312
2744.912354
2503.816895
2267.320312
2021.095459
1701.154297
1535.255615
1200.501465
917.111206
816.366455
342.600464
581.547424
0.000000
0.000000
0.000000
0.000000
5572.726562
5596.507812
5465.061035
5091.133301
4941.358887
4609.958984
4419.521484
4114.558105
3913.022461
3600.951904
3407.017334
3092.161133
2874.488281
2591.926758
2351.096924
2076.377686
1814.018555
1596.438232
1226.262329
1143.092651
613.278381
554.211365
168.356522
0.000000
0.000000
0.000000
0.000000
0.000000
5580.645020
5611.836914
5477.548828
5137.440430
4955.967285
4683.013184
4444.937012
4205.739746
3965.432373
3705.414062
3494.041748
3214.254639
3005.912598
2746.036865
2477.445557
2282.654053
1959.260376
1767.116455
1431.458374
1278.207153
860.035828
882.425293
85.900597
477.099823
0.000000
0.000000
0.000000
0.000000
5582.525879
5593.428711
5451.418945
5122.344727
4906.257324
4668.298340
4368.656738
4184.826172
3868.691162
3666.472168
3381.558838
3146.014404
2885.288818
2625.220703
2398.726562
2112.213623
1904.110840
1614.993896
1422.149170
1132.361816
847.820374
676.556824
364.461792
103.776947
0.000000
0.000000
0.000000
0.000000
5581.023926
5589.372559
5479.346191
5143.225098
4932.526367
4711.451172
4404.430664
4246.287598
3910.041260
3753.042725
3441.406494
3234.315430
2992.558838
2703.261963
2529.497803
2166.623779
2055.958496
1662.004883
1489.229858
1253.489502
964.062927
814.442383
390.764893
428.260468
199.221542
0.000000
0.000000
0.000000
5575.505859
5588.522949
5457.996582
5121.567383
4916.027344
4674.618652
4367.781250
4206.836914
3864.354248
3692.339111
3395.182861
3154.571533
2934.281982
2618.739014
2460.125244
2152.413818
1897.129028
1745.025269
1394.257690
1226.530640
882.930359
776.119324
406.500122
298.921539
186.427338
0.000000
0.000000
0.000000
5606.133789
5631.911621
5466.322754
5145.793457
4935.385742
4696.647461
4416.359375
4233.442871
3920.440918
3734.909912
3456.613281
3221.369141
2971.865479
2755.222168
2421.935303
2291.059814
1953.804199
1727.078735
1496.128784
1286.575928
1020.392761
810.438782
605.535583
318.983093
210.095261
0.000000
0.000000
0.000000
5589.365723
5603.372070
5451.524414
5135.286133
4913.628906
4683.354004
4378.712891
4202.395508
3885.054688
3701.420410
3386.231934
3222.718506
2874.653564
2729.549316
2439.719238
2172.453125
1998.620605
1695.857300
1500.893066
1181.427368
1001.758545
725.933411
517.275940
286.853058
188.366913
0.000000
0.000000
0.000000
5585.026367
5591.841797
5467.273926
5144.671387
4923.480957
4705.787598
4401.345703
4241.030273
3905.944580
3752.451416
3426.343994
3243.393799
2981.401855
2688.508789
2526.058350
2181.149170
2030.390991
1684.518433
1545.236206
1286.161011
1048.092773
821.615662
693.558899
306.584076
272.658112
0.000000
0.000000
0.000000
5595.203613
5609.906250
5446.923828
5136.676758
4919.203613
4674.570801
4398.238281
4193.870117
3902.726562
3692.348145
3441.174561
3158.413086
2983.542969
2666.199219
2480.514404
2211.612061
1976.015747
1768.225708
1474.523071
1235.448608
1033.897339
746.100342
559.404175
248.822418
201.471939
0.000000
0.000000
0.000000
5613.676270
5641.203613
5446.995117
5149.778809
4934.576172
4675.909668
4438.035645
4188.782715
3962.484863
3680.110840
3482.028564
3202.448242
2960.317139
2749.368896
2457.244873
2245.570801
2012.440552
1682.259888
1611.562012
1243.344971
1057.168091
825.130920
743.121338
311.295654
305.630646
0.000000
0.000000
0.000000
5601.913574
5618.635254
5436.259766
5138.484375
4920.288086
4664.014648
4418.085938
4169.195801
3933.282715
3681.735596
3433.873047
3213.995361
2947.621826
2693.779297
2521.703613
2152.201416
2076.850098
1696.410889
1519.807129
1258.725098
1079.422974
762.460327
526.758667
266.830231
237.442703
0.000000
0.000000
0.000000
5604.165039
5616.728027
5437.864258
5151.400879
4922.000977
4680.814453
4423.078125
4196.411133
3934.375000
3703.263672
3465.885498
3168.231934
3029.207275
2656.839844
2526.821045
2211.974365
2008.124756
1732.079590
1591.833252