<?xml version='1.0' encoding='UTF-8'?>
<VTKFile xmlns='VTK' byte_order='LittleEndian' version='0.1' type='UnstructuredGrid'>
<UnstructuredGrid>
<Piece NumberOfCells='1344' NumberOfPoints='1344'>
<Points>
<DataArray NumberOfComponents='3' type='Float32' Name='Position' format='ascii'>
-0.075000 -0.075000 0.000000
-0.075000 -0.050000 0.000000
-0.075000 -0.025000 0.000000
-0.075000 0.000000 0.000000
-0.075000 0.025000 0.000000
-0.075000 0.050000 0.000000
-0.075000 0.075000 0.000000
-0.075000 0.100000 0.000000
-0.075000 0.125000 0.000000
-0.075000 0.150000 0.000000
-0.075000 0.175000 0.000000
-0.075000 0.200000 0.000000
-0.075000 0.225000 0.000000
-0.075000 0.250000 0.000000
-0.075000 0.275000 0.000000
-0.075000 0.300000 0.000000
-0.075000 0.325000 0.000000
-0.075000 0.350000 0.000000
-0.075000 0.375000 0.000000
-0.075000 0.400000 0.000000
-0.075000 0.425000 0.000000
-0.075000 0.450000 0.000000
-0.075000 0.475000 0.000000
-0.075000 0.500000 0.000000
-0.075000 0.525000 0.000000
-0.075000 0.550000 0.000000
-0.075000 0.575000 0.000000
-0.075000 0.600000 0.000000
-0.050000 -0.075000 0.000000
-0.050000 -0.050000 0.000000
-0.050000 -0.025000 0.000000
-0.050000 0.000000 0.000000
-0.050000 0.025000 0.000000
-0.050000 0.050000 0.000000
-0.050000 0.075000 0.000000
-0.050000 0.100000 0.000000
-0.050000 0.125000 0.000000
-0.050000 0.150000 0.000000
-0.050000 0.175000 0.000000
-0.050000 0.200000 0.000000
-0.050000 0.225000 0.000000
-0.050000 0.250000 0.000000
-0.050000 0.275000 0.000000
-0.050000 0.300000 0.000000
-0.050000 0.325000 0.000000
-0.050000 0.350000 0.000000
-0.050000 0.375000 0.000000
-0.050000 0.400000 0.000000
-0.050000 0.425000 0.000000
-0.050000 0.450000 0.000000
-0.050000 0.475000 0.000000
-0.050000 0.500000 0.000000
-0.050000 0.525000 0.000000
-0.050000 0.550000 0.000000
-0.050000 0.575000 0.000000
-0.050000 0.600000 0.000000
-0.025000 -0.075000 0.000000
-0.025000 -0.050000 0.000000
-0.025000 -0.025000 0.000000
-0.025000 0.000000 0.000000
-0.025000 0.025000 0.000000
-0.025000 0.050000 0.000000
-0.025000 0.075000 0.000000
-0.025000 0.100000 0.000000
-0.025000 0.125000 0.000000
-0.025000 0.150000 0.000000
-0.025000 0.175000 0.000000
-0.025000 0.200000 0.000000
-0.025000 0.225000 0.000000
-0.025000 0.250000 0.000000
-0.025000 0.275000 0.000000
-0.025000 0.300000 0.000000
-0.025000 0.325000 0.000000
-0.025000 0.350000 0.000000
-0.025000 0.375000 0.000000
-0.025000 0.400000 0.000000
-0.025000 0.425000 0.000000
-0.025000 0.450000 0.000000
-0.025000 0.475000 0.000000
-0.025000 0.500000 0.000000
-0.025000 0.525000 0.000000
-0.025000 0.550000 0.000000
-0.025000 0.575000 0.000000
-0.025000 0.600000 0.000000
0.000000 -0.075000 0.000000
0.000000 -0.050000 0.000000
0.000000 -0.025000 0.000000
0.000000 0.000000 0.000000
0.000000 0.025000 0.000000
0.000000 0.050000 0.000000
0.000000 0.075000 0.000000
0.000000 0.100000 0.000000
0.000000 0.125000 0.000000
0.000000 0.150000 0.000000
0.000000 0.175000 0.000000
0.000000 0.200000 0.000000
0.000000 0.225000 0.000000
0.000000 0.250000 0.000000
0.000000 0.275000 0.000000
0.000000 0.300000 0.000000
0.000000 0.325000 0.000000
0.000000 0.350000 0.000000
0.000000 0.375000 0.000000
0.000000 0.400000 0.000000
0.000000 0.425000 0.000000
0.000000 0.450000 0.000000
0.000000 0.475000 0.000000
0.000000 0.500000 0.000000
0.000000 0.525000 0.000000
0.000000 0.550000 0.000000
0.000000 0.575000 0.000000
0.000000 0.600000 0.000000
0.025000 -0.075000 0.000000
0.025000 -0.050000 0.000000
0.025000 -0.025000 0.000000
0.025000 0.000000 0.000000
0.028604 0.023781 0.000000
0.059829 0.022508 0.000000
0.022257 0.045014 0.000000
0.023797 0.110910 0.000000
0.028859 0.191041 0.000000
0.025822 0.214015 0.000000
0.022205 0.239513 0.000000
0.023118 0.272082 0.000000
0.028721 0.294992 0.000000
0.023414 0.317247 0.000000
0.024589 0.349815 0.000000
0.025273 0.371677 0.000000
0.024564 0.400718 0.000000
0.025641 0.424315 0.000000
0.023677 0.452467 0.000000
0.025643 0.478033 0.000000
0.022165 0.510034 0.000000
0.050233 0.520328 0.000000
0.024738 0.557573 0.000000
0.027267 0.581085 0.000000
0.037861 0.600000 0.000000
0.013781 0.600000 0.000000
0.101193 0.600000 0.000000
0.120759 0.600000 0.000000
0.050000 -0.075000 0.000000
0.050000 -0.050000 0.000000
0.050000 -0.025000 0.000000
0.050000 0.000000 0.000000
0.088782 0.024118 0.000000
0.054002 0.042319 0.000000
0.040159 0.063775 0.000000
0.023767 0.081985 0.000000
0.024229 0.137781 0.000000
0.022458 0.167073 0.000000
0.049900 0.213725 0.000000
0.045470 0.242922 0.000000
0.055289 0.290895 0.000000
0.047834 0.317887 0.000000
0.045896 0.341671 0.000000
0.057366 0.362914 0.000000
0.043819 0.390338 0.000000
0.055936 0.411468 0.000000
0.045559 0.438451 0.000000
0.047833 0.465223 0.000000
0.041786 0.495326 0.000000
0.069810 0.500499 0.000000
0.025893 0.534936 0.000000
0.049701 0.568467 0.000000
0.071024 0.585552 0.000000
0.056384 0.600000 0.000000
0.130995 0.578580 0.000000
0.140200 0.600000 0.000000
0.075000 -0.075000 0.000000
0.075000 -0.050000 0.000000
0.075000 -0.025000 0.000000
0.075000 0.000000 0.000000
0.087525 0.051102 0.000000
0.068198 0.063314 0.000000
0.055117 0.084122 0.000000
0.046924 0.136688 0.000000
0.068326 0.138188 0.000000
0.052499 0.184491 0.000000
0.072636 0.198964 0.000000
0.047698 0.268275 0.000000
0.066622 0.247901 0.000000
0.075639 0.274068 0.000000
0.077758 0.302324 0.000000
0.071135 0.329401 0.000000
0.081885 0.348840 0.000000
0.070953 0.378771 0.000000
0.075956 0.407880 0.000000
0.068412 0.438484 0.000000
0.067436 0.477509 0.000000
0.094205 0.505954 0.000000
0.076652 0.526176 0.000000
0.055101 0.542650 0.000000
0.074984 0.559272 0.000000
0.082832 0.600000 0.000000
0.159447 0.600000 0.000000
0.179201 0.600000 0.000000
0.100000 -0.075000 0.000000
0.100000 -0.050000 0.000000
0.100000 -0.025000 0.000000
0.100000 0.000000 0.000000
0.110416 0.029241 0.000000
0.081310 0.096854 0.000000
0.073553 0.115822 0.000000
0.042704 0.102121 0.000000
0.074109 0.168791 0.000000
0.047351 0.159978 0.000000
0.099049 0.203384 0.000000
0.072422 0.222629 0.000000
0.096702 0.230277 0.000000
0.092594 0.256484 0.000000
0.097399 0.291138 0.000000
0.095506 0.322078 0.000000
0.103783 0.357486 0.000000
0.092869 0.384526 0.000000
0.099056 0.414093 0.000000
0.097553 0.438420 0.000000
0.082307 0.456796 0.000000
0.097035 0.476152 0.000000
0.108177 0.525460 0.000000
0.131701 0.535980 0.000000
0.093714 0.544891 0.000000
0.100236 0.575693 0.000000
0.188448 0.577449 0.000000
0.197789 0.600000 0.000000
0.125000 -0.075000 0.000000
0.125000 -0.050000 0.000000
0.125000 -0.025000 0.000000
0.125000 0.000000 0.000000
0.110431 0.052390 0.000000
0.093859 0.079189 0.000000
0.094548 0.124629 0.000000
0.092476 0.155437 0.000000
0.114166 0.151752 0.000000
0.097261 0.179415 0.000000
0.121453 0.195889 0.000000
0.119208 0.221121 0.000000
0.113554 0.255718 0.000000
0.119061 0.280521 0.000000
0.116764 0.311556 0.000000
0.117572 0.338590 0.000000
0.127287 0.364273 0.000000
0.114553 0.389614 0.000000
0.124602 0.411046 0.000000
0.122482 0.436336 0.000000
0.116592 0.460539 0.000000
0.114978 0.492408 0.000000
0.133378 0.511230 0.000000
0.146424 0.554890 0.000000
0.160727 0.576769 0.000000
0.116247 0.556638 0.000000
0.216735 0.577043 0.000000
0.217394 0.600000 0.000000
0.150000 -0.075000 0.000000
0.150000 -0.050000 0.000000
0.150000 -0.025000 0.000000
0.150000 0.000000 0.000000
0.134225 0.023826 0.000000
0.138351 0.049377 0.000000
0.113992 0.083502 0.000000
0.113703 0.116336 0.000000
0.136045 0.148098 0.000000
0.130702 0.175746 0.000000
0.152434 0.201963 0.000000
0.152122 0.221117 0.000000
0.133314 0.240469 0.000000
0.140800 0.271430 0.000000
0.140942 0.296201 0.000000
0.138518 0.321585 0.000000
0.145929 0.348222 0.000000
0.142567 0.383709 0.000000
0.149282 0.409610 0.000000
0.155647 0.432131 0.000000
0.141370 0.452649 0.000000
0.135295 0.480380 0.000000
0.154944 0.499941 0.000000
0.175569 0.512246 0.000000
0.157818 0.529652 0.000000
0.172386 0.552537 0.000000
0.236718 0.600000 0.000000
0.254998 0.600000 0.000000
0.175000 -0.075000 0.000000
0.175000 -0.050000 0.000000
0.175000 -0.025000 0.000000
0.175000 0.000000 0.000000
0.160433 0.024658 0.000000
0.161627 0.049871 0.000000
0.135288 0.072811 0.000000
0.135654 0.123091 0.000000
0.161204 0.100422 0.000000
0.159490 0.143406 0.000000
0.152722 0.173537 0.000000
0.173328 0.177638 0.000000
0.180036 0.224191 0.000000
0.157219 0.246626 0.000000
0.165113 0.270980 0.000000
0.167295 0.297361 0.000000
0.163931 0.322508 0.000000
0.161739 0.370153 0.000000
0.170897 0.398330 0.000000
0.183304 0.416370 0.000000
0.192289 0.435987 0.000000
0.168962 0.451486 0.000000
0.160329 0.474600 0.000000
0.182935 0.485680 0.000000
0.200164 0.506265 0.000000
0.188494 0.536239 0.000000
0.268165 0.578344 0.000000
0.275301 0.600000 0.000000
0.200000 -0.075000 0.000000
0.200000 -0.050000 0.000000
0.200000 -0.025000 0.000000
0.200000 0.000000 0.000000
0.185532 0.025361 0.000000
0.184119 0.051538 0.000000
0.158520 0.077260 0.000000
0.135032 0.101050 0.000000
0.193027 0.113144 0.000000
0.168668 0.123010 0.000000
0.185385 0.144049 0.000000
0.195578 0.165582 0.000000
0.181415 0.201386 0.000000
0.181276 0.251226 0.000000
0.188849 0.285518 0.000000
0.185840 0.314877 0.000000
0.169893 0.347987 0.000000
0.195246 0.352340 0.000000
0.186231 0.380204 0.000000
0.206629 0.393525 0.000000
0.213864 0.416275 0.000000
0.194404 0.459280 0.000000
0.206346 0.479672 0.000000
0.224640 0.506273 0.000000
0.215099 0.530517 0.000000
0.204195 0.553769 0.000000
0.294473 0.573454 0.000000
0.293702 0.600000 0.000000
0.225000 -0.075000 0.000000
0.225000 -0.050000 0.000000
0.225000 -0.025000 0.000000
0.225000 0.000000 0.000000
0.209111 0.024025 0.000000
0.211087 0.049467 0.000000
0.198153 0.071951 0.000000
0.183427 0.088399 0.000000
0.223703 0.115799 0.000000
0.206295 0.136188 0.000000
0.221786 0.166411 0.000000
0.201743 0.188284 0.000000
0.215493 0.208176 0.000000
0.203075 0.230583 0.000000
0.201033 0.265369 0.000000
0.217237 0.282385 0.000000
0.203475 0.330687 0.000000
0.224409 0.345398 0.000000
0.211530 0.368934 0.000000
[...]
<PointData>
<DataArray NumberOfComponents='1' type='Int32' Name='ParticleType' format='ascii'>
3
3
3
3
3
3
3
3
3
3
3
3
3
3
3
3
3
3
3
3
3
3
3
3
3
3
3
3
3
3
3
3
3
3
3
3
3
3
3
3
3
3
3
3
3
3
3
3
3
3
3
3
3
3
3
3
3
3
2
2
2
2
2
2
2
2
2
2
2
2
2
2
2
2
2
2
2
2
2
2
2
2
2
2
3
3
2
2
2
2
2
2
2
2
2
2
2
2
2
2
2
2
2
2
2
2
2
2
2
2
2
2
3
3
2
2
0
0
0
0
0
0
0
0
0
0
0
0
0
0
0
0
0
0
0
0
0
0
0
0
3
3
2
2
0
0
0
0
0
0
0
0
0
0
0
0
0
0
0
0
0
0
0
0
0
0
0
0
3
3
2
2
0
0
0
0
0
0
0
0
0
0
0
0
0
0
0
0
0
0
0
0
0
0
0
0
3
3
2
2
0
0
0
0
0
0
0
0
0
0
0
0
0
0
0
0
0
0
0
0
0
0
0
0
3
3
2
2
0
0
0
0
0
0
0
0
0
0
0
0
0
0
0
0
0
0
0
0
0
0
0
0
3
3
2
2
0
0
0
0
0
0
0
0
0
0
0
0
0
0
0
0
0
0
0
0
0
0
0
0
3
3
2
2
0
0
0
0
0
0
0
0
0
0
0
0
0
0
0
0
0
0
0
0
0
0
0
0
3
3
2
2
0
0
0
0
0
0
0
0
0
0
0
0
0
0
0
0
0
0
0
0
0
0
0
0
3
3
2
2
0
0
0
0
0
0
0
0
0
0
0
0
0
0
0
0
0
0
0
0
0
0
0
0
3
3
2
2
0
0
0
0
0
0
0
0
0
0
0
0
0
0
0
0
0
0
0
0
0
0
0
0
3
3
2
2
0
0
0
0
0
0
0
0
0
0
0
0
0
0
0
0
0
0
0
0
0
0
0
0
3
3
2
2
0
0
0
0
0
0
0
0
0
0
0
0
0
0
0
0
0
0
0
0
0
0
0
0
3
3
2
2
0
0
0
0
0
0
0
0
0
0
0
0
0
0
0
0
0
0
0
0
0
0
0
0
3
3
2
2
0
0
0
0
0
0
0
0
0
0
0
0
0
0
0
0
0
0
0
0
0
0
0
0
3
3
2
2
0
0
0
0
0
0
0
0
0
0
0
0
0
0
0
0
0
0
0
0
0
0
0
0
3
3
2
2
0
0
0
0
0
0
0
0
0
0
0
0
0
0
0
0
0
0
0
0
0
0
0
0
3
3
2
2
0
0
0
0
0
0
0
0
0
0
0
0
0
0
0
0
0
0
0
0
0
0
0
0
3
3
2
2
0
0
0
0
0
0
0
0
0
0
0
0
0
0
0
0
0
0
0
0
0
0
0
0
3
3
2
2
0
0
0
0
0
0
0
0
0
0
0
0
0
0
0
0
0
0
0
0
0
0
0
0
3
3
2
2
0
0
0
0
0
0
0
0
0
0
0
0
0
0
0
0
0
0
0
0
0
0
0
0
3
3
2
2
0
0
0
0
0
0
0
0
0
0
0
0
0
0
0
0
0
0
0
0
0
0
0
0
3
3
2
2
0
0
0
0
0
0
0
0
0
0
0
0
0
0
0
0
0
0
0
0
0
0
0
0
3
3
2
2
0
0
0
0
0
0
0
0
0
0
0
0
0
0
0
0
0
0
0
0
0
0
0
0
3
3
2
2
0
0
0
0
0
0
0
0
0
0
0
0
0
0
0
0
0
0
0
0
0
0
0
0
3
3
2
2
0
0
0
0
0
0
0
0
0
0
0
0
0
0
0
0
0
0
0
0
0
0
0
0
3
3
2
2
0
0
0
0
0
0
0
0
0
0
0
0
0
0
0
0
0
0
0
0
0
0
0
0
3
3
2
2
0
0
0
0
0
0
0
0
0
0
0
0
0
0
0
0
0
0
0
0
0
0
0
0
3
3
2
2
0
0
0
0
0
0
0
0
0
0
0
0
0
0
0
0
0
0
0
0
0
0
0
0
3
3
2
2
0
0
0
0
0
0
0
0
0
0
0
0
0
0
0
0
0
0
0
0
0
0
0
0
3
3
2
2
0
0
0
0
0
0
0
0
0
0
0
0
0
0
0
0
0
0
0
0
0
0
0
0
3
3
2
2
0
0
0
0
0
0
0
0
0
0
0
0
0
0
0
0
0
0
0
0
0
0
0
0
3
3
2
2
0
0
0
0
0
0
0
0
0
0
0
0
0
0
0
0
0
0
0
0
0
0
0
0
3
3
2
2
0
0
0
0
0
0
0
0
0
0
0
0
0
0
0
0
0
0
0
0
0
0
0
0
3
3
2
2
0
0
0
0
0
0
0
0
0
0
0
0
0
0
0
0
0
0
0
0
0
0
0
0
3
3
2
2
0
0
0
0
0
0
0
0
0
0
0
0
0
0
0
0
0
0
0
0
0
0
0
0
3
3
2
2
0
0
0
0
0
0
0
0
0
0
0
0
0
0
0
0
0
0
0
0
0
0
0
0
3
3
2
2
0
0
0
0
0
0
0
0
0
0
0
0
0
0
0
0
0
0
0
0
0
0
0
0
3
3
2
2
0
0
0
0
0
0
0
0
0
0
0
0
0
0
0
0
0
0
0
0
0
0
0
0
3
3
2
2
0
0
0
0
0
0
0
0
0
0
0
0
0
0
0
0
0
0
0
0
0
0
0
0
3
3
2
2
0
0
0
0
0
0
0
0
0
0
0
0
0
0
0
0
0
0
0
0
0
0
0
0
3
3
2
2
2
2
2
2
2
2
2
2
2
2
2
2
2
2
2
2
2
2
2
2
2
2
2
2
3
3
2
2
2
2
2
2
2
2
2
2
2
2
2
2
2
2
2
2
2
2
2
2
2
2
2
2
3
3
3
3
3
3
3
3
3
3
3
3
3
3
3
3
3
3
3
3
3
3
3
3
3
3
3
3
3
3
3
3
3
3
3
3
3
3
3
3
3
3
3
3
3
3
3
3
3
3
3
3
3
3
3
3
</DataArray>
<DataArray NumberOfComponents='1' type='Float32' Name='Velocity' format='ascii'>
0.000000
0.000000
0.000000
0.000000
0.000000
0.000000
0.000000
0.000000
0.000000
0.000000
0.000000
0.000000
0.000000
0.000000
0.000000
0.000000
0.000000
0.000000
0.000000
0.000000
0.000000
0.000000
0.000000
0.000000
0.000000
0.000000
0.000000
0.000000
0.000000
0.000000
0.000000
0.000000
0.000000
0.000000
0.000000
0.000000
0.000000
0.000000
0.000000
0.000000
0.000000
0.000000
0.000000
0.000000
0.000000
0.000000
0.000000
0.000000
0.000000
0.000000
0.000000
0.000000
0.000000
0.000000
0.000000
0.000000
0.000000
0.000000
0.000000
0.000000
0.000000
0.000000
0.000000
0.000000
0.000000
0.000000
0.000000
0.000000
0.000000
0.000000
0.000000
0.000000
0.000000
0.000000
0.000000
0.000000
0.000000
0.000000
0.000000
0.000000
0.000000
0.000000
0.000000
0.000000
0.000000
0.000000
0.000000
0.000000
0.000000
0.000000
0.000000
0.000000
0.000000
0.000000
0.000000
0.000000
0.000000
0.000000
0.000000
0.000000
0.000000
0.000000
0.000000
0.000000
0.000000
0.000000
0.000000
0.000000
0.000000
0.000000
0.000000
0.000000
0.000000
0.000000
0.000000
0.000000
0.044504
0.031662
0.040824
0.130369
0.341561
0.211800
0.115198
0.137660
0.115914
0.086908
0.253334
0.469293
0.131024
0.110767
0.159963
0.400816
0.116994
0.200444
0.284944
0.100000
0.100000
0.100000
0.100000
0.100000
0.000000
0.000000
0.000000
0.000000
0.237262
0.123467
0.164511
0.137006
0.044614
0.067327
0.258943
0.182970
0.166272
0.295435
0.202473
0.099892
0.219167
0.281859
0.436739
0.010410
0.177512
0.056367
0.255879
0.090627
0.100000
0.100000
0.100000
0.100000
0.000000
0.000000
0.000000
0.000000
0.118050
0.260059
0.139961
0.078658
0.152640
0.106417
0.125882
0.422133
0.260071
0.180281
0.063067
0.202860
0.112493
0.057015
0.164524
0.178065
0.024625
0.250674
0.044599
0.046118
0.133851
0.100000
0.100000
0.100000
0.000000
0.000000
0.000000
0.000000
0.117068
0.395724
0.066495
0.082707
0.327774
0.153328
0.095897
0.074241
0.090473
0.066402
0.202595
0.249751
0.096619
0.095407
0.178405
0.365819
0.138933
0.197723
0.086832
0.116091
0.099867
0.100000
0.100000
0.100000
0.000000
0.000000
0.000000
0.000000
0.321382
0.199520
0.182304
0.314591
0.123486
0.177939
0.305094
0.200675
0.141286
0.181214
0.101355
0.016236
0.116955
0.120035
0.109518
0.113286
0.169120
0.135807
0.117144
0.080422
0.100000
0.095582
0.100000
0.100000
0.000000
0.000000
0.000000
0.000000
0.079244
0.055644
0.165325
0.111710
0.173498
0.170742
0.218422
0.125071
0.268496
0.242996
0.186850
0.349081
0.331574
0.180654
0.109049
0.107664
0.266718
0.064569
0.056682
0.171706
0.151693
0.066732
0.100000
0.100000
0.000000
0.000000
0.000000
0.000000
0.028694
0.113816
0.087491
0.095667
0.127688
0.111863
0.128827
0.340123
0.036282
0.309808
0.157849
0.343196
0.162524
0.165994
0.106577
0.169574
0.173832
0.073633
0.049785
0.056432
0.054224
0.187824
0.100000
0.100000
0.000000
0.000000
0.000000
0.000000
0.082029
0.126780
0.176843
0.288838
0.129430
0.214742
0.256646
0.161954
0.078221
0.105380
0.343634
0.096133
0.126280
0.171807
0.137383
0.051126
0.068531
0.243691
0.181224
0.100084
0.125760
0.199370
0.038386
0.100000
0.000000
0.000000
0.000000
0.000000
0.065875
0.304982
0.138316
0.153098
0.093131
0.100441
0.237600
0.150881
0.178357
0.125238
0.283297
0.008515
0.147221
0.115730
0.165804
0.089987
0.130229
0.289286
0.303892
0.248218
0.137191
0.151282
0.100000
0.100000
0.000000
0.000000
0.000000
0.000000
0.006626
0.196358
0.145982
0.200193
0.252709
0.085881
0.106916
0.115598
0.106769
0.057113
0.179442
0.031504
0.225214
0.221338
0.098761
0.135576
0.183112
0.242662
0.213885
0.083027
0.110160
0.138822
0.100000
0.100000
0.000000
0.000000
0.000000
0.000000
0.082236
0.217315
0.156095
0.220844
0.039554
0.119151
0.153359
0.024290
0.218381
0.191550
0.096797
0.165573
0.198304
0.086197
0.261055
0.298429
0.066982
0.190278
0.264251
0.116922
0.225388
0.078733
0.100000
0.100000
0.000000
0.000000
0.000000
0.000000
0.071494
0.158658
0.114909
0.144166
0.235504
0.083789
0.161994
0.314925
0.082411
0.134342
0.107091
0.195984
0.179412
0.312976
0.077690
0.142859
0.356791
0.278398
0.266134
0.266965
0.149657
0.179108
0.198567
0.100000
0.000000
0.000000
0.000000
0.000000
0.068225
0.061136
0.088718
0.099162
0.166052
0.107560
0.164362
0.118913
0.012899
0.181933
0.158648
0.051977
0.109447
0.229330
0.086904
0.081244
0.213831
0.216400
0.181296
0.021856
0.115857
0.212461
0.100000
0.100000
0.000000
0.000000
0.000000
0.000000
0.081011
0.121978
0.122970
0.169273
0.196788
0.104001
0.175033
0.160720
0.162514
0.050822
0.104240
0.188035
0.298750
0.097588
0.168226
0.166850
0.102773
0.223510
0.120742
0.104881
0.320117
0.139578
0.100000
0.100000
0.000000
0.000000
0.000000
0.000000
0.092620
0.139362
0.060492
0.088288
0.269811
0.189892
0.057410
0.129474
0.188559
0.177558
0.198730
0.060491
0.216342
0.108646
0.355973
0.070370
0.096965
0.296533
0.407061
0.032969
0.126444
0.151930
0.100000
0.100000
0.000000
0.000000
0.000000
0.000000
0.074834
0.072198
0.237480
0.174753
0.048292
0.077885
0.290334
0.175976
0.140474
0.195895
0.184672
0.164033
0.027662
0.236626
0.162858
0.293589
0.140349
0.030341
0.281711
0.125347
0.197065
0.214978
0.100000
0.100000
0.000000
0.000000
0.000000
0.000000
0.016915
0.090801
0.068417
0.192057
0.028220
0.155376
0.116408
0.075248
0.210112
0.047837
0.042796
0.095292
0.142965
0.169257
0.142500
0.190140
0.227833
0.093678
0.126043
0.339173
0.041554
0.100000
0.100000
0.100000
0.000000
0.000000
0.000000
0.000000
0.046711
0.146950
0.254491
0.039222
0.152383
0.143198
0.062345
0.093962
0.035562
0.216184
0.093152
0.067637
0.029840
0.117895
0.215491
0.227824
0.258935
0.080963
0.150629
0.105085
0.131579
0.173680
0.100000
0.100000
0.000000
0.000000
0.000000
0.000000
0.017313
0.111592
0.130436
0.049680
0.084515
0.193121
0.112148
0.138119
0.158127
0.221074
0.229055
0.214263
0.015901
0.068028
0.121700
0.099409
0.181919
0.132482
0.176394
0.282918
0.042226
0.108391
0.100000
0.100000
0.000000
0.000000
0.000000
0.000000
0.056762
0.090886
0.124902
0.062590
0.054193
0.072297
0.195107
0.118220
0.290926
0.159782
0.045393
0.301415
0.045575
0.087507
0.087862
0.021905
0.102162
0.111329
0.214223
0.068080
0.056854
0.100000
0.100000
0.100000
0.000000
0.000000
0.000000
0.000000
0.031121
0.064812
0.194643
0.015630
0.062835
0.163709
0.059739
0.176178
0.142232
0.068995
0.087991
0.236519
0.126422
0.121079
0.022845
0.052664
0.077601
0.074344
0.358152
0.155091
0.263992
0.164496
0.100000
0.100000
0.000000
0.000000
0.000000
0.000000
0.067396
0.085777
0.057978
0.099056
0.118239
0.089038
0.314615
0.076814
0.051866
0.193042
0.102270
0.191427
0.099507
0.272753
0.186810
0.133822
0.085472
0.121583
0.089191
0.174887
0.360594
0.207378
0.089012
0.100000
0.000000
0.000000
0.000000
0.000000
0.056291
0.032286
0.056571
0.002836
0.153316
0.098137
0.089240
0.175646
0.057258
0.038489
0.166149
0.094592
0.079227
0.190322
0.154609
0.160317
0.079477
0.122802
0.072701
0.201186
0.258510
0.304332
0.100000
0.100000
0.000000
0.000000
0.000000
0.000000
0.097767
0.145576
0.081920
0.066486
0.007240
0.040539
0.257342
0.057507
0.198540
0.112811
0.017730
0.094765
0.250045
0.055864
0.217723
0.074574
0.157027
0.095504
0.055352
0.181253
0.226857
0.328884
0.100000
0.100000
0.000000
0.000000
0.000000
0.000000
0.072041
0.110809
0.021883
0.082031
0.029412
0.007172
0.246043
0.163242
0.142012
0.192859
0.054436
0.189573
0.194569
0.029930
0.113145
0.158322
0.164322
0.079759
0.032192
0.149516
0.182959
0.145017
0.105440
0.100000
0.000000
0.000000
0.000000
0.000000
0.025070
0.032355
0.176117
0.172789
0.034833
0.116628
0.224307
0.109430
0.114407
0.051200
0.149594
0.106140
0.178744
0.243393
0.082168
0.202063
0.176200
0.349155
0.185983
0.089083
0.147860
0.076391
0.100000
0.100000
0.000000
0.000000
0.000000
0.000000
0.089840
0.045899
0.123971
0.028789
0.104913
0.129630
0.197247
0.086241
0.122510
0.078340
0.114670
0.164232
0.268739
0.119597
0.099537
0.287347
0.071418
0.192024
0.052777
0.143750
0.179681
0.216672
0.100000
0.100000
0.000000
0.000000
0.000000
0.000000
0.083651
0.101802
0.119757
0.087114
0.185772
0.086235
0.235148
0.031772
0.108496
0.135963
0.159785
0.070704
0.251361
0.281823
0.095876
0.175164
0.279373
0.132783
0.013439
0.365238
0.162030
0.225480
0.100000
0.100000
0.000000
0.000000
0.000000
0.000000
0.184263
0.131767
0.091774
0.144165
0.091739
0.276382
0.121818
0.076985
0.004492
0.141422
0.176980
0.238034
0.047904
0.207612
0.174700
0.216200
0.251972
0.178462
0.214838
0.213760
0.296858
0.476968
0.100000
0.100000
0.000000
0.000000
0.000000
0.000000
0.112324
0.052491
0.210135
0.026268
0.491753
0.106099
0.153079
0.090273
0.053991
0.161212
0.013355
0.048729
0.140300
0.150742
0.027587
0.051063
0.144459
0.237430
0.355897
0.206394
0.314782
0.059229
0.100000
0.100000
0.000000
0.000000
0.000000
0.000000
0.130146
0.234260
0.158023
0.227404
0.121301
0.258055
0.046766
0.256495
0.050934
0.116222
0.022319
0.100826
0.179451
0.149637
0.180496
0.086899
0.162601
0.082842
0.059416
0.171521
0.187965
0.100000
0.100000
0.100000
0.000000
0.000000
0.000000
0.000000
0.110404
0.193393
0.123626
0.212552
0.172726
0.347967
0.112897
0.464199
0.361654
0.135259
0.144251
0.147868
0.140502
0.156512
0.125239
0.314735
0.031131
0.276099
0.088745
0.188438
0.161291
0.213141
0.203315
0.100000
0.000000
0.000000
0.000000
0.000000
0.194891
0.222567
0.150056
0.120524
0.034541
0.236034
0.053819
0.336950
0.258307
0.140498
0.196087
0.113450
0.072563
0.152580
0.066631
0.320215
0.166287
0.135780
0.089035
0.232974
0.283053
0.118741
0.214393
0.100000
0.000000
0.000000
0.000000
0.000000
0.110387
0.054097
0.092810
0.313420
0.112652
0.243433
0.062858
0.165180
0.239099
0.231963
0.065431
0.237460
0.067873
0.038196
0.139578
0.232493
0.128220
0.143974
0.142489
0.189630
0.187600
0.127978
0.226760
0.100000
0.000000
0.000000
0.000000
0.000000
0.039544
0.389654
0.099138
0.151575
0.148244
0.243920
0.135493
0.530572
0.211830
0.099266
0.287865
0.291769
0.209092
0.095272
0.121777
0.170892
0.154154
0.067479
0.176104
0.146819
0.025318
0.367794
0.131077
0.100000
0.000000
0.000000
0.000000
0.000000
0.141253
0.218298
0.104000
0.035993
0.180392
0.171943
0.062683
0.190594
0.184497
0.356909
0.436120
0.106540
0.087388
0.159028
0.078891
0.075367
0.151045
0.092862
0.346037
0.095433
0.388973
0.350635
0.109607
0.100000
0.000000
0.000000
0.000000
0.000000
0.164518
0.232647
0.154106
0.145226
0.235969
0.144656
0.242597
0.189894
0.263967
0.073650
0.136465
0.061444
0.131378
0.047926
0.161318
0.203698
0.268465
0.210527
0.335958
0.164801
0.320205
0.290433
0.120910
0.100000
0.000000
0.000000
0.000000
0.000000
0.121310
0.197342
0.205409
0.166608
0.265145
0.126149
0.202852
0.056529
0.205849
0.337619
0.107597
0.401472
0.175314
0.096724
0.038468
0.287305
0.132653
0.459873
0.191312
0.233333
0.164611
0.223915
0.264453
0.100000
0.000000
0.000000
0.000000
0.000000
0.066094
0.369507
0.234564
0.278376
0.084595
0.342778
0.168660
0.213937
0.185118
0.118037
0.031614
0.053895
0.209706
0.178649
0.132712
0.054845
0.219154
0.114181
0.105018
0.208199
0.270111
0.186294
0.081415
0.100000
0.000000
0.000000
0.000000
0.000000
0.141929
0.097884
0.075468
0.147850
0.197658
0.073275
0.058346
0.124361
0.101163
0.173640
0.228874
0.160317
0.121371
0.128155
0.020830
0.072265
0.356493
0.144144
0.129871
0.175787
0.155193
0.203496
0.097580
0.100000
0.000000
0.000000
0.000000
0.000000
0.000000
0.000000
0.000000
0.000000
0.000000
0.000000
0.000000
0.000000
0.000000
0.000000
0.000000
0.000000
0.000000
0.000000
0.000000
0.000000
0.000000
0.000000
0.000000
0.000000
0.000000
0.000000
0.000000
0.000000
0.000000
0.000000
0.000000
0.000000
0.000000
0.000000
0.000000
0.000000
0.000000
0.000000
0.000000
0.000000
0.000000
0.000000
0.000000
0.000000
0.000000
0.000000
0.000000
0.000000
0.000000
0.000000
0.000000
0.000000
0.000000
0.000000
0.000000
0.000000
0.000000
0.000000
0.000000
0.000000
0.000000
0.000000
0.000000
0.000000
0.000000
0.000000
0.000000
0.000000
0.000000
0.000000
0.000000
0.000000
0.000000
0.000000
0.000000
0.000000
0.000000
0.000000
0.000000
0.000000
0.000000
0.000000
0.000000
0.000000
0.000000
0.000000
0.000000
0.000000
0.000000
0.000000
0.000000
0.000000
0.000000
0.000000
0.000000
0.000000
0.000000
0.000000
0.000000
0.000000
0.000000
0.000000
0.000000
0.000000
0.000000
0.000000
0.000000
0.000000
0.000000
0.000000
0.000000
0.000000
</DataArray>
<DataArray NumberOfComponents='1' type='Float32' Name='pressure' format='ascii'>
0.000000
0.000000
0.000000
0.000000
0.000000
0.000000
0.000000
0.000000
0.000000
0.000000
0.000000
0.000000
0.000000
0.000000
0.000000
0.000000
0.000000
0.000000
0.000000
0.000000
0.000000
0.000000
0.000000
0.000000
0.000000
0.000000
0.000000
0.000000
0.000000
0.000000
0.000000
0.000000
0.000000
0.000000
0.000000
0.000000
0.000000
0.000000
0.000000
0.000000
0.000000
0.000000
0.000000
0.000000
0.000000
0.000000
0.000000
0.000000
0.000000
0.000000
0.000000
0.000000
0.000000
0.000000
0.000000
0.000000
0.000000
0.000000
56905.625000
56902.457031
56673.757812
58164.132812
57698.062500
57778.335938
58041.085938
58245.664062
58287.839844
56796.160156
58137.265625
58688.078125
58837.808594
57773.312500
58671.074219
58962.585938
59200.175781
59821.152344
59682.460938
60224.675781
59078.667969
58483.902344
55105.078125
47475.082031
36755.433594
0.000000
0.000000
0.000000
57036.070312
56639.445312
56507.914062
58149.519531
56350.699219
57864.070312
57930.625000
57956.285156
57907.953125
56270.726562
57777.613281
58122.843750
58738.847656
57639.886719
57561.847656
58965.652344
59661.246094
60285.871094
59909.898438
60776.605469
59553.781250
59336.324219
57631.386719
52324.132812
48467.062500
0.000000
0.000000
0.000000
57607.085938
57138.937500
56436.898438
57694.871094
57120.867188
57196.511719
57120.300781
57777.117188
57785.738281
56844.164062
57867.773438
58191.929688
58723.558594
58248.578125
59682.546875
59520.878906
59740.269531
60127.250000
60660.359375
62490.152344
59547.328125
64511.156250
55537.996094
42486.886719
70399.671875
69646.671875
0.000000
0.000000
57855.351562
57711.539062
57050.285156
56758.835938
57245.054688
55903.281250
56458.906250
57333.605469
56839.191406
57800.472656
58619.121094
57279.882812
58608.238281
58509.070312
59404.722656
59529.765625
61173.296875
60563.285156
61152.523438
63366.007812
59774.531250
66584.351562
78742.976562
61825.089844
77233.351562
70692.148438
0.000000
0.000000
57640.832031
56694.906250
56041.921875
56981.472656
57133.109375
57380.859375
57128.804688
57808.144531
57976.347656
57706.503906
58039.203125
56341.265625
58198.578125
58861.664062
58019.144531
59428.570312
60051.191406
59697.089844
61901.437500
64471.042969
64371.871094
63846.410156
68650.375000
69744.500000
71337.328125
70101.367188
0.000000
0.000000
56738.746094
56188.660156
57232.355469
56625.050781
56824.093750
57351.164062
56370.546875
56938.398438
57151.652344
56770.738281
56601.007812
57942.976562
57456.300781
57665.937500
59096.234375
59636.019531
60038.796875
60575.191406
62461.574219
62735.175781
66703.453125
69951.656250
68528.500000
73979.281250
74588.726562
68905.078125
0.000000
0.000000
56733.250000
56542.195312
56322.531250
57089.925781
56598.707031
57569.613281
56118.339844
56425.476562
56691.257812
56940.453125
56992.863281
57471.851562
57996.949219
57195.710938
59062.070312
59330.386719
60653.285156
61243.332031
61722.195312
64876.312500
65483.125000
70590.406250
77360.148438
70319.484375
71627.898438
65328.207031
0.000000
0.000000
56586.437500
56584.812500
56927.324219
56171.917969
56457.281250
56379.085938
56462.050781
56953.574219
56030.527344
56368.566406
56939.859375
57020.269531
56644.074219
58510.136719
57755.441406
58537.468750
59689.144531
60287.148438
61343.148438
63291.355469
64418.851562
65682.250000
65913.500000
68890.765625
61563.769531
59245.023438
0.000000
0.000000
55996.167969
56446.738281
56294.082031
56561.214844
56513.210938
56363.593750
56149.589844
55935.406250
56193.503906
55857.718750
56610.582031
56634.640625
57108.089844
56920.832031
57401.468750
58575.089844
59526.972656
59643.500000
60068.781250
61390.570312
63415.597656
61947.437500
63187.941406
67414.320312
63345.910156
57170.257812
0.000000
0.000000
55891.304688
56665.308594
56313.117188
55515.199219
55932.542969
56299.628906
55586.527344
56253.476562
55764.796875
56067.878906
56313.347656
56285.890625
55950.160156
56949.011719
57674.378906
56989.812500
58175.457031
57226.855469
58224.503906
61312.378906
62110.867188
61640.589844
64099.019531
66162.664062
57905.531250
55542.351562
0.000000
0.000000
54805.566406
54812.152344
55958.871094
55196.746094
56382.273438
55412.589844
55806.722656
54862.660156
55128.007812
55752.750000
54956.339844
55282.800781
56230.707031
55738.554688
56970.250000
56479.191406
57855.785156
58233.042969
58171.031250
58777.917969
58993.574219
60240.164062
59378.527344
63673.019531
56278.566406
53256.703125
0.000000
0.000000
54698.406250
55523.898438
55516.863281
55253.050781
54986.398438
55306.281250
54296.636719
54677.902344
54996.308594
54829.933594
55298.820312
56334.550781
55084.859375
56875.316406
55125.433594
56085.304688
56676.277344
55791.449219
56254.070312
57519.769531
56410.398438
57380.152344
57483.082031
62563.804688
49430.968750
51639.964844
0.000000
0.000000
53934.683594
54217.500000
55183.476562
54182.214844
55181.007812
54426.722656
54298.554688
54920.925781
53377.378906
54763.613281
54199.171875