<?xml version='1.0' encoding='UTF-8'?>
<VTKFile xmlns='VTK' byte_order='LittleEndian' version='0.1' type='UnstructuredGrid'>
<UnstructuredGrid>
<Piece NumberOfCells='1344' NumberOfPoints='1344'>
<Points>
<DataArray NumberOfComponents='3' type='Float32' Name='Position' format='ascii'>
-0.075000 -0.075000 0.000000
-0.075000 -0.050000 0.000000
-0.075000 -0.025000 0.000000
-0.075000 0.000000 0.000000
-0.075000 0.025000 0.000000
-0.075000 0.050000 0.000000
-0.075000 0.075000 0.000000
-0.075000 0.100000 0.000000
-0.075000 0.125000 0.000000
-0.075000 0.150000 0.000000
-0.075000 0.175000 0.000000
-0.075000 0.200000 0.000000
-0.075000 0.225000 0.000000
-0.075000 0.250000 0.000000
-0.075000 0.275000 0.000000
-0.075000 0.300000 0.000000
-0.075000 0.325000 0.000000
-0.075000 0.350000 0.000000
-0.075000 0.375000 0.000000
-0.075000 0.400000 0.000000
-0.075000 0.425000 0.000000
-0.075000 0.450000 0.000000
-0.075000 0.475000 0.000000
-0.075000 0.500000 0.000000
-0.075000 0.525000 0.000000
-0.075000 0.550000 0.000000
-0.075000 0.575000 0.000000
-0.075000 0.600000 0.000000
-0.050000 -0.075000 0.000000
-0.050000 -0.050000 0.000000
-0.050000 -0.025000 0.000000
-0.050000 0.000000 0.000000
-0.050000 0.025000 0.000000
-0.050000 0.050000 0.000000
-0.050000 0.075000 0.000000
-0.050000 0.100000 0.000000
-0.050000 0.125000 0.000000
-0.050000 0.150000 0.000000
-0.050000 0.175000 0.000000
-0.050000 0.200000 0.000000
-0.050000 0.225000 0.000000
-0.050000 0.250000 0.000000
-0.050000 0.275000 0.000000
-0.050000 0.300000 0.000000
-0.050000 0.325000 0.000000
-0.050000 0.350000 0.000000
-0.050000 0.375000 0.000000
-0.050000 0.400000 0.000000
-0.050000 0.425000 0.000000
-0.050000 0.450000 0.000000
-0.050000 0.475000 0.000000
-0.050000 0.500000 0.000000
-0.050000 0.525000 0.000000
-0.050000 0.550000 0.000000
-0.050000 0.575000 0.000000
-0.050000 0.600000 0.000000
-0.025000 -0.075000 0.000000
-0.025000 -0.050000 0.000000
-0.025000 -0.025000 0.000000
-0.025000 0.000000 0.000000
-0.025000 0.025000 0.000000
-0.025000 0.050000 0.000000
-0.025000 0.075000 0.000000
-0.025000 0.100000 0.000000
-0.025000 0.125000 0.000000
-0.025000 0.150000 0.000000
-0.025000 0.175000 0.000000
-0.025000 0.200000 0.000000
-0.025000 0.225000 0.000000
-0.025000 0.250000 0.000000
-0.025000 0.275000 0.000000
-0.025000 0.300000 0.000000
-0.025000 0.325000 0.000000
-0.025000 0.350000 0.000000
-0.025000 0.375000 0.000000
-0.025000 0.400000 0.000000
-0.025000 0.425000 0.000000
-0.025000 0.450000 0.000000
-0.025000 0.475000 0.000000
-0.025000 0.500000 0.000000
-0.025000 0.525000 0.000000
-0.025000 0.550000 0.000000
-0.025000 0.575000 0.000000
-0.025000 0.600000 0.000000
0.000000 -0.075000 0.000000
0.000000 -0.050000 0.000000
0.000000 -0.025000 0.000000
0.000000 0.000000 0.000000
0.000000 0.025000 0.000000
0.000000 0.050000 0.000000
0.000000 0.075000 0.000000
0.000000 0.100000 0.000000
0.000000 0.125000 0.000000
0.000000 0.150000 0.000000
0.000000 0.175000 0.000000
0.000000 0.200000 0.000000
0.000000 0.225000 0.000000
0.000000 0.250000 0.000000
0.000000 0.275000 0.000000
0.000000 0.300000 0.000000
0.000000 0.325000 0.000000
0.000000 0.350000 0.000000
0.000000 0.375000 0.000000
0.000000 0.400000 0.000000
0.000000 0.425000 0.000000
0.000000 0.450000 0.000000
0.000000 0.475000 0.000000
0.000000 0.500000 0.000000
0.000000 0.525000 0.000000
0.000000 0.550000 0.000000
0.000000 0.575000 0.000000
0.000000 0.600000 0.000000
0.025000 -0.075000 0.000000
0.025000 -0.050000 0.000000
0.025000 -0.025000 0.000000
0.025000 0.000000 0.000000
0.061560 0.021271 0.000000
0.126605 0.023814 0.000000
0.025085 0.023975 0.000000
0.025504 0.105704 0.000000
0.045221 0.121489 0.000000
0.071783 0.271170 0.000000
0.022543 0.190564 0.000000
0.052662 0.216284 0.000000
0.028016 0.238105 0.000000
0.025428 0.260834 0.000000
0.022950 0.365621 0.000000
0.025908 0.413221 0.000000
0.024451 0.491378 0.000000
0.022786 0.517814 0.000000
0.036285 0.539261 0.000000
0.050363 0.567189 0.000000
0.071890 0.581989 0.000000
0.098203 0.595738 0.000000
0.127381 0.576807 0.000000
0.058178 0.600000 0.000000
0.040522 0.600000 0.000000
0.014939 0.600000 0.000000
0.172644 0.600000 0.000000
0.191367 0.600000 0.000000
0.050000 -0.075000 0.000000
0.050000 -0.050000 0.000000
0.050000 -0.025000 0.000000
0.050000 0.000000 0.000000
0.147963 0.026487 0.000000
0.104889 0.042087 0.000000
0.023756 0.053053 0.000000
0.024838 0.079036 0.000000
0.022422 0.133732 0.000000
0.026215 0.163741 0.000000
0.050961 0.253566 0.000000
0.046988 0.280423 0.000000
0.023418 0.286509 0.000000
0.045770 0.352802 0.000000
0.027768 0.338053 0.000000
0.027576 0.390119 0.000000
0.026463 0.435072 0.000000
0.022950 0.461838 0.000000
0.044223 0.479983 0.000000
0.022685 0.557928 0.000000
0.061071 0.544833 0.000000
0.116960 0.544267 0.000000
0.029539 0.582682 0.000000
0.115749 0.600000 0.000000
0.133869 0.600000 0.000000
0.079681 0.600000 0.000000
0.212180 0.575785 0.000000
0.211239 0.600000 0.000000
0.075000 -0.075000 0.000000
0.075000 -0.050000 0.000000
0.075000 -0.025000 0.000000
0.075000 0.000000 0.000000
0.127226 0.052649 0.000000
0.092271 0.023240 0.000000
0.042986 0.040302 0.000000
0.045437 0.087289 0.000000
0.065308 0.235121 0.000000
0.043888 0.149649 0.000000
0.137099 0.275169 0.000000
0.026262 0.215810 0.000000
0.046756 0.310044 0.000000
0.024336 0.315563 0.000000
0.079480 0.368570 0.000000
0.081276 0.318984 0.000000
0.051872 0.401452 0.000000
0.054812 0.427452 0.000000
0.074111 0.443314 0.000000
0.046328 0.452198 0.000000
0.140660 0.529334 0.000000
0.139859 0.554387 0.000000
0.082983 0.556312 0.000000
0.103822 0.568057 0.000000
0.157354 0.576985 0.000000
0.153969 0.600000 0.000000
0.229870 0.600000 0.000000
0.249845 0.600000 0.000000
0.100000 -0.075000 0.000000
0.100000 -0.050000 0.000000
0.100000 -0.025000 0.000000
0.100000 0.000000 0.000000
0.116091 0.102789 0.000000
0.083819 0.105811 0.000000
0.064121 0.136744 0.000000
0.053570 0.061947 0.000000
0.045791 0.185612 0.000000
0.063398 0.101752 0.000000
0.088222 0.253273 0.000000
0.113076 0.243458 0.000000
0.089690 0.229913 0.000000
0.060769 0.332343 0.000000
0.074280 0.390532 0.000000
0.051810 0.374934 0.000000
0.098063 0.433636 0.000000
0.067654 0.468492 0.000000
0.062784 0.496403 0.000000
0.071557 0.521828 0.000000
0.047367 0.515949 0.000000
0.094908 0.535242 0.000000
0.173836 0.529914 0.000000
0.209480 0.542164 0.000000
0.163938 0.550978 0.000000
0.185062 0.577522 0.000000
0.272837 0.576060 0.000000
0.269831 0.600000 0.000000
0.125000 -0.075000 0.000000
0.125000 -0.050000 0.000000
0.125000 -0.025000 0.000000
0.125000 0.000000 0.000000
0.109709 0.125090 0.000000
0.107461 0.067954 0.000000
0.087561 0.158843 0.000000
0.138597 0.248687 0.000000
0.065037 0.196732 0.000000
0.126087 0.222927 0.000000
0.119148 0.293447 0.000000
0.081633 0.345602 0.000000
0.067208 0.298646 0.000000
0.104613 0.380582 0.000000
0.100240 0.403886 0.000000
0.078929 0.416452 0.000000
0.119770 0.442662 0.000000
0.086083 0.484667 0.000000
0.118638 0.468402 0.000000
0.113669 0.492286 0.000000
0.094232 0.509532 0.000000
0.119268 0.517259 0.000000
0.154034 0.509748 0.000000
0.228197 0.555963 0.000000
0.242377 0.579285 0.000000
0.188473 0.551900 0.000000
0.301396 0.578105 0.000000
0.288452 0.600000 0.000000
0.150000 -0.075000 0.000000
0.150000 -0.050000 0.000000
0.150000 -0.025000 0.000000
0.150000 0.000000 0.000000
0.146894 0.060223 0.000000
0.159847 0.129325 0.000000
0.089293 0.085072 0.000000
0.076408 0.043142 0.000000
0.063770 0.166593 0.000000
0.089391 0.180696 0.000000
0.088670 0.206490 0.000000
0.159453 0.284664 0.000000
0.113625 0.269798 0.000000
0.090212 0.283259 0.000000
0.133812 0.340933 0.000000
0.095557 0.461150 0.000000
0.129857 0.393189 0.000000
0.123035 0.417187 0.000000
0.151863 0.383500 0.000000
0.141299 0.457642 0.000000
0.157463 0.479926 0.000000
0.138487 0.491670 0.000000
0.197947 0.520371 0.000000
0.225085 0.516047 0.000000
0.241512 0.534299 0.000000
0.256358 0.555925 0.000000
0.307775 0.600000 0.000000
0.327390 0.600000 0.000000
0.175000 -0.075000 0.000000
0.175000 -0.050000 0.000000
0.175000 -0.025000 0.000000
0.175000 0.000000 0.000000
0.170202 0.027549 0.000000
0.139110 0.109767 0.000000
0.136139 0.136908 0.000000
0.088116 0.132771 0.000000
0.111481 0.151040 0.000000
0.116771 0.177121 0.000000
0.133882 0.188633 0.000000
0.172896 0.183256 0.000000
0.150465 0.226731 0.000000
0.162598 0.252591 0.000000
0.150279 0.303665 0.000000
0.108734 0.356983 0.000000
0.156882 0.357147 0.000000
0.183105 0.430158 0.000000
0.145694 0.415763 0.000000
0.173312 0.459266 0.000000
0.213872 0.470313 0.000000
0.186829 0.480914 0.000000
0.177545 0.501800 0.000000
0.207769 0.495922 0.000000
0.254160 0.511796 0.000000
0.270368 0.535071 0.000000
0.358642 0.577132 0.000000
0.345997 0.600000 0.000000
0.200000 -0.075000 0.000000
0.200000 -0.050000 0.000000
0.200000 -0.025000 0.000000
0.200000 0.000000 0.000000
0.152356 0.092458 0.000000
0.126846 0.082102 0.000000
0.205573 0.139911 0.000000
0.075091 0.065065 0.000000
0.176084 0.146585 0.000000
0.112576 0.204352 0.000000
0.257855 0.120996 0.000000
0.263842 0.100280 0.000000
0.153141 0.200166 0.000000
0.177222 0.230905 0.000000
0.161034 0.331631 0.000000
0.134612 0.320096 0.000000
0.103187 0.308223 0.000000
0.106070 0.334117 0.000000
0.133383 0.368004 0.000000
0.154822 0.441243 0.000000
0.196056 0.452821 0.000000
0.232894 0.492496 0.000000
0.281329 0.513313 0.000000
0.315080 0.511651 0.000000
0.301670 0.533381 0.000000
0.287339 0.553007 0.000000
0.387780 0.575405 0.000000
0.365105 0.600000 0.000000
0.225000 -0.075000 0.000000
0.225000 -0.050000 0.000000
0.225000 -0.025000 0.000000
0.225000 0.000000 0.000000
0.184509 0.049415 0.000000
0.184629 0.079773 0.000000
0.162487 0.164996 0.000000
0.138495 0.158023 0.000000
0.214918 0.084951 0.000000
0.201489 0.100198 0.000000
0.244294 0.142435 0.000000
0.201865 0.159877 0.000000
0.197421 0.186892 0.000000
0.224701 0.166670 0.000000
0.180615 0.263502 0.000000
0.179077 0.372924 0.000000
0.182167 0.348893 0.000000
0.183473 0.396699 0.000000
0.167584 0.413003 0.000000
[...]
<PointData>
<DataArray NumberOfComponents='1' type='Int32' Name='ParticleType' format='ascii'>
3
3
3
3
3
3
3
3
3
3
3
3
3
3
3
3
3
3
3
3
3
3
3
3
3
3
3
3
3
3
3
3
3
3
3
3
3
3
3
3
3
3
3
3
3
3
3
3
3
3
3
3
3
3
3
3
3
3
2
2
2
2
2
2
2
2
2
2
2
2
2
2
2
2
2
2
2
2
2
2
2
2
2
2
3
3
2
2
2
2
2
2
2
2
2
2
2
2
2
2
2
2
2
2
2
2
2
2
2
2
2
2
3
3
2
2
0
0
0
0
0
0
0
0
0
0
0
0
0
0
0
0
0
0
0
0
0
0
0
0
3
3
2
2
0
0
0
0
0
0
0
0
0
0
0
0
0
0
0
0
0
0
0
0
0
0
0
0
3
3
2
2
0
0
0
0
0
0
0
0
0
0
0
0
0
0
0
0
0
0
0
0
0
0
0
0
3
3
2
2
0
0
0
0
0
0
0
0
0
0
0
0
0
0
0
0
0
0
0
0
0
0
0
0
3
3
2
2
0
0
0
0
0
0
0
0
0
0
0
0
0
0
0
0
0
0
0
0
0
0
0
0
3
3
2
2
0
0
0
0
0
0
0
0
0
0
0
0
0
0
0
0
0
0
0
0
0
0
0
0
3
3
2
2
0
0
0
0
0
0
0
0
0
0
0
0
0
0
0
0
0
0
0
0
0
0
0
0
3
3
2
2
0
0
0
0
0
0
0
0
0
0
0
0
0
0
0
0
0
0
0
0
0
0
0
0
3
3
2
2
0
0
0
0
0
0
0
0
0
0
0
0
0
0
0
0
0
0
0
0
0
0
0
0
3
3
2
2
0
0
0
0
0
0
0
0
0
0
0
0
0
0
0
0
0
0
0
0
0
0
0
0
3
3
2
2
0
0
0
0
0
0
0
0
0
0
0
0
0
0
0
0
0
0
0
0
0
0
0
0
3
3
2
2
0
0
0
0
0
0
0
0
0
0
0
0
0
0
0
0
0
0
0
0
0
0
0
0
3
3
2
2
0
0
0
0
0
0
0
0
0
0
0
0
0
0
0
0
0
0
0
0
0
0
0
0
3
3
2
2
0
0
0
0
0
0
0
0
0
0
0
0
0
0
0
0
0
0
0
0
0
0
0
0
3
3
2
2
0
0
0
0
0
0
0
0
0
0
0
0
0
0
0
0
0
0
0
0
0
0
0
0
3
3
2
2
0
0
0
0
0
0
0
0
0
0
0
0
0
0
0
0
0
0
0
0
0
0
0
0
3
3
2
2
0
0
0
0
0
0
0
0
0
0
0
0
0
0
0
0
0
0
0
0
0
0
0
0
3
3
2
2
0
0
0
0
0
0
0
0
0
0
0
0
0
0
0
0
0
0
0
0
0
0
0
0
3
3
2
2
0
0
0
0
0
0
0
0
0
0
0
0
0
0
0
0
0
0
0
0
0
0
0
0
3
3
2
2
0
0
0
0
0
0
0
0
0
0
0
0
0
0
0
0
0
0
0
0
0
0
0
0
3
3
2
2
0
0
0
0
0
0
0
0
0
0
0
0
0
0
0
0
0
0
0
0
0
0
0
0
3
3
2
2
0
0
0
0
0
0
0
0
0
0
0
0
0
0
0
0
0
0
0
0
0
0
0
0
3
3
2
2
0
0
0
0
0
0
0
0
0
0
0
0
0
0
0
0
0
0
0
0
0
0
0
0
3
3
2
2
0
0
0
0
0
0
0
0
0
0
0
0
0
0
0
0
0
0
0
0
0
0
0
0
3
3
2
2
0
0
0
0
0
0
0
0
0
0
0
0
0
0
0
0
0
0
0
0
0
0
0
0
3
3
2
2
0
0
0
0
0
0
0
0
0
0
0
0
0
0
0
0
0
0
0
0
0
0
0
0
3
3
2
2
0
0
0
0
0
0
0
0
0
0
0
0
0
0
0
0
0
0
0
0
0
0
0
0
3
3
2
2
0
0
0
0
0
0
0
0
0
0
0
0
0
0
0
0
0
0
0
0
0
0
0
0
3
3
2
2
0
0
0
0
0
0
0
0
0
0
0
0
0
0
0
0
0
0
0
0
0
0
0
0
3
3
2
2
0
0
0
0
0
0
0
0
0
0
0
0
0
0
0
0
0
0
0
0
0
0
0
0
3
3
2
2
0
0
0
0
0
0
0
0
0
0
0
0
0
0
0
0
0
0
0
0
0
0
0
0
3
3
2
2
0
0
0
0
0
0
0
0
0
0
0
0
0
0
0
0
0
0
0
0
0
0
0
0
3
3
2
2
0
0
0
0
0
0
0
0
0
0
0
0
0
0
0
0
0
0
0
0
0
0
0
0
3
3
2
2
0
0
0
0
0
0
0
0
0
0
0
0
0
0
0
0
0
0
0
0
0
0
0
0
3
3
2
2
0
0
0
0
0
0
0
0
0
0
0
0
0
0
0
0
0
0
0
0
0
0
0
0
3
3
2
2
0
0
0
0
0
0
0
0
0
0
0
0
0
0
0
0
0
0
0
0
0
0
0
0
3
3
2
2
0
0
0
0
0
0
0
0
0
0
0
0
0
0
0
0
0
0
0
0
0
0
0
0
3
3
2
2
0
0
0
0
0
0
0
0
0
0
0
0
0
0
0
0
0
0
0
0
0
0
0
0
3
3
2
2
0
0
0
0
0
0
0
0
0
0
0
0
0
0
0
0
0
0
0
0
0
0
0
0
3
3
2
2
0
0
0
0
0
0
0
0
0
0
0
0
0
0
0
0
0
0
0
0
0
0
0
0
3
3
2
2
2
2
2
2
2
2
2
2
2
2
2
2
2
2
2
2
2
2
2
2
2
2
2
2
3
3
2
2
2
2
2
2
2
2
2
2
2
2
2
2
2
2
2
2
2
2
2
2
2
2
2
2
3
3
3
3
3
3
3
3
3
3
3
3
3
3
3
3
3
3
3
3
3
3
3
3
3
3
3
3
3
3
3
3
3
3
3
3
3
3
3
3
3
3
3
3
3
3
3
3
3
3
3
3
3
3
3
3
</DataArray>
<DataArray NumberOfComponents='1' type='Float32' Name='Velocity' format='ascii'>
0.000000
0.000000
0.000000
0.000000
0.000000
0.000000
0.000000
0.000000
0.000000
0.000000
0.000000
0.000000
0.000000
0.000000
0.000000
0.000000
0.000000
0.000000
0.000000
0.000000
0.000000
0.000000
0.000000
0.000000
0.000000
0.000000
0.000000
0.000000
0.000000
0.000000
0.000000
0.000000
0.000000
0.000000
0.000000
0.000000
0.000000
0.000000
0.000000
0.000000
0.000000
0.000000
0.000000
0.000000
0.000000
0.000000
0.000000
0.000000
0.000000
0.000000
0.000000
0.000000
0.000000
0.000000
0.000000
0.000000
0.000000
0.000000
0.000000
0.000000
0.000000
0.000000
0.000000
0.000000
0.000000
0.000000
0.000000
0.000000
0.000000
0.000000
0.000000
0.000000
0.000000
0.000000
0.000000
0.000000
0.000000
0.000000
0.000000
0.000000
0.000000
0.000000
0.000000
0.000000
0.000000
0.000000
0.000000
0.000000
0.000000
0.000000
0.000000
0.000000
0.000000
0.000000
0.000000
0.000000
0.000000
0.000000
0.000000
0.000000
0.000000
0.000000
0.000000
0.000000
0.000000
0.000000
0.000000
0.000000
0.000000
0.000000
0.000000
0.000000
0.000000
0.000000
0.000000
0.000000
0.027882
0.112898
0.100140
0.310731
0.203042
0.120140
0.270448
0.209633
0.099167
0.263067
0.041377
0.147737
0.233211
0.126121
0.056164
0.099094
0.100000
0.100000
0.100000
0.100000
0.100000
0.100000
0.100000
0.100000
0.000000
0.000000
0.000000
0.000000
0.157376
0.247428
0.167322
0.317312
0.324807
0.469154
0.332837
0.273205
0.261129
0.208660
0.231696
0.181509
0.162539
0.152325
0.254583
0.213031
0.231868
0.192019
0.100000
0.100000
0.100000
0.100000
0.100000
0.100000
0.000000
0.000000
0.000000
0.000000
0.169948
0.260561
0.032311
0.125421
0.150136
0.018594
0.101916
0.129513
0.352192
0.217513
0.049446
0.097379
0.175805
0.135520
0.092479
0.198962
0.224423
0.213564
0.167917
0.376834
0.100000
0.100000
0.100000
0.100000
0.000000
0.000000
0.000000
0.000000
0.245247
0.130962
0.352475
0.382190
0.313341
0.159118
0.372462
0.134190
0.126313
0.133520
0.101196
0.131716
0.196578
0.062181
0.112616
0.074832
0.200403
0.179318
0.029632
0.210581
0.266983
0.100000
0.100000
0.100000
0.000000
0.000000
0.000000
0.000000
0.095834
0.345317
0.166134
0.246752
0.309925
0.131485
0.189046
0.052793
0.303454
0.017299
0.212816
0.192325
0.205428
0.075398
0.193424
0.131895
0.112299
0.232862
0.103829
0.062681
0.100000
0.218665
0.100000
0.100000
0.000000
0.000000
0.000000
0.000000
0.270800
0.261673
0.253426
0.400421
0.149240
0.107038
0.240194
0.118075
0.191055
0.452120
0.225711
0.103894
0.025807
0.112581
0.193961
0.246090
0.350311
0.125583
0.125389
0.052278
0.148513
0.072539
0.100000
0.100000
0.000000
0.000000
0.000000
0.000000
0.029279
0.137134
0.298516
0.132635
0.092700
0.192571
0.085288
0.119453
0.092438
0.075455
0.223748
0.135725
0.207097
0.375072
0.081508
0.365510
0.102207
0.211807
0.066179
0.212744
0.169544
0.127556
0.100000
0.100000
0.000000
0.000000
0.000000
0.000000
0.128440
0.160103
0.138236
0.123179
0.316606
0.417230
0.094247
0.171054
0.234027
0.061900
0.103245
0.210678
0.074880
0.090408
0.240558
0.041013
0.105496
0.162568
0.050973
0.087152
0.080062
0.116640
0.100000
0.100000
0.000000
0.000000
0.000000
0.000000
0.402382
0.144422
0.283767
0.133993
0.274818
0.191387
0.184250
0.190228
0.243611
0.104197
0.095519
0.271498
0.121257
0.233958
0.124199
0.106169
0.244356
0.178192
0.285159
0.266937
0.226723
0.027384
0.216833
0.100000
0.000000
0.000000
0.000000
0.000000
0.105695
0.119196
0.315668
0.127565
0.069675
0.340315
0.191643
0.161483
0.089401
0.175447
0.132443
0.153013
0.070529
0.240763
0.132682
0.122190
0.184998
0.290542
0.223650
0.196404
0.281667
0.157940
0.100000
0.100000
0.000000
0.000000
0.000000
0.000000
0.155103
0.092797
0.154579
0.183390
0.312043
0.156703
0.077675
0.074243
0.219716
0.118427
0.161013
0.093577
0.016915
0.254285
0.038172
0.192524
0.136016
0.131589
0.067007
0.165853
0.189298
0.100000
0.230838
0.100000
0.000000
0.000000
0.000000
0.000000
0.069679
0.179805
0.162233
0.142477
0.191840
0.084743
0.105297
0.073554
0.077968
0.179129
0.171859
0.075298
0.291602
0.101906
0.130023
0.050315
0.105226
0.296528
0.266967
0.146642
0.358703
0.134025
0.167308
0.100000
0.000000
0.000000
0.000000
0.000000
0.052450
0.136188
0.162372
0.172144
0.218225
0.109691
0.261700
0.133715
0.058789
0.230362
0.289658
0.258674
0.171778
0.309267
0.147754
0.209830
0.129294
0.245891
0.098312
0.253567
0.160217
0.214595
0.100000
0.100000
0.000000
0.000000
0.000000
0.000000
0.178409
0.103534
0.052448
0.075239
0.152506
0.009108
0.111177
0.022326
0.143500
0.097460
0.200688
0.241760
0.270227
0.179345
0.224027
0.027168
0.137110
0.040057
0.020432
0.198846
0.298123
0.284995
0.220118
0.100000
0.000000
0.000000
0.000000
0.000000
0.173758
0.191842
0.064979
0.212232
0.078192
0.117181
0.095883
0.054924
0.395762
0.195555
0.178080
0.127590
0.104498
0.150866
0.063357
0.231670
0.045480
0.130223
0.045848
0.017993
0.086049
0.102690
0.100000
0.100000
0.000000
0.000000
0.000000
0.000000
0.183324
0.079598
0.219965
0.083691
0.204993
0.117824
0.113348
0.148686
0.211343
0.445527
0.078257
0.211225
0.190329
0.142489
0.130773
0.154825
0.169285
0.182470
0.133265
0.250183
0.225652
0.166232
0.100000
0.100000
0.000000
0.000000
0.000000
0.000000
0.157575
0.198697
0.117738
0.186350
0.173816
0.203531
0.115651
0.299430
0.343769
0.299882
0.183951
0.214874
0.288902
0.179782
0.159131
0.132071
0.247919
0.094151
0.118110
0.187672
0.159674
0.289259
0.082554
0.100000
0.000000
0.000000
0.000000
0.000000
0.073666
0.087963
0.122894
0.211031
0.215740
0.087957
0.080007
0.053260
0.143694
0.191814
0.138938
0.226822
0.057550
0.233151
0.109361
0.181652
0.138262
0.123757
0.045878
0.153297
0.468718
0.348555
0.212373
0.100000
0.000000
0.000000
0.000000
0.000000
0.123718
0.075514
0.268682
0.228278
0.392590
0.094039
0.143872
0.183078
0.362223
0.320190
0.108905
0.119545
0.229883
0.183001
0.258603
0.221534
0.061974
0.037200
0.242967
0.204741
0.227723
0.452675
0.128723
0.100000
0.000000
0.000000
0.000000
0.000000
0.102286
0.101770
0.035607
0.080041
0.134624
0.323911
0.061578
0.098079
0.167380
0.084665
0.146031
0.039878
0.146147
0.145058
0.055071
0.072712
0.154902
0.157586
0.098740
0.190100
0.196685
0.205858
0.100000
0.100000
0.000000
0.000000
0.000000
0.000000
0.120435
0.052205
0.152026
0.260176
0.076367
0.265191
0.188975
0.145079
0.089487
0.255767
0.365131
0.201668
0.144711
0.080180
0.217557
0.159754
0.174378
0.085410
0.143770
0.206494
0.150935
0.155201
0.159955
0.100000
0.000000
0.000000
0.000000
0.000000
0.068326
0.011973
0.117091
0.139811
0.114996
0.084736
0.204945
0.153931
0.120625
0.166200
0.168387
0.084289
0.262003
0.193453
0.297214
0.076897
0.181312
0.117870
0.377232
0.068877
0.178221
0.153993
0.185648
0.100000
0.000000
0.000000
0.000000
0.000000
0.080814
0.057486
0.189013
0.200319
0.162977
0.167659
0.238575
0.254160
0.129735
0.147187
0.190256
0.150204
0.277255
0.204651
0.165828
0.274789
0.087993
0.256481
0.195575
0.208130
0.221467
0.181678
0.309090
0.100000
0.000000
0.000000
0.000000
0.000000
0.059770
0.115713
0.154405
0.190328
0.344726
0.226756
0.213683
0.163314
0.163115
0.068100
0.149437
0.304422
0.080641
0.166483
0.183082
0.098391
0.182541
0.142506
0.273981
0.273587
0.069940
0.211929
0.432524
0.100000
0.000000
0.000000
0.000000
0.000000
0.112964
0.130456
0.076267
0.160506
0.082861
0.275712
0.094271
0.134232
0.148972
0.139636
0.140906
0.220701
0.125135
0.155313
0.086953
0.044280
0.215805
0.019296
0.234648
0.102017
0.173904
0.392363
0.428959
0.100000
0.000000
0.000000
0.000000
0.000000
0.027692
0.087200
0.192500
0.105888
0.017017
0.038348
0.107837
0.139436
0.142356
0.235180
0.161159
0.235846
0.176357
0.060891
0.067745
0.088178
0.238531
0.040796
0.127424
0.096741
0.258753
0.379711
0.100000
0.100000
0.000000
0.000000
0.000000
0.000000
0.096409
0.202581
0.025183
0.066742
0.062743
0.244376
0.186426
0.148534
0.166662
0.220931
0.146955
0.047361
0.201177
0.090694
0.171818
0.135095
0.141097
0.082729
0.013158
0.396279
0.232248
0.272265
0.291686
0.100000
0.000000
0.000000
0.000000
0.000000
0.115255
0.143655
0.193875
0.093477
0.094396
0.279015
0.295895
0.093341
0.043115
0.035108
0.126774
0.235554
0.104585
0.015718
0.130010
0.189757
0.067433
0.147084
0.094454
0.081890
0.015283
0.194370
0.746010
0.100000
0.000000
0.000000
0.000000
0.000000
0.030840
0.060832
0.127519
0.126396
0.021556
0.122176
0.238846
0.135878
0.048966
0.091911
0.063976
0.105636
0.226970
0.209551
0.120029
0.092660
0.071501
0.308010
0.088127
0.070038
0.227895
0.039577
0.100000
0.100000
0.000000
0.000000
0.000000
0.000000
0.095993
0.174475
0.122766
0.144162
0.074422
0.150379
0.089904
0.081408
0.189408
0.253702
0.213004
0.199915
0.071317
0.158167
0.094191
0.168595
0.105281
0.164037
0.116634
0.035432
0.135224
0.026097
0.332849
0.100000
0.000000
0.000000
0.000000
0.000000
0.182699
0.083373
0.200545
0.162358
0.028352
0.270948
0.124358
0.350308
0.096132
0.162923
0.154556
0.019437
0.233256
0.115394
0.119124
0.248772
0.178823
0.083683
0.079943
0.116090
0.060432
0.255333
0.219131
0.100000
0.000000
0.000000
0.000000
0.000000
0.128320
0.124973
0.166155
0.121253
0.022664
0.336417
0.146699
0.393269
0.232481
0.050948
0.135607
0.240707
0.107662
0.181967
0.196035
0.181159
0.137762
0.104496
0.114176
0.120439
0.214979
0.152422
0.572868
0.100000
0.000000
0.000000
0.000000
0.000000
0.099088
0.070732
0.176196
0.159934
0.199254
0.076581
0.126061
0.178365
0.139658
0.136583
0.505553
0.209063
0.104565
0.069194
0.242957
0.246187
0.106511
0.154336
0.127625
0.131709
0.265644
0.738039
0.284549
0.100000
0.000000
0.000000
0.000000
0.000000
0.093649
0.110409
0.081583
0.162465
0.204062
0.066095
0.155689
0.157553
0.258989
0.064994
0.136703
0.297324
0.160371
0.099134
0.136253
0.042967
0.138365
0.060938
0.068607
0.157419
0.203237
0.351168
0.055178
0.100000
0.000000
0.000000
0.000000
0.000000
0.015600
0.125256
0.172678
0.093100
0.066208
0.236229
0.076647
0.200510
0.123991
0.077213
0.053959
0.229031
0.188866
0.230956
0.148254
0.099815
0.081909
0.161541
0.049656
0.069688
0.025396
0.103524
0.336274
0.100000
0.000000
0.000000
0.000000
0.000000
0.127361
0.059712
0.179798
0.197891
0.148612
0.406859
0.276114
0.014276
0.092575
0.145594
0.069183
0.151367
0.127257
0.084543
0.113925
0.116298
0.091351
0.101760
0.133181
0.098920
0.089656
0.247470
0.546678
0.100000
0.000000
0.000000
0.000000
0.000000
0.249113
0.217571
0.180128
0.072224
0.192091
0.139510
0.181868
0.251967
0.134308
0.089830
0.095499
0.105967
0.115099
0.177667
0.226978
0.178052
0.034522
0.043754
0.067854
0.188603
0.167544
0.231642
0.539878
0.100000
0.000000
0.000000
0.000000
0.000000
0.161217
0.070190
0.171531
0.192060
0.250305
0.311473
0.040046
0.127425
0.300518
0.029324
0.179804
0.115059
0.179632
0.316096
0.226117
0.191394
0.061688
0.052749
0.105115
0.079023
0.239152
0.363460
0.272182
0.100000
0.000000
0.000000
0.000000
0.000000
0.185773
0.181510
0.147802
0.160976
0.113485
0.061255
0.168670
0.182108
0.168662
0.135359
0.138610
0.125246
0.292330
0.074424
0.139660
0.196001
0.260945
0.084105
0.153303
0.090699
0.093626
0.451207
0.493271
0.100000
0.000000
0.000000
0.000000
0.000000
0.213902
0.134406
0.212556
0.096131
0.146005
0.104300
0.024689
0.148888
0.136398
0.247261
0.136108
0.099291
0.336989
0.292379
0.082837
0.030807
0.139145
0.045576
0.236395
0.132858
0.395300
0.321903
0.129404
0.100000
0.000000
0.000000
0.000000
0.000000
0.000000
0.000000
0.000000
0.000000
0.000000
0.000000
0.000000
0.000000
0.000000
0.000000
0.000000
0.000000
0.000000
0.000000
0.000000
0.000000
0.000000
0.000000
0.000000
0.000000
0.000000
0.000000
0.000000
0.000000
0.000000
0.000000
0.000000
0.000000
0.000000
0.000000
0.000000
0.000000
0.000000
0.000000
0.000000
0.000000
0.000000
0.000000
0.000000
0.000000
0.000000
0.000000
0.000000
0.000000
0.000000
0.000000
0.000000
0.000000
0.000000
0.000000
0.000000
0.000000
0.000000
0.000000
0.000000
0.000000
0.000000
0.000000
0.000000
0.000000
0.000000
0.000000
0.000000
0.000000
0.000000
0.000000
0.000000
0.000000
0.000000
0.000000
0.000000
0.000000
0.000000
0.000000
0.000000
0.000000
0.000000
0.000000
0.000000
0.000000
0.000000
0.000000
0.000000
0.000000
0.000000
0.000000
0.000000
0.000000
0.000000
0.000000
0.000000
0.000000
0.000000
0.000000
0.000000
0.000000
0.000000
0.000000
0.000000
0.000000
0.000000
0.000000
0.000000
0.000000
0.000000
0.000000
0.000000
0.000000
</DataArray>
<DataArray NumberOfComponents='1' type='Float32' Name='pressure' format='ascii'>
0.000000
0.000000
0.000000
0.000000
0.000000
0.000000
0.000000
0.000000
0.000000
0.000000
0.000000
0.000000
0.000000
0.000000
0.000000
0.000000
0.000000
0.000000
0.000000
0.000000
0.000000
0.000000
0.000000
0.000000
0.000000
0.000000
0.000000
0.000000
0.000000
0.000000
0.000000
0.000000
0.000000
0.000000
0.000000
0.000000
0.000000
0.000000
0.000000
0.000000
0.000000
0.000000
0.000000
0.000000
0.000000
0.000000
0.000000
0.000000
0.000000
0.000000
0.000000
0.000000
0.000000
0.000000
0.000000
0.000000
0.000000
0.000000
26952.509766
26855.753906
26655.746094
26704.523438
25694.693359
24733.275391
24994.015625
24029.896484
24003.957031
24304.220703
22669.185547
22475.509766
23094.347656
23123.539062
22775.873047
22626.105469
23067.542969
21998.757812
22360.164062
23662.603516
23955.443359
23976.650391
23381.023438
21279.236328
18007.900391
0.000000
0.000000
0.000000
27030.900391
27167.347656
26962.677734
27196.189453
25855.296875
24459.933594
24616.468750
22871.683594
23847.691406
25210.595703
22670.189453
22599.363281
23577.859375
23117.191406
22496.558594
22568.767578
22731.675781
22496.947266
22939.498047
23955.001953
23973.578125
23855.994141
23901.382812
21205.406250
22899.878906
12971.868164
0.000000
0.000000
27519.894531
26670.361328
26803.408203
26155.138672
25018.316406
23595.234375
25393.253906
25530.826172
25571.410156
22375.169922
22989.855469
23133.642578
23421.400391
24132.675781
23002.558594
23410.001953
22047.472656
18551.267578
21417.755859
20587.931641
26293.460938
0.000000
0.000000
17367.285156
0.000000
16411.416016
0.000000
0.000000
28180.820312
26768.923828
26575.144531
27142.792969
25271.351562
25862.660156
23807.519531
22464.417969
23532.302734
22799.949219
22958.097656
24023.746094
22423.925781
23788.025391
24181.947266
23836.529297
23949.755859
22673.253906
21146.142578
21929.308594
25278.468750
20646.847656
19983.945312
0.000000
26717.947266
20476.748047
0.000000
0.000000
28461.367188
27467.933594
26162.523438
26182.890625
27255.402344
25892.748047
24132.974609
25291.791016
24411.195312
23395.451172
22956.125000
23728.447266
24003.544922
24291.199219
23098.625000
22863.287109
23728.048828
23465.687500
22973.556641
23721.455078
19432.373047
21495.234375
24598.724609
15229.176758
22520.914062
23159.199219
0.000000
0.000000
27619.460938
26911.449219
25770.519531
25882.224609
24431.843750
25600.777344
23987.947266
25212.544922
23611.638672
24832.873047
25062.585938
23195.900391
24203.710938
22717.863281
23586.406250
23065.371094
22311.169922
22120.099609
21855.472656
22146.943359
23036.320312
24701.101562
23807.222656
25395.369141
29380.109375
23432.853516
0.000000
0.000000
27132.001953
26767.822266
25806.921875
25967.439453
25653.982422
24644.048828
25207.582031
24238.048828
23924.199219
23722.865234
23677.173828
23377.013672
23940.048828
23869.996094
22901.779297
22769.095703
24230.392578
23257.947266
23209.285156
22620.767578
23737.890625
25994.876953
30999.613281
22534.052734
29476.412109
23241.548828
0.000000
0.000000
25789.662109
26578.837891
25965.609375
25139.220703
25680.107422
25726.175781
23392.361328
24482.386719
25442.273438
25140.191406
24497.931641
24122.087891
24058.392578
22979.568359
23371.861328
24516.548828
22702.388672
23716.687500
23263.162109
23287.878906
24790.771484
24383.251953
25759.582031
25255.521484
23283.117188
21895.666016
0.000000
0.000000
25340.347656
25327.529297
26341.697266
24978.138672
25851.212891
25876.625000
24199.296875
25492.162109
25893.537109
25200.796875
24810.039062
24647.544922
23555.958984
24055.388672
24235.312500
23017.767578
24178.847656
24339.339844
23794.599609
24032.193359
23804.357422
24293.658203
25199.509766
25606.021484
26283.228516
21031.207031
0.000000
0.000000
26357.785156
25613.027344
25732.757812
26145.859375
24827.783203
26733.437500
24905.152344
23487.742188
25627.402344
25103.089844
24658.279297
24695.792969
23958.220703
24390.724609
24331.628906
23108.853516
24536.919922
22763.914062
24423.337891
24756.220703
24505.056641
23821.535156
24525.613281
24450.138672
23928.501953
21086.542969
0.000000
0.000000
26999.855469
26586.816406
25665.660156
24572.330078
25631.748047
24776.710938
26881.966797
25859.037109
25069.250000
25530.458984
24495.998047
24497.488281
23891.693359
24261.021484
24077.863281
24237.794922
25115.824219
24916.656250
23783.458984
24482.019531
24599.738281
23768.587891
22822.441406
24509.060547
22071.833984
20639.968750
0.000000
0.000000
26130.923828
26379.814453
26943.476562
27037.595703
25967.537109
26229.511719
25668.353516
24241.560547
24553.425781
25518.687500
25299.318359
25147.267578
24780.134766
24034.632812
23851.578125
24557.222656
24384.197266
24058.484375
23240.478516
24381.769531
22584.355469
23642.992188
22097.857422
24544.533203
19879.048828
19666.539062
0.000000
0.000000
25764.193359
25893.560547
25908.607422
25566.972656
25764.525391
25632.267578
24327.708984
24751.833984
25226.521484
25081.220703
25613.621094
24795.234375