<?xml version='1.0' encoding='UTF-8'?>
<VTKFile xmlns='VTK' byte_order='LittleEndian' version='0.1' type='UnstructuredGrid'>
<UnstructuredGrid>
<Piece NumberOfCells='1344' NumberOfPoints='1344'>
<Points>
<DataArray NumberOfComponents='3' type='Float32' Name='Position' format='ascii'>
-0.075000 -0.075000 0.000000
-0.075000 -0.050000 0.000000
-0.075000 -0.025000 0.000000
-0.075000 0.000000 0.000000
-0.075000 0.025000 0.000000
-0.075000 0.050000 0.000000
-0.075000 0.075000 0.000000
-0.075000 0.100000 0.000000
-0.075000 0.125000 0.000000
-0.075000 0.150000 0.000000
-0.075000 0.175000 0.000000
-0.075000 0.200000 0.000000
-0.075000 0.225000 0.000000
-0.075000 0.250000 0.000000
-0.075000 0.275000 0.000000
-0.075000 0.300000 0.000000
-0.075000 0.325000 0.000000
-0.075000 0.350000 0.000000
-0.075000 0.375000 0.000000
-0.075000 0.400000 0.000000
-0.075000 0.425000 0.000000
-0.075000 0.450000 0.000000
-0.075000 0.475000 0.000000
-0.075000 0.500000 0.000000
-0.075000 0.525000 0.000000
-0.075000 0.550000 0.000000
-0.075000 0.575000 0.000000
-0.075000 0.600000 0.000000
-0.050000 -0.075000 0.000000
-0.050000 -0.050000 0.000000
-0.050000 -0.025000 0.000000
-0.050000 0.000000 0.000000
-0.050000 0.025000 0.000000
-0.050000 0.050000 0.000000
-0.050000 0.075000 0.000000
-0.050000 0.100000 0.000000
-0.050000 0.125000 0.000000
-0.050000 0.150000 0.000000
-0.050000 0.175000 0.000000
-0.050000 0.200000 0.000000
-0.050000 0.225000 0.000000
-0.050000 0.250000 0.000000
-0.050000 0.275000 0.000000
-0.050000 0.300000 0.000000
-0.050000 0.325000 0.000000
-0.050000 0.350000 0.000000
-0.050000 0.375000 0.000000
-0.050000 0.400000 0.000000
-0.050000 0.425000 0.000000
-0.050000 0.450000 0.000000
-0.050000 0.475000 0.000000
-0.050000 0.500000 0.000000
-0.050000 0.525000 0.000000
-0.050000 0.550000 0.000000
-0.050000 0.575000 0.000000
-0.050000 0.600000 0.000000
-0.025000 -0.075000 0.000000
-0.025000 -0.050000 0.000000
-0.025000 -0.025000 0.000000
-0.025000 0.000000 0.000000
-0.025000 0.025000 0.000000
-0.025000 0.050000 0.000000
-0.025000 0.075000 0.000000
-0.025000 0.100000 0.000000
-0.025000 0.125000 0.000000
-0.025000 0.150000 0.000000
-0.025000 0.175000 0.000000
-0.025000 0.200000 0.000000
-0.025000 0.225000 0.000000
-0.025000 0.250000 0.000000
-0.025000 0.275000 0.000000
-0.025000 0.300000 0.000000
-0.025000 0.325000 0.000000
-0.025000 0.350000 0.000000
-0.025000 0.375000 0.000000
-0.025000 0.400000 0.000000
-0.025000 0.425000 0.000000
-0.025000 0.450000 0.000000
-0.025000 0.475000 0.000000
-0.025000 0.500000 0.000000
-0.025000 0.525000 0.000000
-0.025000 0.550000 0.000000
-0.025000 0.575000 0.000000
-0.025000 0.600000 0.000000
0.000000 -0.075000 0.000000
0.000000 -0.050000 0.000000
0.000000 -0.025000 0.000000
0.000000 0.000000 0.000000
0.000000 0.025000 0.000000
0.000000 0.050000 0.000000
0.000000 0.075000 0.000000
0.000000 0.100000 0.000000
0.000000 0.125000 0.000000
0.000000 0.150000 0.000000
0.000000 0.175000 0.000000
0.000000 0.200000 0.000000
0.000000 0.225000 0.000000
0.000000 0.250000 0.000000
0.000000 0.275000 0.000000
0.000000 0.300000 0.000000
0.000000 0.325000 0.000000
0.000000 0.350000 0.000000
0.000000 0.375000 0.000000
0.000000 0.400000 0.000000
0.000000 0.425000 0.000000
0.000000 0.450000 0.000000
0.000000 0.475000 0.000000
0.000000 0.500000 0.000000
0.000000 0.525000 0.000000
0.000000 0.550000 0.000000
0.000000 0.575000 0.000000
0.000000 0.600000 0.000000
0.025000 -0.075000 0.000000
0.025000 -0.050000 0.000000
0.025000 -0.025000 0.000000
0.025000 0.000000 0.000000
0.023716 0.024658 0.000000
0.037406 0.043198 0.000000
0.024105 0.061810 0.000000
0.023537 0.113497 0.000000
0.022307 0.183671 0.000000
0.028108 0.206210 0.000000
0.022957 0.230695 0.000000
0.030824 0.252370 0.000000
0.023459 0.273904 0.000000
0.026708 0.300639 0.000000
0.023821 0.324483 0.000000
0.025500 0.350815 0.000000
0.025566 0.373296 0.000000
0.023686 0.400177 0.000000
0.025614 0.425251 0.000000
0.023947 0.451403 0.000000
0.027440 0.475861 0.000000
0.024056 0.498354 0.000000
0.021442 0.539369 0.000000
0.023354 0.569680 0.000000
0.032773 0.593440 0.000000
0.014099 0.600000 0.000000
0.088652 0.600000 0.000000
0.108105 0.600000 0.000000
0.050000 -0.075000 0.000000
0.050000 -0.050000 0.000000
0.050000 -0.025000 0.000000
0.050000 0.000000 0.000000
0.052996 0.024639 0.000000
0.064516 0.058842 0.000000
0.050021 0.075218 0.000000
0.025259 0.085601 0.000000
0.022700 0.142602 0.000000
0.038977 0.158638 0.000000
0.048048 0.179829 0.000000
0.050552 0.218410 0.000000
0.053293 0.262483 0.000000
0.047268 0.288286 0.000000
0.050965 0.313672 0.000000
0.049086 0.338861 0.000000
0.056979 0.364181 0.000000
0.049270 0.384026 0.000000
0.049716 0.407823 0.000000
0.046573 0.437124 0.000000
0.056948 0.458132 0.000000
0.050649 0.480706 0.000000
0.033735 0.518824 0.000000
0.042528 0.556040 0.000000
0.059457 0.577304 0.000000
0.050336 0.600000 0.000000
0.117142 0.580708 0.000000
0.130074 0.600000 0.000000
0.075000 -0.075000 0.000000
0.075000 -0.050000 0.000000
0.075000 -0.025000 0.000000
0.075000 0.000000 0.000000
0.074098 0.029875 0.000000
0.086854 0.052353 0.000000
0.076420 0.082382 0.000000
0.044424 0.127720 0.000000
0.072806 0.128583 0.000000
0.076114 0.170929 0.000000
0.061514 0.197382 0.000000
0.062138 0.235937 0.000000
0.073913 0.261251 0.000000
0.075719 0.288351 0.000000
0.077033 0.309159 0.000000
0.071512 0.333052 0.000000
0.080341 0.357118 0.000000
0.080039 0.386511 0.000000
0.071469 0.409802 0.000000
0.073248 0.437742 0.000000
0.078835 0.468135 0.000000
0.073731 0.496373 0.000000
0.056630 0.510596 0.000000
0.056868 0.537377 0.000000
0.073813 0.554837 0.000000
0.068918 0.600000 0.000000
0.149818 0.600000 0.000000
0.168885 0.600000 0.000000
0.100000 -0.075000 0.000000
0.100000 -0.050000 0.000000
0.100000 -0.025000 0.000000
0.100000 0.000000 0.000000
0.096935 0.022843 0.000000
0.098917 0.078851 0.000000
0.070196 0.105087 0.000000
0.047002 0.102769 0.000000
0.091506 0.148152 0.000000
0.062158 0.151083 0.000000
0.092755 0.195289 0.000000
0.081573 0.218717 0.000000
0.092906 0.237567 0.000000
0.099097 0.263600 0.000000
0.102230 0.288025 0.000000
0.104654 0.311393 0.000000
0.099357 0.339117 0.000000
0.101726 0.367904 0.000000
0.100546 0.396244 0.000000
0.094457 0.421096 0.000000
0.097685 0.444707 0.000000
0.096143 0.484861 0.000000
0.097683 0.511742 0.000000
0.112276 0.533413 0.000000
0.080548 0.526278 0.000000
0.089187 0.577176 0.000000
0.171125 0.576713 0.000000
0.189305 0.600000 0.000000
0.125000 -0.075000 0.000000
0.125000 -0.050000 0.000000
0.125000 -0.025000 0.000000
0.125000 0.000000 0.000000
0.111486 0.041755 0.000000
0.117529 0.067707 0.000000
0.106219 0.102077 0.000000
0.098220 0.123627 0.000000
0.116195 0.138500 0.000000
0.097751 0.174330 0.000000
0.124977 0.180490 0.000000
0.110256 0.212599 0.000000
0.118181 0.236014 0.000000
0.120973 0.267346 0.000000
0.129192 0.297505 0.000000
0.122990 0.326247 0.000000
0.120119 0.350979 0.000000
0.126745 0.376024 0.000000
0.124512 0.403004 0.000000
0.120209 0.427642 0.000000
0.109816 0.464567 0.000000
0.123134 0.488481 0.000000
0.127596 0.512624 0.000000
0.125027 0.556524 0.000000
0.144724 0.577076 0.000000
0.097340 0.550879 0.000000
0.198595 0.578788 0.000000
0.207683 0.600000 0.000000
0.150000 -0.075000 0.000000
0.150000 -0.050000 0.000000
0.150000 -0.025000 0.000000
0.150000 0.000000 0.000000
0.131200 0.023848 0.000000
0.135582 0.046827 0.000000
0.137590 0.081181 0.000000
0.127306 0.110877 0.000000
0.149107 0.128431 0.000000
0.129770 0.154857 0.000000
0.147771 0.177712 0.000000
0.131402 0.202909 0.000000
0.139830 0.229835 0.000000
0.142063 0.257091 0.000000
0.146566 0.281631 0.000000
0.148690 0.312254 0.000000
0.147158 0.337270 0.000000
0.152931 0.360433 0.000000
0.146239 0.388519 0.000000
0.148498 0.412317 0.000000
0.139686 0.439527 0.000000
0.134709 0.461896 0.000000
0.145942 0.487406 0.000000
0.151889 0.512368 0.000000
0.139681 0.536874 0.000000
0.157708 0.551617 0.000000
0.222909 0.590489 0.000000
0.238933 0.600000 0.000000
0.175000 -0.075000 0.000000
0.175000 -0.050000 0.000000
0.175000 -0.025000 0.000000
0.175000 0.000000 0.000000
0.158091 0.024059 0.000000
0.166266 0.047027 0.000000
0.155087 0.066940 0.000000
0.148437 0.102981 0.000000
0.173599 0.121004 0.000000
0.152730 0.150829 0.000000
0.168634 0.180591 0.000000
0.156986 0.210514 0.000000
0.178427 0.217453 0.000000
0.165401 0.236528 0.000000
0.167073 0.265729 0.000000
0.171109 0.290529 0.000000
0.172777 0.316421 0.000000
0.173931 0.339489 0.000000
0.173689 0.362564 0.000000
0.172954 0.392556 0.000000
0.180416 0.415363 0.000000
0.163923 0.432298 0.000000
0.162591 0.460166 0.000000
0.170064 0.482066 0.000000
0.180404 0.506599 0.000000
0.172050 0.528043 0.000000
0.249224 0.576218 0.000000
0.257832 0.600000 0.000000
0.200000 -0.075000 0.000000
0.200000 -0.050000 0.000000
0.200000 -0.025000 0.000000
0.200000 0.000000 0.000000
0.184058 0.026115 0.000000
0.192800 0.047383 0.000000
0.179572 0.073324 0.000000
0.173499 0.097489 0.000000
0.202275 0.120510 0.000000
0.179322 0.144699 0.000000
0.191269 0.165351 0.000000
0.188314 0.191651 0.000000
0.205927 0.216960 0.000000
0.186211 0.249937 0.000000
0.196197 0.273307 0.000000
0.194236 0.299179 0.000000
0.200759 0.331951 0.000000
0.205347 0.356576 0.000000
0.192375 0.381571 0.000000
0.203628 0.405242 0.000000
0.203977 0.431216 0.000000
0.183831 0.450935 0.000000
0.194574 0.479577 0.000000
0.204868 0.505794 0.000000
0.197908 0.533430 0.000000
0.182702 0.552399 0.000000
0.277414 0.575347 0.000000
0.276841 0.600000 0.000000
0.225000 -0.075000 0.000000
0.225000 -0.050000 0.000000
0.225000 -0.025000 0.000000
0.225000 0.000000 0.000000
0.211064 0.023518 0.000000
0.220274 0.048909 0.000000
0.210197 0.070169 0.000000
0.196723 0.090956 0.000000
0.224057 0.118953 0.000000
0.203183 0.143585 0.000000
0.221685 0.165734 0.000000
0.210320 0.187580 0.000000
0.227097 0.211442 0.000000
0.208534 0.239712 0.000000
0.218524 0.261494 0.000000
0.219266 0.289968 0.000000
0.214091 0.315773 0.000000
0.225202 0.347359 0.000000
0.219045 0.375712 0.000000
[...]
<PointData>
<DataArray NumberOfComponents='1' type='Int32' Name='ParticleType' format='ascii'>
3
3
3
3
3
3
3
3
3
3
3
3
3
3
3
3
3
3
3
3
3
3
3
3
3
3
3
3
3
3
3
3
3
3
3
3
3
3
3
3
3
3
3
3
3
3
3
3
3
3
3
3
3
3
3
3
3
3
2
2
2
2
2
2
2
2
2
2
2
2
2
2
2
2
2
2
2
2
2
2
2
2
2
2
3
3
2
2
2
2
2
2
2
2
2
2
2
2
2
2
2
2
2
2
2
2
2
2
2
2
2
2
3
3
2
2
0
0
0
0
0
0
0
0
0
0
0
0
0
0
0
0
0
0
0
0
0
0
0
0
3
3
2
2
0
0
0
0
0
0
0
0
0
0
0
0
0
0
0
0
0
0
0
0
0
0
0
0
3
3
2
2
0
0
0
0
0
0
0
0
0
0
0
0
0
0
0
0
0
0
0
0
0
0
0
0
3
3
2
2
0
0
0
0
0
0
0
0
0
0
0
0
0
0
0
0
0
0
0
0
0
0
0
0
3
3
2
2
0
0
0
0
0
0
0
0
0
0
0
0
0
0
0
0
0
0
0
0
0
0
0
0
3
3
2
2
0
0
0
0
0
0
0
0
0
0
0
0
0
0
0
0
0
0
0
0
0
0
0
0
3
3
2
2
0
0
0
0
0
0
0
0
0
0
0
0
0
0
0
0
0
0
0
0
0
0
0
0
3
3
2
2
0
0
0
0
0
0
0
0
0
0
0
0
0
0
0
0
0
0
0
0
0
0
0
0
3
3
2
2
0
0
0
0
0
0
0
0
0
0
0
0
0
0
0
0
0
0
0
0
0
0
0
0
3
3
2
2
0
0
0
0
0
0
0
0
0
0
0
0
0
0
0
0
0
0
0
0
0
0
0
0
3
3
2
2
0
0
0
0
0
0
0
0
0
0
0
0
0
0
0
0
0
0
0
0
0
0
0
0
3
3
2
2
0
0
0
0
0
0
0
0
0
0
0
0
0
0
0
0
0
0
0
0
0
0
0
0
3
3
2
2
0
0
0
0
0
0
0
0
0
0
0
0
0
0
0
0
0
0
0
0
0
0
0
0
3
3
2
2
0
0
0
0
0
0
0
0
0
0
0
0
0
0
0
0
0
0
0
0
0
0
0
0
3
3
2
2
0
0
0
0
0
0
0
0
0
0
0
0
0
0
0
0
0
0
0
0
0
0
0
0
3
3
2
2
0
0
0
0
0
0
0
0
0
0
0
0
0
0
0
0
0
0
0
0
0
0
0
0
3
3
2
2
0
0
0
0
0
0
0
0
0
0
0
0
0
0
0
0
0
0
0
0
0
0
0
0
3
3
2
2
0
0
0
0
0
0
0
0
0
0
0
0
0
0
0
0
0
0
0
0
0
0
0
0
3
3
2
2
0
0
0
0
0
0
0
0
0
0
0
0
0
0
0
0
0
0
0
0
0
0
0
0
3
3
2
2
0
0
0
0
0
0
0
0
0
0
0
0
0
0
0
0
0
0
0
0
0
0
0
0
3
3
2
2
0
0
0
0
0
0
0
0
0
0
0
0
0
0
0
0
0
0
0
0
0
0
0
0
3
3
2
2
0
0
0
0
0
0
0
0
0
0
0
0
0
0
0
0
0
0
0
0
0
0
0
0
3
3
2
2
0
0
0
0
0
0
0
0
0
0
0
0
0
0
0
0
0
0
0
0
0
0
0
0
3
3
2
2
0
0
0
0
0
0
0
0
0
0
0
0
0
0
0
0
0
0
0
0
0
0
0
0
3
3
2
2
0
0
0
0
0
0
0
0
0
0
0
0
0
0
0
0
0
0
0
0
0
0
0
0
3
3
2
2
0
0
0
0
0
0
0
0
0
0
0
0
0
0
0
0
0
0
0
0
0
0
0
0
3
3
2
2
0
0
0
0
0
0
0
0
0
0
0
0
0
0
0
0
0
0
0
0
0
0
0
0
3
3
2
2
0
0
0
0
0
0
0
0
0
0
0
0
0
0
0
0
0
0
0
0
0
0
0
0
3
3
2
2
0
0
0
0
0
0
0
0
0
0
0
0
0
0
0
0
0
0
0
0
0
0
0
0
3
3
2
2
0
0
0
0
0
0
0
0
0
0
0
0
0
0
0
0
0
0
0
0
0
0
0
0
3
3
2
2
0
0
0
0
0
0
0
0
0
0
0
0
0
0
0
0
0
0
0
0
0
0
0
0
3
3
2
2
0
0
0
0
0
0
0
0
0
0
0
0
0
0
0
0
0
0
0
0
0
0
0
0
3
3
2
2
0
0
0
0
0
0
0
0
0
0
0
0
0
0
0
0
0
0
0
0
0
0
0
0
3
3
2
2
0
0
0
0
0
0
0
0
0
0
0
0
0
0
0
0
0
0
0
0
0
0
0
0
3
3
2
2
0
0
0
0
0
0
0
0
0
0
0
0
0
0
0
0
0
0
0
0
0
0
0
0
3
3
2
2
0
0
0
0
0
0
0
0
0
0
0
0
0
0
0
0
0
0
0
0
0
0
0
0
3
3
2
2
0
0
0
0
0
0
0
0
0
0
0
0
0
0
0
0
0
0
0
0
0
0
0
0
3
3
2
2
0
0
0
0
0
0
0
0
0
0
0
0
0
0
0
0
0
0
0
0
0
0
0
0
3
3
2
2
0
0
0
0
0
0
0
0
0
0
0
0
0
0
0
0
0
0
0
0
0
0
0
0
3
3
2
2
0
0
0
0
0
0
0
0
0
0
0
0
0
0
0
0
0
0
0
0
0
0
0
0
3
3
2
2
2
2
2
2
2
2
2
2
2
2
2
2
2
2
2
2
2
2
2
2
2
2
2
2
3
3
2
2
2
2
2
2
2
2
2
2
2
2
2
2
2
2
2
2
2
2
2
2
2
2
2
2
3
3
3
3
3
3
3
3
3
3
3
3
3
3
3
3
3
3
3
3
3
3
3
3
3
3
3
3
3
3
3
3
3
3
3
3
3
3
3
3
3
3
3
3
3
3
3
3
3
3
3
3
3
3
3
3
</DataArray>
<DataArray NumberOfComponents='1' type='Float32' Name='Velocity' format='ascii'>
0.000000
0.000000
0.000000
0.000000
0.000000
0.000000
0.000000
0.000000
0.000000
0.000000
0.000000
0.000000
0.000000
0.000000
0.000000
0.000000
0.000000
0.000000
0.000000
0.000000
0.000000
0.000000
0.000000
0.000000
0.000000
0.000000
0.000000
0.000000
0.000000
0.000000
0.000000
0.000000
0.000000
0.000000
0.000000
0.000000
0.000000
0.000000
0.000000
0.000000
0.000000
0.000000
0.000000
0.000000
0.000000
0.000000
0.000000
0.000000
0.000000
0.000000
0.000000
0.000000
0.000000
0.000000
0.000000
0.000000
0.000000
0.000000
0.000000
0.000000
0.000000
0.000000
0.000000
0.000000
0.000000
0.000000
0.000000
0.000000
0.000000
0.000000
0.000000
0.000000
0.000000
0.000000
0.000000
0.000000
0.000000
0.000000
0.000000
0.000000
0.000000
0.000000
0.000000
0.000000
0.000000
0.000000
0.000000
0.000000
0.000000
0.000000
0.000000
0.000000
0.000000
0.000000
0.000000
0.000000
0.000000
0.000000
0.000000
0.000000
0.000000
0.000000
0.000000
0.000000
0.000000
0.000000
0.000000
0.000000
0.000000
0.000000
0.000000
0.000000
0.000000
0.000000
0.000000
0.000000
0.028221
0.070544
0.146206
0.078646
0.170639
0.173122
0.130154
0.075977
0.315974
0.074578
0.208857
0.082004
0.115414
0.192514
0.147446
0.029489
0.066979
0.042129
0.098478
0.106037
0.100000
0.100000
0.100000
0.100000
0.000000
0.000000
0.000000
0.000000
0.165147
0.099559
0.185822
0.064193
0.113362
0.070733
0.059560
0.123774
0.211850
0.148917
0.165634
0.091465
0.138848
0.061887
0.099995
0.284637
0.159314
0.156773
0.197790
0.269388
0.100000
0.100000
0.100000
0.100000
0.000000
0.000000
0.000000
0.000000
0.138821
0.086281
0.153321
0.193827
0.077045
0.114096
0.138021
0.274384
0.141002
0.094538
0.081760
0.032699
0.074249
0.077742
0.095502
0.211962
0.244311
0.197565
0.186064
0.340000
0.169371
0.100000
0.100000
0.100000
0.000000
0.000000
0.000000
0.000000
0.074757
0.235212
0.143741
0.145436
0.349915
0.274291
0.116243
0.193609
0.101648
0.051323
0.178713
0.176807
0.097310
0.027139
0.091040
0.153755
0.063202
0.189551
0.077033
0.197448
0.184501
0.100000
0.100000
0.100000
0.000000
0.000000
0.000000
0.000000
0.048204
0.152195
0.121284
0.306028
0.132313
0.143670
0.148913
0.097953
0.129317
0.148279
0.065263
0.036436
0.185051
0.090604
0.113964
0.103780
0.010771
0.232862
0.230027
0.067160
0.100000
0.322730
0.100000
0.100000
0.000000
0.000000
0.000000
0.000000
0.163999
0.176621
0.366998
0.161586
0.031310
0.105258
0.098776
0.067945
0.167119
0.108491
0.131750
0.051781
0.075220
0.076421
0.131184
0.274697
0.093810
0.168770
0.047951
0.181182
0.269453
0.253735
0.100000
0.100000
0.000000
0.000000
0.000000
0.000000
0.117002
0.065493
0.175582
0.141347
0.076001
0.115767
0.115357
0.096253
0.018791
0.101235
0.100432
0.213477
0.073542
0.098210
0.059407
0.065645
0.276125
0.048312
0.144463
0.014721
0.067265
0.123346
0.100000
0.100000
0.000000
0.000000
0.000000
0.000000
0.107065
0.033659
0.187963
0.150615
0.137776
0.169548
0.061441
0.228034
0.051155
0.085213
0.064166
0.059422
0.217703
0.121425
0.151892
0.235307
0.259422
0.188483
0.075862
0.132904
0.147904
0.267506
0.100000
0.100000
0.000000
0.000000
0.000000
0.000000
0.072120
0.051152
0.034272
0.218935
0.174469
0.060282
0.292195
0.031214
0.203231
0.230860
0.224295
0.031720
0.108635
0.180305
0.252308
0.093135
0.047023
0.017169
0.085863
0.054501
0.298131
0.398717
0.100000
0.100000
0.000000
0.000000
0.000000
0.000000
0.120207
0.077660
0.026016
0.117201
0.200210
0.107348
0.090532
0.067920
0.109472
0.050477
0.264532
0.098346
0.201838
0.132225
0.054503
0.146315
0.062666
0.111233
0.060322
0.348881
0.232987
0.123706
0.100000
0.100000
0.000000
0.000000
0.000000
0.000000
0.078594
0.050669
0.092021
0.076188
0.100179
0.135231
0.281589
0.114454
0.032247
0.123405
0.019936
0.161884
0.163639
0.172095
0.085133
0.177905
0.094770
0.173415
0.044253
0.089297
0.258622
0.360204
0.100000
0.100000
0.000000
0.000000
0.000000
0.000000
0.066404
0.055532
0.139176
0.077467
0.031594
0.172700
0.119052
0.073760
0.019891
0.176220
0.161411
0.240058
0.213352
0.179384
0.060070
0.091720
0.051647
0.125622
0.064905
0.160331
0.222230
0.164224
0.472017
0.100000
0.000000
0.000000
0.000000
0.000000
0.158014
0.023886
0.136393
0.139973
0.081666
0.015439
0.119359
0.082653
0.158641
0.138909
0.185020
0.118706
0.204559
0.057005
0.186782
0.284826
0.342291
0.191832
0.045993
0.200605
0.164919
0.468143
0.100000
0.100000
0.000000
0.000000
0.000000
0.000000
0.033379
0.096216
0.170087
0.107901
0.109507
0.151987
0.118325
0.275318
0.220025
0.089712
0.124669
0.018188
0.084619
0.105978
0.097017
0.243317
0.282110
0.082902
0.210512
0.133119
0.219278
0.311298
0.100000
0.100000
0.000000
0.000000
0.000000
0.000000
0.168465
0.031787
0.055266
0.164026
0.044926
0.055238
0.175610
0.117189
0.039258
0.161042
0.178869
0.113633
0.326839
0.184237
0.046845
0.166242
0.095096
0.053597
0.185934
0.176450
0.437917
0.436308
0.100000
0.100000
0.000000
0.000000
0.000000
0.000000
0.058459
0.027308
0.101211
0.114041
0.111152
0.063815
0.149016
0.086077
0.107686
0.094435
0.155472
0.093366
0.135229
0.142127
0.082246
0.094632
0.073939
0.307824
0.277965
0.172929
0.341136
0.374211
0.100000
0.100000
0.000000
0.000000
0.000000
0.000000
0.198672
0.029281
0.092664
0.128229
0.102785
0.062697
0.024873
0.121194
0.074893
0.076778
0.062671
0.125817
0.217479
0.121079
0.111307
0.220779
0.196435
0.264595
0.280571
0.509013
0.349320
0.100000
0.100000
0.100000
0.000000
0.000000
0.000000
0.000000
0.065088
0.036719
0.089613
0.053517
0.123232
0.047761
0.049915
0.119248
0.034448
0.117218
0.056912
0.105940
0.056360
0.046636
0.128937
0.055209
0.106696
0.194990
0.134445
0.096528
0.097776
0.183194
0.100000
0.100000
0.000000
0.000000
0.000000
0.000000
0.192837
0.013074
0.052544
0.042591
0.144368
0.044065
0.060774
0.059893
0.052380
0.019050
0.037909
0.266459
0.102323
0.112892
0.101366
0.110652
0.135494
0.191870
0.194186
0.169483
0.104433
0.178417
0.100000
0.100000
0.000000
0.000000
0.000000
0.000000
0.092661
0.057901
0.053013
0.017329
0.064026
0.056532
0.142220
0.307400
0.071371
0.082750
0.059356
0.077298
0.162137
0.225340
0.190989
0.019343
0.128521
0.130968
0.169111
0.270181
0.338937
0.439188
0.100000
0.100000
0.000000
0.000000
0.000000
0.000000
0.120264
0.037345
0.087027
0.043488
0.027641
0.080555
0.051392
0.115321
0.127420
0.021768
0.095345
0.152051
0.086385
0.073344
0.074787
0.038136
0.155945
0.172328
0.075890
0.261928
0.216770
0.234327
0.100000
0.100000
0.000000
0.000000
0.000000
0.000000
0.074347
0.031028
0.080056
0.061441
0.136520
0.077437
0.085975
0.181861
0.186409
0.137099
0.238480
0.082744
0.159470
0.159947
0.074366
0.258988
0.019898
0.095973
0.270255
0.260586
0.423687
0.427449
0.100000
0.100000
0.000000
0.000000
0.000000
0.000000
0.131659
0.031298
0.108538
0.105237
0.086083
0.023526
0.154132
0.052354
0.075625
0.115760
0.179526
0.118313
0.124080
0.161888
0.162127
0.134095
0.133597
0.074093
0.083820
0.121061
0.259486
0.548334
0.100000
0.100000
0.000000
0.000000
0.000000
0.000000
0.129437
0.037489
0.087379
0.045346
0.067435
0.150105
0.117360
0.144032
0.065287
0.106614
0.084573
0.072238
0.184994
0.277961
0.078795
0.047776
0.175936
0.317247
0.214608
0.060330
0.278024
0.115607
0.100000
0.100000
0.000000
0.000000
0.000000
0.000000
0.109391
0.038384
0.128400
0.094610
0.138980
0.113901
0.168564
0.103950
0.314018
0.101126
0.070972
0.091494
0.096512
0.119040
0.020867
0.041710
0.208513
0.128010
0.075537
0.296176
0.491110
0.272737
0.100000
0.100000
0.000000
0.000000
0.000000
0.000000
0.006744
0.020565
0.082978
0.054388
0.021255
0.103427
0.082825
0.114952
0.053523
0.226128
0.127150
0.221709
0.224728
0.050591
0.119901
0.193661
0.054945
0.274393
0.177259
0.200523
0.120975
0.162152
0.100000
0.100000
0.000000
0.000000
0.000000
0.000000
0.106609
0.085613
0.092495
0.091657
0.096848
0.015057
0.169561
0.094718
0.149634
0.106091
0.220297
0.166408
0.040815
0.212368
0.028306
0.087186
0.043018
0.115826
0.165782
0.242408
0.040001
0.046170
0.100000
0.100000
0.000000
0.000000
0.000000
0.000000
0.042387
0.045234
0.072202
0.129683
0.159351
0.027100
0.235503
0.160411
0.181838
0.067047
0.176486
0.116051
0.132934
0.156771
0.067754
0.152623
0.086363
0.367699
0.361641
0.184772
0.431766
0.140422
0.100000
0.100000
0.000000
0.000000
0.000000
0.000000
0.042611
0.140244
0.105684
0.149580
0.108766
0.045972
0.177324
0.063608
0.206446
0.179545
0.051417
0.178772
0.353953
0.087660
0.263760
0.043787
0.048182
0.060637
0.223990
0.268762
0.042371
0.190110
0.100000
0.100000
0.000000
0.000000
0.000000
0.000000
0.070975
0.254194
0.034510
0.024502
0.105478
0.185810
0.031584
0.065682
0.099453
0.261342
0.171739
0.019800
0.222262
0.046473
0.167165
0.198224
0.033378
0.286356
0.280639
0.182944
0.104125
0.186905
0.100000
0.100000
0.000000
0.000000
0.000000
0.000000
0.164745
0.230047
0.127086
0.060378
0.225011
0.113477
0.147054
0.082103
0.200273
0.047570
0.034210
0.266108
0.155831
0.334794
0.107167
0.040126
0.130822
0.078683
0.056475
0.078903
0.129221
0.174080
0.257622
0.100000
0.000000
0.000000
0.000000
0.000000
0.168213
0.176466
0.191608
0.078325
0.135421
0.165397
0.104897
0.114409
0.083467
0.112485
0.118654
0.046708
0.278736
0.177726
0.185137
0.123676
0.326166
0.218386
0.047470
0.358959
0.470753
0.442848
0.249074
0.100000
0.000000
0.000000
0.000000
0.000000
0.068253
0.054172
0.114067
0.085501
0.201262
0.123707
0.190206
0.216935
0.067474
0.289826
0.169256
0.041590
0.171053
0.212604
0.025399
0.190350
0.089644
0.126754
0.049982
0.127421
0.413312
0.167987
0.100000
0.100000
0.000000
0.000000
0.000000
0.000000
0.053552
0.153541
0.028645
0.145010
0.182534
0.160813
0.292680
0.257187
0.073988
0.185320
0.460501
0.159229
0.098821
0.091593
0.267930
0.202877
0.173839
0.109752
0.145060
0.105507
0.310874
0.183611
0.125693
0.100000
0.000000
0.000000
0.000000
0.000000
0.039765
0.043798
0.139558
0.154710
0.093539
0.165569
0.177676
0.124930
0.130449
0.223548
0.371346
0.050574
0.139868
0.167812
0.290326
0.089561
0.214576
0.064829
0.060188
0.390405
0.180788
0.115275
0.154489
0.100000
0.000000
0.000000
0.000000
0.000000
0.025874
0.200622
0.136284
0.117881
0.078649
0.290021
0.149378
0.160408
0.143963
0.034793
0.059600
0.225975
0.166551
0.233482
0.127380
0.251341
0.247487
0.182650
0.359288
0.150756
0.262470
0.175337
0.061819
0.100000
0.000000
0.000000
0.000000
0.000000
0.056214
0.125498
0.067614
0.106780
0.307841
0.131714
0.102961
0.100713
0.062293
0.141011
0.073391
0.107673
0.149067
0.176782
0.094336
0.183802
0.149018
0.068044
0.260784
0.334464
0.323962
0.020855
0.338531
0.100000
0.000000
0.000000
0.000000
0.000000
0.036601
0.078448
0.059348
0.159738
0.086940
0.089818
0.121438
0.205389
0.110455
0.221809
0.111239
0.079782
0.224245
0.202934
0.214060
0.209031
0.221319
0.176191
0.140214
0.114188
0.155448
0.161088
0.137498
0.100000
0.000000
0.000000
0.000000
0.000000
0.086795
0.196870
0.185283
0.171247
0.112550
0.140893
0.225173
0.178882
0.120577
0.144812
0.107469
0.088179
0.054180
0.143556
0.105123
0.191622
0.182383
0.424925
0.118957
0.342486
0.238375
0.173027
0.291500
0.100000
0.000000
0.000000
0.000000
0.000000
0.101842
0.027278
0.120219
0.076256
0.182763
0.109215
0.118077
0.122189
0.260079
0.074124
0.078443
0.053403
0.024023
0.198653
0.118431
0.259538
0.143463
0.223620
0.101341
0.181833
0.157871
0.247662
0.118405
0.100000
0.000000
0.000000
0.000000
0.000000
0.000000
0.000000
0.000000
0.000000
0.000000
0.000000
0.000000
0.000000
0.000000
0.000000
0.000000
0.000000
0.000000
0.000000
0.000000
0.000000
0.000000
0.000000
0.000000
0.000000
0.000000
0.000000
0.000000
0.000000
0.000000
0.000000
0.000000
0.000000
0.000000
0.000000
0.000000
0.000000
0.000000
0.000000
0.000000
0.000000
0.000000
0.000000
0.000000
0.000000
0.000000
0.000000
0.000000
0.000000
0.000000
0.000000
0.000000
0.000000
0.000000
0.000000
0.000000
0.000000
0.000000
0.000000
0.000000
0.000000
0.000000
0.000000
0.000000
0.000000
0.000000
0.000000
0.000000
0.000000
0.000000
0.000000
0.000000
0.000000
0.000000
0.000000
0.000000
0.000000
0.000000
0.000000
0.000000
0.000000
0.000000
0.000000
0.000000
0.000000
0.000000
0.000000
0.000000
0.000000
0.000000
0.000000
0.000000
0.000000
0.000000
0.000000
0.000000
0.000000
0.000000
0.000000
0.000000
0.000000
0.000000
0.000000
0.000000
0.000000
0.000000
0.000000
0.000000
0.000000
0.000000
0.000000
0.000000
0.000000
</DataArray>
<DataArray NumberOfComponents='1' type='Float32' Name='pressure' format='ascii'>
0.000000
0.000000
0.000000
0.000000
0.000000
0.000000
0.000000
0.000000
0.000000
0.000000
0.000000
0.000000
0.000000
0.000000
0.000000
0.000000
0.000000
0.000000
0.000000
0.000000
0.000000
0.000000
0.000000
0.000000
0.000000
0.000000
0.000000
0.000000
0.000000
0.000000
0.000000
0.000000
0.000000
0.000000
0.000000
0.000000
0.000000
0.000000
0.000000
0.000000
0.000000
0.000000
0.000000
0.000000
0.000000
0.000000
0.000000
0.000000
0.000000
0.000000
0.000000
0.000000
0.000000
0.000000
0.000000
0.000000
0.000000
0.000000
47434.523438
47362.296875
47467.492188
46469.207031
46477.921875
46375.730469
46987.546875
46855.457031
46596.062500
45585.246094
45735.730469
44193.757812
44832.207031
43536.023438
44167.078125
43351.671875
43050.144531
43367.636719
42299.035156
42113.414062
40237.671875
40269.910156
38706.750000
34704.449219
27698.541016
0.000000
0.000000
0.000000
47389.164062
47889.500000
47351.039062
45805.156250
46207.988281
46180.515625
46717.265625
45580.714844
45496.234375
45209.792969
45896.316406
43684.476562
44694.632812
43641.464844
44037.656250
43563.593750
43138.367188
43315.660156
42805.261719
42177.191406
40729.968750
40774.292969
38690.355469
37779.453125
36587.269531
0.000000
0.000000
0.000000
47242.550781
47812.437500
46442.273438
46825.757812
46470.628906
46412.718750
45235.386719
45067.125000
44550.343750
45668.769531
44365.355469
44805.976562
43856.398438
43339.261719
43183.226562
42570.839844
42477.742188
41627.812500
42358.929688
41589.765625
40568.203125
40490.304688
40925.917969
27416.304688
44311.214844
45157.765625
0.000000
0.000000
46803.937500
46615.113281
46620.605469
46818.570312
45501.824219
46123.378906
45827.335938
46014.750000
44857.718750
45589.589844
44728.855469
44523.511719
43586.000000
44782.953125
43804.703125
43722.632812
43603.859375
43419.734375
43607.457031
41905.679688
42125.351562
41273.343750
47634.851562
38281.640625
55244.796875
45922.929688
0.000000
0.000000
45816.339844
45254.425781
46690.261719
45368.128906
45981.695312
44558.324219
46076.511719
45352.242188
45482.644531
44571.445312
45719.730469
44445.988281
45041.324219
44077.906250
44307.808594
42934.808594
43998.675781
42696.734375
44000.644531
43847.675781
43353.875000
43954.531250
44229.406250
40847.035156
46719.625000
43794.617188
0.000000
0.000000
47462.117188
47129.222656
47197.351562
46841.355469
46465.273438
46580.554688
44617.519531
46796.890625
45476.429688
45308.765625
45069.902344
45098.652344
44143.703125
44651.148438
44019.687500
44600.578125
44071.421875
44278.906250
44654.300781
45820.480469
44188.750000
47019.421875
44636.011719
50968.128906
50738.480469
36237.757812
0.000000
0.000000
47192.824219
47222.394531
46887.535156
46572.839844
45607.152344
45967.906250
46432.207031
45830.929688
45262.183594
45320.867188
45303.320312
45346.652344
45108.523438
44537.109375
44671.558594
43711.003906
45076.855469
43981.671875
44675.882812
45443.507812
45875.054688
46831.109375
53504.089844
46689.601562
46708.199219
0.000000
0.000000
0.000000
46926.593750
47048.847656
46006.566406
46278.437500
46126.281250
45833.472656
45513.488281
45567.859375
45701.085938
45647.148438
45297.121094
44735.949219
44920.003906
44587.562500
44883.421875
44335.410156
45071.511719
43949.347656
45310.648438
44281.335938
46029.269531
45270.628906
47766.230469
46127.644531
45921.261719
41992.308594
0.000000
0.000000
46161.980469
46252.472656
47012.035156
46415.105469
46845.007812
46196.468750
45823.496094
45997.941406
45544.632812
45121.917969
44924.121094
45683.167969
45333.355469
44939.230469
44857.023438
45026.312500
45311.972656
44597.406250
45489.617188
46004.585938
45075.292969
46187.507812
45575.015625
46815.246094
52061.519531
46662.894531
0.000000
0.000000
46563.281250
46448.910156
46301.488281
46410.761719
45436.457031
46132.210938
45604.144531
45373.894531
45761.257812
45856.652344
45555.214844
44962.019531
45067.242188
45225.250000
44313.542969
45522.738281
44969.375000
45698.187500
45422.640625
44845.105469
45556.914062
45701.941406
46273.398438
44842.843750
56376.394531
49258.359375
0.000000
0.000000
46373.824219
46738.980469
46960.675781
45701.082031
46432.953125
46242.597656
45758.937500
45794.453125
45327.082031
45304.367188
45545.574219
45293.390625
45768.914062
44370.968750
45688.960938
44724.156250
44908.289062
45597.976562
44397.332031
46106.167969
46305.906250
46417.101562
46830.648438
43638.410156
59509.121094
52585.457031
0.000000
0.000000
46417.718750
47007.027344
46425.871094
46342.773438
46503.171875
45403.078125
45771.378906
45184.406250
45846.464844
45579.425781
45445.136719
44835.628906
45031.460938
45070.105469
44917.605469
45305.375000
45405.089844
45631.402344
45564.890625
46638.792969
46238.910156
45820.101562
48071.917969
46727.269531
65098.277344
54859.042969
0.000000
0.000000
46398.562500
46436.226562
46525.707031
46117.675781
45697.835938
45714.824219
45109.773438
45602.316406
45248.214844
44679.144531
45616.136719