<?xml version='1.0' encoding='UTF-8'?>
<VTKFile xmlns='VTK' byte_order='LittleEndian' version='0.1' type='UnstructuredGrid'>
<UnstructuredGrid>
<Piece NumberOfCells='1344' NumberOfPoints='1344'>
<Points>
<DataArray NumberOfComponents='3' type='Float32' Name='Position' format='ascii'>
-0.075000 -0.075000 0.000000
-0.075000 -0.050000 0.000000
-0.075000 -0.025000 0.000000
-0.075000 0.000000 0.000000
-0.075000 0.025000 0.000000
-0.075000 0.050000 0.000000
-0.075000 0.075000 0.000000
-0.075000 0.100000 0.000000
-0.075000 0.125000 0.000000
-0.075000 0.150000 0.000000
-0.075000 0.175000 0.000000
-0.075000 0.200000 0.000000
-0.075000 0.225000 0.000000
-0.075000 0.250000 0.000000
-0.075000 0.275000 0.000000
-0.075000 0.300000 0.000000
-0.075000 0.325000 0.000000
-0.075000 0.350000 0.000000
-0.075000 0.375000 0.000000
-0.075000 0.400000 0.000000
-0.075000 0.425000 0.000000
-0.075000 0.450000 0.000000
-0.075000 0.475000 0.000000
-0.075000 0.500000 0.000000
-0.075000 0.525000 0.000000
-0.075000 0.550000 0.000000
-0.075000 0.575000 0.000000
-0.075000 0.600000 0.000000
-0.050000 -0.075000 0.000000
-0.050000 -0.050000 0.000000
-0.050000 -0.025000 0.000000
-0.050000 0.000000 0.000000
-0.050000 0.025000 0.000000
-0.050000 0.050000 0.000000
-0.050000 0.075000 0.000000
-0.050000 0.100000 0.000000
-0.050000 0.125000 0.000000
-0.050000 0.150000 0.000000
-0.050000 0.175000 0.000000
-0.050000 0.200000 0.000000
-0.050000 0.225000 0.000000
-0.050000 0.250000 0.000000
-0.050000 0.275000 0.000000
-0.050000 0.300000 0.000000
-0.050000 0.325000 0.000000
-0.050000 0.350000 0.000000
-0.050000 0.375000 0.000000
-0.050000 0.400000 0.000000
-0.050000 0.425000 0.000000
-0.050000 0.450000 0.000000
-0.050000 0.475000 0.000000
-0.050000 0.500000 0.000000
-0.050000 0.525000 0.000000
-0.050000 0.550000 0.000000
-0.050000 0.575000 0.000000
-0.050000 0.600000 0.000000
-0.025000 -0.075000 0.000000
-0.025000 -0.050000 0.000000
-0.025000 -0.025000 0.000000
-0.025000 0.000000 0.000000
-0.025000 0.025000 0.000000
-0.025000 0.050000 0.000000
-0.025000 0.075000 0.000000
-0.025000 0.100000 0.000000
-0.025000 0.125000 0.000000
-0.025000 0.150000 0.000000
-0.025000 0.175000 0.000000
-0.025000 0.200000 0.000000
-0.025000 0.225000 0.000000
-0.025000 0.250000 0.000000
-0.025000 0.275000 0.000000
-0.025000 0.300000 0.000000
-0.025000 0.325000 0.000000
-0.025000 0.350000 0.000000
-0.025000 0.375000 0.000000
-0.025000 0.400000 0.000000
-0.025000 0.425000 0.000000
-0.025000 0.450000 0.000000
-0.025000 0.475000 0.000000
-0.025000 0.500000 0.000000
-0.025000 0.525000 0.000000
-0.025000 0.550000 0.000000
-0.025000 0.575000 0.000000
-0.025000 0.600000 0.000000
0.000000 -0.075000 0.000000
0.000000 -0.050000 0.000000
0.000000 -0.025000 0.000000
0.000000 0.000000 0.000000
0.000000 0.025000 0.000000
0.000000 0.050000 0.000000
0.000000 0.075000 0.000000
0.000000 0.100000 0.000000
0.000000 0.125000 0.000000
0.000000 0.150000 0.000000
0.000000 0.175000 0.000000
0.000000 0.200000 0.000000
0.000000 0.225000 0.000000
0.000000 0.250000 0.000000
0.000000 0.275000 0.000000
0.000000 0.300000 0.000000
0.000000 0.325000 0.000000
0.000000 0.350000 0.000000
0.000000 0.375000 0.000000
0.000000 0.400000 0.000000
0.000000 0.425000 0.000000
0.000000 0.450000 0.000000
0.000000 0.475000 0.000000
0.000000 0.500000 0.000000
0.000000 0.525000 0.000000
0.000000 0.550000 0.000000
0.000000 0.575000 0.000000
0.000000 0.600000 0.000000
0.025000 -0.075000 0.000000
0.025000 -0.050000 0.000000
0.025000 -0.025000 0.000000
0.025000 0.000000 0.000000
0.061611 0.021703 0.000000
0.126614 0.023140 0.000000
0.026125 0.023565 0.000000
0.023399 0.104104 0.000000
0.045853 0.119387 0.000000
0.071363 0.271554 0.000000
0.024347 0.189453 0.000000
0.050924 0.218210 0.000000
0.026216 0.238113 0.000000
0.026165 0.263237 0.000000
0.023319 0.364905 0.000000
0.026147 0.414056 0.000000
0.023336 0.490332 0.000000
0.023051 0.517880 0.000000
0.035230 0.540536 0.000000
0.050347 0.569724 0.000000
0.072317 0.581400 0.000000
0.097513 0.599342 0.000000
0.127912 0.577223 0.000000
0.058723 0.600000 0.000000
0.040472 0.600000 0.000000
0.015687 0.600000 0.000000
0.173731 0.600000 0.000000
0.192714 0.600000 0.000000
0.050000 -0.075000 0.000000
0.050000 -0.050000 0.000000
0.050000 -0.025000 0.000000
0.050000 0.000000 0.000000
0.149762 0.026976 0.000000
0.106971 0.043174 0.000000
0.023317 0.052582 0.000000
0.026938 0.077518 0.000000
0.023775 0.131528 0.000000
0.023374 0.160173 0.000000
0.047709 0.251685 0.000000
0.048516 0.280305 0.000000
0.024361 0.287552 0.000000
0.047839 0.354067 0.000000
0.026312 0.340345 0.000000
0.025888 0.389797 0.000000
0.028007 0.436504 0.000000
0.023410 0.461050 0.000000
0.045160 0.482016 0.000000
0.020883 0.558578 0.000000
0.060351 0.546242 0.000000
0.115546 0.546321 0.000000
0.028909 0.581941 0.000000
0.116112 0.600000 0.000000
0.134605 0.600000 0.000000
0.078320 0.600000 0.000000
0.213106 0.575915 0.000000
0.212248 0.600000 0.000000
0.075000 -0.075000 0.000000
0.075000 -0.050000 0.000000
0.075000 -0.025000 0.000000
0.075000 0.000000 0.000000
0.128710 0.053157 0.000000
0.094624 0.024365 0.000000
0.042515 0.040394 0.000000
0.046339 0.086584 0.000000
0.064047 0.235464 0.000000
0.043543 0.150764 0.000000
0.137480 0.275666 0.000000
0.024975 0.215080 0.000000
0.045454 0.311392 0.000000
0.024738 0.314706 0.000000
0.079412 0.368744 0.000000
0.082070 0.319242 0.000000
0.050608 0.402821 0.000000
0.054930 0.426356 0.000000
0.074614 0.443043 0.000000
0.048231 0.453344 0.000000
0.138663 0.529369 0.000000
0.138810 0.554737 0.000000
0.082263 0.557238 0.000000
0.102344 0.572561 0.000000
0.158274 0.577189 0.000000
0.154748 0.600000 0.000000
0.230796 0.600000 0.000000
0.250850 0.600000 0.000000
0.100000 -0.075000 0.000000
0.100000 -0.050000 0.000000
0.100000 -0.025000 0.000000
0.100000 0.000000 0.000000
0.114408 0.104170 0.000000
0.084689 0.108019 0.000000
0.063100 0.134075 0.000000
0.056183 0.061224 0.000000
0.046293 0.182266 0.000000
0.064577 0.101177 0.000000
0.088573 0.250580 0.000000
0.112434 0.244877 0.000000
0.090976 0.229922 0.000000
0.059096 0.333360 0.000000
0.074950 0.390764 0.000000
0.052410 0.376874 0.000000
0.099046 0.435544 0.000000
0.067656 0.468858 0.000000
0.062061 0.497835 0.000000
0.070542 0.522814 0.000000
0.046607 0.517744 0.000000
0.094760 0.536897 0.000000
0.173746 0.529122 0.000000
0.209052 0.543696 0.000000
0.162695 0.550093 0.000000
0.186142 0.577594 0.000000
0.273891 0.576099 0.000000
0.270772 0.600000 0.000000
0.125000 -0.075000 0.000000
0.125000 -0.050000 0.000000
0.125000 -0.025000 0.000000
0.125000 0.000000 0.000000
0.110570 0.126569 0.000000
0.107482 0.071725 0.000000
0.085699 0.159500 0.000000
0.137623 0.250862 0.000000
0.061888 0.198781 0.000000
0.126968 0.221823 0.000000
0.120000 0.292146 0.000000
0.081658 0.345244 0.000000
0.067737 0.300753 0.000000
0.105143 0.380990 0.000000
0.101051 0.405508 0.000000
0.079216 0.415420 0.000000
0.122246 0.444066 0.000000
0.086786 0.486034 0.000000
0.117347 0.468113 0.000000
0.113475 0.493463 0.000000
0.092386 0.510084 0.000000
0.117764 0.519031 0.000000
0.153821 0.511007 0.000000
0.229299 0.555369 0.000000
0.243263 0.579345 0.000000
0.187458 0.551356 0.000000
0.302277 0.578129 0.000000
0.289257 0.600000 0.000000
0.150000 -0.075000 0.000000
0.150000 -0.050000 0.000000
0.150000 -0.025000 0.000000
0.150000 0.000000 0.000000
0.145954 0.059198 0.000000
0.158177 0.126782 0.000000
0.089145 0.083407 0.000000
0.077963 0.039258 0.000000
0.064563 0.167235 0.000000
0.090351 0.181373 0.000000
0.087118 0.204086 0.000000
0.159960 0.285651 0.000000
0.112647 0.270907 0.000000
0.087240 0.283324 0.000000
0.131200 0.342067 0.000000
0.094248 0.461263 0.000000
0.129458 0.392642 0.000000
0.121920 0.418848 0.000000
0.150987 0.385464 0.000000
0.142801 0.459803 0.000000
0.157455 0.482910 0.000000
0.136312 0.492396 0.000000
0.198220 0.521526 0.000000
0.224350 0.516707 0.000000
0.241967 0.533482 0.000000
0.256431 0.555748 0.000000
0.308409 0.600000 0.000000
0.328056 0.600000 0.000000
0.175000 -0.075000 0.000000
0.175000 -0.050000 0.000000
0.175000 -0.025000 0.000000
0.175000 0.000000 0.000000
0.170230 0.027432 0.000000
0.138759 0.109415 0.000000
0.134755 0.139531 0.000000
0.087092 0.134079 0.000000
0.112530 0.152238 0.000000
0.116776 0.177556 0.000000
0.133960 0.189695 0.000000
0.173766 0.184799 0.000000
0.151037 0.226400 0.000000
0.162330 0.253009 0.000000
0.149930 0.306580 0.000000
0.108589 0.358404 0.000000
0.158790 0.356460 0.000000
0.181696 0.434225 0.000000
0.145069 0.416447 0.000000
0.170899 0.462002 0.000000
0.213241 0.470614 0.000000
0.188247 0.481747 0.000000
0.177827 0.502926 0.000000
0.209640 0.495944 0.000000
0.253765 0.510186 0.000000
0.269909 0.535174 0.000000
0.359669 0.577199 0.000000
0.346661 0.600000 0.000000
0.200000 -0.075000 0.000000
0.200000 -0.050000 0.000000
0.200000 -0.025000 0.000000
0.200000 0.000000 0.000000
0.153116 0.092875 0.000000
0.128195 0.083603 0.000000
0.204594 0.140194 0.000000
0.076389 0.064764 0.000000
0.173626 0.147492 0.000000
0.110949 0.208037 0.000000
0.256837 0.121540 0.000000
0.263222 0.098229 0.000000
0.152614 0.202320 0.000000
0.178012 0.232354 0.000000
0.160742 0.332325 0.000000
0.132685 0.320376 0.000000
0.103413 0.307558 0.000000
0.105638 0.333881 0.000000
0.135270 0.367865 0.000000
0.154637 0.440937 0.000000
0.195838 0.453860 0.000000
0.234744 0.492787 0.000000
0.281243 0.513312 0.000000
0.315809 0.512871 0.000000
0.300532 0.533359 0.000000
0.286972 0.553120 0.000000
0.388997 0.575521 0.000000
0.365900 0.600000 0.000000
0.225000 -0.075000 0.000000
0.225000 -0.050000 0.000000
0.225000 -0.025000 0.000000
0.225000 0.000000 0.000000
0.187302 0.052549 0.000000
0.184536 0.080042 0.000000
0.164641 0.165209 0.000000
0.138024 0.159933 0.000000
0.213220 0.086118 0.000000
0.202616 0.102323 0.000000
0.243034 0.143543 0.000000
0.200589 0.161356 0.000000
0.199326 0.187659 0.000000
0.225380 0.165190 0.000000
0.179623 0.263740 0.000000
0.177116 0.375515 0.000000
0.182722 0.349998 0.000000
0.183454 0.398022 0.000000
0.167656 0.414207 0.000000
[...]
<PointData>
<DataArray NumberOfComponents='1' type='Int32' Name='ParticleType' format='ascii'>
3
3
3
3
3
3
3
3
3
3
3
3
3
3
3
3
3
3
3
3
3
3
3
3
3
3
3
3
3
3
3
3
3
3
3
3
3
3
3
3
3
3
3
3
3
3
3
3
3
3
3
3
3
3
3
3
3
3
2
2
2
2
2
2
2
2
2
2
2
2
2
2
2
2
2
2
2
2
2
2
2
2
2
2
3
3
2
2
2
2
2
2
2
2
2
2
2
2
2
2
2
2
2
2
2
2
2
2
2
2
2
2
3
3
2
2
0
0
0
0
0
0
0
0
0
0
0
0
0
0
0
0
0
0
0
0
0
0
0
0
3
3
2
2
0
0
0
0
0
0
0
0
0
0
0
0
0
0
0
0
0
0
0
0
0
0
0
0
3
3
2
2
0
0
0
0
0
0
0
0
0
0
0
0
0
0
0
0
0
0
0
0
0
0
0
0
3
3
2
2
0
0
0
0
0
0
0
0
0
0
0
0
0
0
0
0
0
0
0
0
0
0
0
0
3
3
2
2
0
0
0
0
0
0
0
0
0
0
0
0
0
0
0
0
0
0
0
0
0
0
0
0
3
3
2
2
0
0
0
0
0
0
0
0
0
0
0
0
0
0
0
0
0
0
0
0
0
0
0
0
3
3
2
2
0
0
0
0
0
0
0
0
0
0
0
0
0
0
0
0
0
0
0
0
0
0
0
0
3
3
2
2
0
0
0
0
0
0
0
0
0
0
0
0
0
0
0
0
0
0
0
0
0
0
0
0
3
3
2
2
0
0
0
0
0
0
0
0
0
0
0
0
0
0
0
0
0
0
0
0
0
0
0
0
3
3
2
2
0
0
0
0
0
0
0
0
0
0
0
0
0
0
0
0
0
0
0
0
0
0
0
0
3
3
2
2
0
0
0
0
0
0
0
0
0
0
0
0
0
0
0
0
0
0
0
0
0
0
0
0
3
3
2
2
0
0
0
0
0
0
0
0
0
0
0
0
0
0
0
0
0
0
0
0
0
0
0
0
3
3
2
2
0
0
0
0
0
0
0
0
0
0
0
0
0
0
0
0
0
0
0
0
0
0
0
0
3
3
2
2
0
0
0
0
0
0
0
0
0
0
0
0
0
0
0
0
0
0
0
0
0
0
0
0
3
3
2
2
0
0
0
0
0
0
0
0
0
0
0
0
0
0
0
0
0
0
0
0
0
0
0
0
3
3
2
2
0
0
0
0
0
0
0
0
0
0
0
0
0
0
0
0
0
0
0
0
0
0
0
0
3
3
2
2
0
0
0
0
0
0
0
0
0
0
0
0
0
0
0
0
0
0
0
0
0
0
0
0
3
3
2
2
0
0
0
0
0
0
0
0
0
0
0
0
0
0
0
0
0
0
0
0
0
0
0
0
3
3
2
2
0
0
0
0
0
0
0
0
0
0
0
0
0
0
0
0
0
0
0
0
0
0
0
0
3
3
2
2
0
0
0
0
0
0
0
0
0
0
0
0
0
0
0
0
0
0
0
0
0
0
0
0
3
3
2
2
0
0
0
0
0
0
0
0
0
0
0
0
0
0
0
0
0
0
0
0
0
0
0
0
3
3
2
2
0
0
0
0
0
0
0
0
0
0
0
0
0
0
0
0
0
0
0
0
0
0
0
0
3
3
2
2
0
0
0
0
0
0
0
0
0
0
0
0
0
0
0
0
0
0
0
0
0
0
0
0
3
3
2
2
0
0
0
0
0
0
0
0
0
0
0
0
0
0
0
0
0
0
0
0
0
0
0
0
3
3
2
2
0
0
0
0
0
0
0
0
0
0
0
0
0
0
0
0
0
0
0
0
0
0
0
0
3
3
2
2
0
0
0
0
0
0
0
0
0
0
0
0
0
0
0
0
0
0
0
0
0
0
0
0
3
3
2
2
0
0
0
0
0
0
0
0
0
0
0
0
0
0
0
0
0
0
0
0
0
0
0
0
3
3
2
2
0
0
0
0
0
0
0
0
0
0
0
0
0
0
0
0
0
0
0
0
0
0
0
0
3
3
2
2
0
0
0
0
0
0
0
0
0
0
0
0
0
0
0
0
0
0
0
0
0
0
0
0
3
3
2
2
0
0
0
0
0
0
0
0
0
0
0
0
0
0
0
0
0
0
0
0
0
0
0
0
3
3
2
2
0
0
0
0
0
0
0
0
0
0
0
0
0
0
0
0
0
0
0
0
0
0
0
0
3
3
2
2
0
0
0
0
0
0
0
0
0
0
0
0
0
0
0
0
0
0
0
0
0
0
0
0
3
3
2
2
0
0
0
0
0
0
0
0
0
0
0
0
0
0
0
0
0
0
0
0
0
0
0
0
3
3
2
2
0
0
0
0
0
0
0
0
0
0
0
0
0
0
0
0
0
0
0
0
0
0
0
0
3
3
2
2
0
0
0
0
0
0
0
0
0
0
0
0
0
0
0
0
0
0
0
0
0
0
0
0
3
3
2
2
0
0
0
0
0
0
0
0
0
0
0
0
0
0
0
0
0
0
0
0
0
0
0
0
3
3
2
2
0
0
0
0
0
0
0
0
0
0
0
0
0
0
0
0
0
0
0
0
0
0
0
0
3
3
2
2
0
0
0
0
0
0
0
0
0
0
0
0
0
0
0
0
0
0
0
0
0
0
0
0
3
3
2
2
0
0
0
0
0
0
0
0
0
0
0
0
0
0
0
0
0
0
0
0
0
0
0
0
3
3
2
2
0
0
0
0
0
0
0
0
0
0
0
0
0
0
0
0
0
0
0
0
0
0
0
0
3
3
2
2
2
2
2
2
2
2
2
2
2
2
2
2
2
2
2
2
2
2
2
2
2
2
2
2
3
3
2
2
2
2
2
2
2
2
2
2
2
2
2
2
2
2
2
2
2
2
2
2
2
2
2
2
3
3
3
3
3
3
3
3
3
3
3
3
3
3
3
3
3
3
3
3
3
3
3
3
3
3
3
3
3
3
3
3
3
3
3
3
3
3
3
3
3
3
3
3
3
3
3
3
3
3
3
3
3
3
3
3
</DataArray>
<DataArray NumberOfComponents='1' type='Float32' Name='Velocity' format='ascii'>
0.000000
0.000000
0.000000
0.000000
0.000000
0.000000
0.000000
0.000000
0.000000
0.000000
0.000000
0.000000
0.000000
0.000000
0.000000
0.000000
0.000000
0.000000
0.000000
0.000000
0.000000
0.000000
0.000000
0.000000
0.000000
0.000000
0.000000
0.000000
0.000000
0.000000
0.000000
0.000000
0.000000
0.000000
0.000000
0.000000
0.000000
0.000000
0.000000
0.000000
0.000000
0.000000
0.000000
0.000000
0.000000
0.000000
0.000000
0.000000
0.000000
0.000000
0.000000
0.000000
0.000000
0.000000
0.000000
0.000000
0.000000
0.000000
0.000000
0.000000
0.000000
0.000000
0.000000
0.000000
0.000000
0.000000
0.000000
0.000000
0.000000
0.000000
0.000000
0.000000
0.000000
0.000000
0.000000
0.000000
0.000000
0.000000
0.000000
0.000000
0.000000
0.000000
0.000000
0.000000
0.000000
0.000000
0.000000
0.000000
0.000000
0.000000
0.000000
0.000000
0.000000
0.000000
0.000000
0.000000
0.000000
0.000000
0.000000
0.000000
0.000000
0.000000
0.000000
0.000000
0.000000
0.000000
0.000000
0.000000
0.000000
0.000000
0.000000
0.000000
0.000000
0.000000
0.000000
0.000000
0.065549
0.011100
0.122036
0.210051
0.233196
0.074119
0.171576
0.213447
0.217604
0.330190
0.179619
0.035288
0.301163
0.253325
0.168601
0.541695
0.100000
0.100000
0.100000
0.100000
0.100000
0.100000
0.100000
0.100000
0.000000
0.000000
0.000000
0.000000
0.208424
0.252907
0.040066
0.240965
0.324781
0.436774
0.290627
0.148982
0.106501
0.298169
0.239411
0.137480
0.200378
0.212723
0.128886
0.251617
0.177306
0.366324
0.100000
0.100000
0.100000
0.100000
0.100000
0.100000
0.000000
0.000000
0.000000
0.000000
0.120699
0.282048
0.052318
0.143873
0.093632
0.103980
0.072932
0.209295
0.113674
0.090247
0.029231
0.086709
0.127734
0.127968
0.130804
0.233191
0.145976
0.092134
0.304994
0.542823
0.100000
0.100000
0.100000
0.100000
0.000000
0.000000
0.000000
0.000000
0.174226
0.327659
0.253238
0.198829
0.324049
0.147078
0.146027
0.181670
0.117956
0.224573
0.092081
0.214836
0.238962
0.084381
0.145728
0.225174
0.125763
0.274400
0.043641
0.208957
0.088888
0.100000
0.100000
0.100000
0.000000
0.000000
0.000000
0.000000
0.210425
0.371835
0.177027
0.221073
0.394596
0.155163
0.132710
0.023756
0.134050
0.117971
0.166769
0.098059
0.381225
0.252521
0.019946
0.107880
0.084983
0.247572
0.159232
0.143383
0.100000
0.130011
0.100000
0.100000
0.000000
0.000000
0.000000
0.000000
0.097877
0.339067
0.144523
0.374785
0.082497
0.198148
0.328211
0.120271
0.180708
0.164014
0.301521
0.083948
0.082786
0.229574
0.259435
0.330609
0.308816
0.202218
0.174026
0.167711
0.042999
0.029957
0.100000
0.100000
0.000000
0.000000
0.000000
0.000000
0.042880
0.026458
0.259952
0.183527
0.211270
0.030160
0.129353
0.215298
0.047390
0.076197
0.321009
0.127539
0.214943
0.435957
0.044117
0.363335
0.113584
0.214477
0.158654
0.176694
0.140762
0.023227
0.100000
0.100000
0.000000
0.000000
0.000000
0.000000
0.058169
0.213796
0.109573
0.127367
0.214434
0.360486
0.132837
0.215480
0.172244
0.242593
0.085213
0.174211
0.096940
0.046381
0.182084
0.072354
0.165242
0.239392
0.048308
0.209197
0.128662
0.186712
0.100000
0.100000
0.000000
0.000000
0.000000
0.000000
0.408696
0.143962
0.179880
0.254266
0.229748
0.336700
0.191598
0.213766
0.172050
0.206341
0.086568
0.346931
0.141928
0.086704
0.121496
0.095659
0.129719
0.181281
0.227412
0.314975
0.270502
0.018270
0.247319
0.100000
0.000000
0.000000
0.000000
0.000000
0.072484
0.202987
0.130300
0.244694
0.056874
0.361998
0.209402
0.187234
0.083526
0.237825
0.156187
0.138576
0.164076
0.292055
0.139435
0.103704
0.089362
0.047063
0.176597
0.241801
0.267086
0.148428
0.100000
0.100000
0.000000
0.000000
0.000000
0.000000
0.146309
0.071265
0.071807
0.179452
0.199322
0.132812
0.069225
0.134410
0.101134
0.143060
0.068764
0.046875
0.041372
0.132882
0.091472
0.049677
0.182600
0.164370
0.108743
0.189924
0.208188
0.100000
0.106373
0.100000
0.000000
0.000000
0.000000
0.000000
0.123854
0.106755
0.114874
0.121464
0.044100
0.092411
0.068885
0.097979
0.067211
0.108335
0.224063
0.163530
0.129214
0.146891
0.071714
0.120676
0.099471
0.182262
0.089560
0.067025
0.300454
0.139482
0.207343
0.100000
0.000000
0.000000
0.000000
0.000000
0.123722
0.192442
0.142728
0.184765
0.139813
0.152547
0.274076
0.206443
0.031357
0.293462
0.367259
0.302347
0.209200
0.274125
0.244705
0.119877
0.128816
0.351738
0.098847
0.210443
0.022375
0.199143
0.100000
0.100000
0.000000
0.000000
0.000000
0.000000
0.171698
0.110360
0.147008
0.106237
0.066312
0.115688
0.226984
0.153428
0.072537
0.164305
0.082093
0.262837
0.245936
0.324518
0.133987
0.073144
0.151614
0.163507
0.098584
0.082017
0.257722
0.184998
0.073734
0.100000
0.000000
0.000000
0.000000
0.000000
0.149265
0.256078
0.102041
0.177197
0.043979
0.097348
0.097690
0.095250
0.395297
0.225958
0.279006
0.183839
0.130657
0.200459
0.042614
0.135687
0.115751
0.238617
0.055946
0.084124
0.129847
0.114807
0.100000
0.100000
0.000000
0.000000
0.000000
0.000000
0.146555
0.026980
0.118287
0.166513
0.216549
0.032887
0.045780
0.113497
0.125590
0.311210
0.196824
0.230588
0.196306
0.177077
0.094386
0.088842
0.221341
0.049704
0.130575
0.243753
0.141600
0.199068
0.100000
0.100000
0.000000
0.000000
0.000000
0.000000
0.206984
0.180814
0.153168
0.153932
0.168640
0.189167
0.126103
0.192689
0.393421
0.279331
0.124550
0.316396
0.140340
0.112435
0.105875
0.220489
0.185461
0.132476
0.147309
0.179469
0.098717
0.215471
0.188638
0.100000
0.000000
0.000000
0.000000
0.000000
0.020172
0.077023
0.133276
0.186613
0.121245
0.057942
0.112336
0.011836
0.162229
0.241472
0.168209
0.173505
0.134793
0.235641
0.102288
0.180171
0.100566
0.061425
0.049006
0.070590
0.368182
0.299167
0.126885
0.100000
0.000000
0.000000
0.000000
0.000000
0.080668
0.070892
0.224475
0.130918
0.131121
0.109670
0.178796
0.090024
0.206999
0.348660
0.277355
0.005827
0.168649
0.036551
0.171540
0.046054
0.115817
0.101990
0.256484
0.161344
0.242408
0.283301
0.514657
0.100000
0.000000
0.000000
0.000000
0.000000
0.044220
0.163459
0.045270
0.165132
0.119630
0.256109
0.166002
0.069303
0.119391
0.019452
0.061995
0.049604
0.120796
0.119732
0.078116
0.053884
0.058306
0.091005
0.076237
0.178462
0.288459
0.129904
0.100000
0.100000
0.000000
0.000000
0.000000
0.000000
0.082663
0.071438
0.139364
0.284653
0.073207
0.164524
0.277905
0.165976
0.120907
0.250460
0.267562
0.184114
0.296585
0.069248
0.190400
0.123562
0.085029
0.161282
0.098093
0.216363
0.028172
0.226960
0.297950
0.100000
0.000000
0.000000
0.000000
0.000000
0.065280
0.076116
0.150393
0.072076
0.180685
0.075366
0.125792
0.260103
0.082371
0.171483
0.206972
0.142325
0.177122
0.353704
0.357224
0.037139
0.203238
0.155984
0.412407
0.090065
0.186607
0.085034
0.313293
0.100000
0.000000
0.000000
0.000000
0.000000
0.031083
0.069378
0.103954
0.216625
0.099879
0.175103
0.174535
0.150130
0.067809
0.117617
0.222874
0.236425
0.249058
0.158943
0.076548
0.160415
0.248215
0.283055
0.090141
0.282497
0.109083
0.228093
0.543950
0.100000
0.000000
0.000000
0.000000
0.000000
0.108178
0.091265
0.134956
0.204255
0.235053
0.302510
0.241005
0.218415
0.137676
0.066760
0.187760
0.216148
0.078427
0.128209
0.190619
0.121687
0.130914
0.203248
0.185533
0.100467
0.083831
0.257804
0.358982
0.100000
0.000000
0.000000
0.000000
0.000000
0.032174
0.132549
0.201699
0.199997
0.082523
0.120259
0.115378
0.137080
0.169941
0.156310
0.077205
0.079382
0.130329
0.040685
0.099285
0.067277
0.180611
0.021210
0.100325
0.192174
0.053908
0.724709
0.286474
0.100000
0.000000
0.000000
0.000000
0.000000
0.028573
0.043837
0.197317
0.048580
0.163372
0.127982
0.165441
0.238022
0.228669
0.073054
0.192471
0.378482
0.036729
0.123404
0.091278
0.159117
0.239135
0.111697
0.072560
0.047391
0.347556
0.055806
0.100000
0.100000
0.000000
0.000000
0.000000
0.000000
0.133103
0.139005
0.031501
0.022939
0.042555
0.232971
0.258237
0.089631
0.270520
0.128372
0.100437
0.065406
0.051239
0.130877
0.194211
0.156500
0.113559
0.060594
0.091488
0.124364
0.175547
0.205873
0.443117
0.100000
0.000000
0.000000
0.000000
0.000000
0.095826
0.067921
0.096779
0.042142
0.078320
0.314077
0.329557
0.074089
0.024745
0.219450
0.110187
0.109481
0.166845
0.045978
0.244986
0.063593
0.146183
0.220740
0.028775
0.055879
0.142181
0.492768
0.371538
0.100000
0.000000
0.000000
0.000000
0.000000
0.032421
0.080147
0.177496
0.144597
0.082453
0.114457
0.165106
0.212393
0.085789
0.207586
0.007083
0.051977
0.117127
0.116877
0.141017
0.307681
0.081861
0.249365
0.067422
0.169100
0.084121
0.331175
0.100000
0.100000
0.000000
0.000000
0.000000
0.000000
0.074163
0.020612
0.188132
0.103784
0.035403
0.108137
0.054390
0.082511
0.165305
0.197003
0.160904
0.180497
0.197735
0.226341
0.077248
0.170344
0.038439
0.094687
0.120572
0.039925
0.249351
0.107139
0.171838
0.100000
0.000000
0.000000
0.000000
0.000000
0.141249
0.100416
0.177311
0.107310
0.071406
0.255359
0.256817
0.186750
0.127277
0.194681
0.030120
0.056969
0.111115
0.304593
0.190365
0.192755
0.118183
0.145088
0.091983
0.078303
0.066068
0.072663
0.298085
0.100000
0.000000
0.000000
0.000000
0.000000
0.217791
0.122018
0.128939
0.136288
0.057506
0.195372
0.181773
0.248532
0.297801
0.237841
0.105949
0.262087
0.052221
0.159388
0.093062
0.115091
0.056502
0.083103
0.194580
0.201453
0.132769
0.185364
0.190409
0.100000
0.000000
0.000000
0.000000
0.000000
0.111990
0.074478
0.050376
0.099941
0.100707
0.174212
0.199905
0.192835
0.045694
0.149470
0.343825
0.160902
0.065893
0.122721
0.271777
0.204061
0.196018
0.113586
0.120704
0.175305
0.214465
0.273420
0.513421
0.100000
0.000000
0.000000
0.000000
0.000000
0.219232
0.061500
0.025715
0.136580
0.257072
0.131389
0.178202
0.149793
0.185797
0.106147
0.093367
0.270074
0.074131
0.070417
0.115608
0.171286
0.121613
0.093009
0.102833
0.221279
0.095813
0.157938
0.153746
0.100000
0.000000
0.000000
0.000000
0.000000
0.061588
0.236715
0.243277
0.038467
0.055980
0.165903
0.073344
0.142722
0.086364
0.108485
0.174678
0.265986
0.196760
0.108362
0.187723
0.155105
0.123673
0.105028
0.106132
0.064338
0.072320
0.217374
0.045399
0.100000
0.000000
0.000000
0.000000
0.000000
0.184031
0.081776
0.152921
0.216848
0.184478
0.472365
0.416613
0.075456
0.078222
0.097668
0.125003
0.161074
0.152395
0.086823
0.017956
0.124587
0.202466
0.114039
0.189225
0.123849
0.071002
0.396166
0.649059
0.100000
0.000000
0.000000
0.000000
0.000000
0.244309
0.247120
0.115919
0.045580
0.140589
0.202138
0.176793
0.242338
0.086637
0.100174
0.057094
0.181028
0.210781
0.191255
0.300762
0.190204
0.265209
0.174190
0.166183
0.136582
0.194005
0.328894
0.136924
0.100000
0.000000
0.000000
0.000000
0.000000
0.190506
0.017175
0.245896
0.160434
0.200429
0.198963
0.114855
0.100891
0.313561
0.109912
0.150052
0.152041
0.245836
0.260140
0.238348
0.143707
0.074674
0.190833
0.079684
0.133785
0.199621
0.081183
0.181771
0.100000
0.000000
0.000000
0.000000
0.000000
0.224057
0.209122
0.149436
0.071294
0.057007
0.038928
0.211584
0.242053
0.183230
0.089603
0.040625
0.205017
0.136553
0.077316
0.173258
0.268869
0.168589
0.052712
0.026312
0.262488
0.038254
0.369683
0.479373
0.100000
0.000000
0.000000
0.000000
0.000000
0.211869
0.136849
0.165739
0.107360
0.152830
0.109908
0.055988
0.169809
0.084321
0.179628
0.209580
0.092200
0.190527
0.353703
0.236175
0.157918
0.056437
0.150703
0.325894
0.018144
0.170688
0.208780
0.315542
0.100000
0.000000
0.000000
0.000000
0.000000
0.000000
0.000000
0.000000
0.000000
0.000000
0.000000
0.000000
0.000000
0.000000
0.000000
0.000000
0.000000
0.000000
0.000000
0.000000
0.000000
0.000000
0.000000
0.000000
0.000000
0.000000
0.000000
0.000000
0.000000
0.000000
0.000000
0.000000
0.000000
0.000000
0.000000
0.000000
0.000000
0.000000
0.000000
0.000000
0.000000
0.000000
0.000000
0.000000
0.000000
0.000000
0.000000
0.000000
0.000000
0.000000
0.000000
0.000000
0.000000
0.000000
0.000000
0.000000
0.000000
0.000000
0.000000
0.000000
0.000000
0.000000
0.000000
0.000000
0.000000
0.000000
0.000000
0.000000
0.000000
0.000000
0.000000
0.000000
0.000000
0.000000
0.000000
0.000000
0.000000
0.000000
0.000000
0.000000
0.000000
0.000000
0.000000
0.000000
0.000000
0.000000
0.000000
0.000000
0.000000
0.000000
0.000000
0.000000
0.000000
0.000000
0.000000
0.000000
0.000000
0.000000
0.000000
0.000000
0.000000
0.000000
0.000000
0.000000
0.000000
0.000000
0.000000
0.000000
0.000000
0.000000
0.000000
0.000000
0.000000
</DataArray>
<DataArray NumberOfComponents='1' type='Float32' Name='pressure' format='ascii'>
0.000000
0.000000
0.000000
0.000000
0.000000
0.000000
0.000000
0.000000
0.000000
0.000000
0.000000
0.000000
0.000000
0.000000
0.000000
0.000000
0.000000
0.000000
0.000000
0.000000
0.000000
0.000000
0.000000
0.000000
0.000000
0.000000
0.000000
0.000000
0.000000
0.000000
0.000000
0.000000
0.000000
0.000000
0.000000
0.000000
0.000000
0.000000
0.000000
0.000000
0.000000
0.000000
0.000000
0.000000
0.000000
0.000000
0.000000
0.000000
0.000000
0.000000
0.000000
0.000000
0.000000
0.000000
0.000000
0.000000
0.000000
0.000000
44520.496094
44428.871094
44027.882812
44898.144531
43779.335938
45017.332031
44960.097656
44812.128906
44243.515625
43647.593750
43094.210938
42456.132812
42881.558594
43166.355469
43117.296875
43300.742188
43285.199219
42046.476562
41811.410156
43192.562500
44343.453125
45135.039062
44815.453125
42670.843750
36530.332031
0.000000
0.000000
0.000000
44647.292969
44571.566406
44189.457031
45347.308594
43648.781250
44945.910156
45543.699219
44807.000000
43770.121094
43624.566406
43609.835938
43379.472656
43259.312500
43473.441406
43303.402344
44246.671875
43691.890625
42349.378906
41454.257812
42964.828125
43931.277344
44950.222656
46005.074219
45321.304688
45421.359375
30386.638672
0.000000
0.000000
45292.218750
44733.070312
45039.359375
43255.738281
43050.902344
42495.257812
44396.031250
44349.984375
43315.601562
43215.144531
44624.988281
44090.500000
44436.570312
43223.468750
42863.640625
45108.910156
43340.058594
39736.703125
38795.226562
31379.603516
48273.222656
0.000000
27625.978516
37107.777344
50434.007812
53349.214844
0.000000
0.000000
45593.093750
44493.609375
43810.082031
44206.281250
43780.605469
43807.453125
43454.214844
44178.976562
43704.105469
42729.605469
43910.304688
43616.839844
42480.718750
43096.128906
43412.523438
42828.511719
43680.750000
47533.660156
40713.351562
42295.539062
47876.718750
39216.113281
43474.714844
0.000000
58583.906250
54512.277344
0.000000
0.000000
45482.621094
44417.683594
44809.363281
44710.640625
45229.535156
44182.953125
43216.054688
43563.683594
44578.425781
44398.312500
44166.656250
44541.761719
44261.722656
44779.742188
43927.312500
44118.636719
44235.425781
43466.503906
47499.328125
47385.980469
38734.742188
39809.542969
52796.054688
46484.929688
54802.859375
54975.988281
0.000000
0.000000
45074.136719
45098.718750
44247.371094
43774.527344
43215.828125
42895.968750
44251.906250
44377.726562
43155.343750
44456.625000
44380.613281
42972.777344
44423.777344
43144.937500
44431.894531
44324.890625
43959.191406
43670.683594
43597.507812
42520.406250
50661.078125
53484.414062
49732.871094
57543.449219
61301.835938
56113.437500
0.000000
0.000000
45306.437500
45063.980469
44138.886719
43250.335938
44815.917969
43222.539062
42878.949219
43644.453125
44478.769531
44420.273438
43704.312500
44604.054688
44676.058594
44259.929688
44801.457031
44462.511719
45774.355469
45370.765625
44697.277344
45478.765625
47878.855469
55886.011719
62599.847656
51461.082031
60499.796875
55952.605469
0.000000
0.000000
43838.031250
44673.273438
43667.730469
42542.632812
44581.933594
44257.703125
43798.039062
43672.460938
43795.703125
44509.925781
43410.167969
43762.835938
43934.933594
44955.750000
44650.984375
46161.984375
44823.570312
46396.593750
47352.750000
46155.941406
51820.144531
51439.453125
54578.390625
56156.816406
54656.835938
51417.531250
0.000000
0.000000
44003.570312
44083.812500
43352.613281
43456.343750
44324.929688
44073.507812
43714.101562
44208.285156
43823.292969
43334.164062
44218.238281
44388.312500
43408.523438
44413.410156
45283.375000
46804.492188
45922.257812
47476.875000
48510.191406
48031.382812
49241.605469
49942.277344
51707.226562
54703.523438
54440.050781
49615.257812
0.000000
0.000000
45012.839844
44741.281250
43724.566406
43566.195312
43526.355469
44625.722656
43705.121094
43526.445312
43305.093750
43413.570312
44256.859375
44055.808594
44973.839844
44623.113281
44027.281250
44178.988281
45366.453125
46396.566406
48484.410156
50717.894531
51414.808594
51091.574219
52972.226562
55097.089844
51643.023438
49362.355469
0.000000
0.000000
44652.062500
43837.300781
43711.847656
43070.953125
44167.421875
43231.035156
43652.917969
42546.984375
43202.312500
43416.820312
43784.207031
43461.675781
43651.917969
45711.019531
44875.101562
46063.093750
46296.351562
47287.078125
48585.921875
50034.117188
50188.656250
50102.230469
49986.113281
53601.503906
48720.785156
48657.679688
0.000000
0.000000
43854.320312
43646.710938
44802.808594
44157.929688
44503.554688
44298.582031
43282.640625
42995.906250
42816.722656
44283.914062
43973.433594
43834.632812
43628.980469
45413.593750
45790.929688
46887.875000
47057.636719
46762.109375
48269.121094
49352.796875
47558.144531
48911.996094
48646.906250
52223.074219
48406.824219
47881.484375
0.000000
0.000000
43621.367188
43777.781250
43747.656250
43255.457031
44279.140625
42922.175781
42657.882812
44569.343750
43286.042969
43695.773438
45300.738281