<?xml version='1.0' encoding='UTF-8'?>
<VTKFile xmlns='VTK' byte_order='LittleEndian' version='0.1' type='UnstructuredGrid'>
<UnstructuredGrid>
<Piece NumberOfCells='1344' NumberOfPoints='1344'>
<Points>
<DataArray NumberOfComponents='3' type='Float32' Name='Position' format='ascii'>
-0.075000 -0.075000 0.000000
-0.075000 -0.050000 0.000000
-0.075000 -0.025000 0.000000
-0.075000 0.000000 0.000000
-0.075000 0.025000 0.000000
-0.075000 0.050000 0.000000
-0.075000 0.075000 0.000000
-0.075000 0.100000 0.000000
-0.075000 0.125000 0.000000
-0.075000 0.150000 0.000000
-0.075000 0.175000 0.000000
-0.075000 0.200000 0.000000
-0.075000 0.225000 0.000000
-0.075000 0.250000 0.000000
-0.075000 0.275000 0.000000
-0.075000 0.300000 0.000000
-0.075000 0.325000 0.000000
-0.075000 0.350000 0.000000
-0.075000 0.375000 0.000000
-0.075000 0.400000 0.000000
-0.075000 0.425000 0.000000
-0.075000 0.450000 0.000000
-0.075000 0.475000 0.000000
-0.075000 0.500000 0.000000
-0.075000 0.525000 0.000000
-0.075000 0.550000 0.000000
-0.075000 0.575000 0.000000
-0.075000 0.600000 0.000000
-0.050000 -0.075000 0.000000
-0.050000 -0.050000 0.000000
-0.050000 -0.025000 0.000000
-0.050000 0.000000 0.000000
-0.050000 0.025000 0.000000
-0.050000 0.050000 0.000000
-0.050000 0.075000 0.000000
-0.050000 0.100000 0.000000
-0.050000 0.125000 0.000000
-0.050000 0.150000 0.000000
-0.050000 0.175000 0.000000
-0.050000 0.200000 0.000000
-0.050000 0.225000 0.000000
-0.050000 0.250000 0.000000
-0.050000 0.275000 0.000000
-0.050000 0.300000 0.000000
-0.050000 0.325000 0.000000
-0.050000 0.350000 0.000000
-0.050000 0.375000 0.000000
-0.050000 0.400000 0.000000
-0.050000 0.425000 0.000000
-0.050000 0.450000 0.000000
-0.050000 0.475000 0.000000
-0.050000 0.500000 0.000000
-0.050000 0.525000 0.000000
-0.050000 0.550000 0.000000
-0.050000 0.575000 0.000000
-0.050000 0.600000 0.000000
-0.025000 -0.075000 0.000000
-0.025000 -0.050000 0.000000
-0.025000 -0.025000 0.000000
-0.025000 0.000000 0.000000
-0.025000 0.025000 0.000000
-0.025000 0.050000 0.000000
-0.025000 0.075000 0.000000
-0.025000 0.100000 0.000000
-0.025000 0.125000 0.000000
-0.025000 0.150000 0.000000
-0.025000 0.175000 0.000000
-0.025000 0.200000 0.000000
-0.025000 0.225000 0.000000
-0.025000 0.250000 0.000000
-0.025000 0.275000 0.000000
-0.025000 0.300000 0.000000
-0.025000 0.325000 0.000000
-0.025000 0.350000 0.000000
-0.025000 0.375000 0.000000
-0.025000 0.400000 0.000000
-0.025000 0.425000 0.000000
-0.025000 0.450000 0.000000
-0.025000 0.475000 0.000000
-0.025000 0.500000 0.000000
-0.025000 0.525000 0.000000
-0.025000 0.550000 0.000000
-0.025000 0.575000 0.000000
-0.025000 0.600000 0.000000
0.000000 -0.075000 0.000000
0.000000 -0.050000 0.000000
0.000000 -0.025000 0.000000
0.000000 0.000000 0.000000
0.000000 0.025000 0.000000
0.000000 0.050000 0.000000
0.000000 0.075000 0.000000
0.000000 0.100000 0.000000
0.000000 0.125000 0.000000
0.000000 0.150000 0.000000
0.000000 0.175000 0.000000
0.000000 0.200000 0.000000
0.000000 0.225000 0.000000
0.000000 0.250000 0.000000
0.000000 0.275000 0.000000
0.000000 0.300000 0.000000
0.000000 0.325000 0.000000
0.000000 0.350000 0.000000
0.000000 0.375000 0.000000
0.000000 0.400000 0.000000
0.000000 0.425000 0.000000
0.000000 0.450000 0.000000
0.000000 0.475000 0.000000
0.000000 0.500000 0.000000
0.000000 0.525000 0.000000
0.000000 0.550000 0.000000
0.000000 0.575000 0.000000
0.000000 0.600000 0.000000
0.025000 -0.075000 0.000000
0.025000 -0.050000 0.000000
0.025000 -0.025000 0.000000
0.025000 0.000000 0.000000
0.024872 0.024932 0.000000
0.025034 0.050142 0.000000
0.024962 0.075097 0.000000
0.024987 0.100214 0.000000
0.024968 0.125301 0.000000
0.024983 0.150362 0.000000
0.024956 0.175510 0.000000
0.024970 0.200580 0.000000
0.024957 0.225762 0.000000
0.024952 0.250864 0.000000
0.024921 0.276091 0.000000
0.024937 0.301261 0.000000
0.024911 0.326538 0.000000
0.024900 0.351796 0.000000
0.024799 0.377171 0.000000
0.025018 0.402644 0.000000
0.024610 0.427962 0.000000
0.024930 0.453795 0.000000
0.024733 0.479203 0.000000
0.024666 0.504993 0.000000
0.023930 0.531311 0.000000
0.021829 0.562023 0.000000
0.040744 0.575640 0.000000
0.040946 0.600000 0.000000
0.050000 -0.075000 0.000000
0.050000 -0.050000 0.000000
0.050000 -0.025000 0.000000
0.050000 0.000000 0.000000
0.049847 0.024990 0.000000
0.049918 0.050042 0.000000
0.049877 0.075112 0.000000
0.049905 0.100124 0.000000
0.049824 0.125224 0.000000
0.049890 0.150208 0.000000
0.049790 0.175340 0.000000
0.049850 0.200306 0.000000
0.049744 0.225433 0.000000
0.049790 0.250416 0.000000
0.049670 0.275540 0.000000
0.049711 0.300461 0.000000
0.049512 0.325650 0.000000
0.049596 0.350550 0.000000
0.049247 0.375756 0.000000
0.049374 0.400588 0.000000
0.048914 0.426080 0.000000
0.049079 0.450905 0.000000
0.048525 0.476247 0.000000
0.048764 0.501792 0.000000
0.048620 0.527136 0.000000
0.044092 0.550016 0.000000
0.065939 0.575499 0.000000
0.065968 0.600000 0.000000
0.075000 -0.075000 0.000000
0.075000 -0.050000 0.000000
0.075000 -0.025000 0.000000
0.075000 0.000000 0.000000
0.074752 0.024952 0.000000
0.074920 0.050134 0.000000
0.074865 0.075127 0.000000
0.074854 0.100179 0.000000
0.074844 0.125293 0.000000
0.074855 0.150281 0.000000
0.074803 0.175428 0.000000
0.074846 0.200421 0.000000
0.074772 0.225576 0.000000
0.074822 0.250561 0.000000
0.074733 0.275737 0.000000
0.074782 0.300740 0.000000
0.074701 0.325925 0.000000
0.074675 0.350900 0.000000
0.074637 0.376071 0.000000
0.074483 0.401140 0.000000
0.074497 0.426059 0.000000
0.074064 0.450970 0.000000
0.074418 0.476628 0.000000
0.073335 0.500149 0.000000
0.074162 0.527190 0.000000
0.071975 0.550057 0.000000
0.091068 0.575485 0.000000
0.091027 0.600000 0.000000
0.100000 -0.075000 0.000000
0.100000 -0.050000 0.000000
0.100000 -0.025000 0.000000
0.100000 0.000000 0.000000
0.099703 0.024953 0.000000
0.099805 0.050046 0.000000
0.099792 0.075067 0.000000
0.099783 0.100113 0.000000
0.099748 0.125203 0.000000
0.099749 0.150182 0.000000
0.099714 0.175336 0.000000
0.099707 0.200286 0.000000
0.099662 0.225422 0.000000
0.099647 0.250419 0.000000
0.099600 0.275500 0.000000
0.099525 0.300533 0.000000
0.099513 0.325554 0.000000
0.099328 0.350693 0.000000
0.099385 0.375672 0.000000
0.099109 0.400692 0.000000
0.099213 0.426013 0.000000
0.098658 0.450897 0.000000
0.099332 0.475897 0.000000
0.097833 0.501335 0.000000
0.100057 0.526091 0.000000
0.095934 0.549802 0.000000
0.116045 0.575515 0.000000
0.116004 0.600000 0.000000
0.125000 -0.075000 0.000000
0.125000 -0.050000 0.000000
0.125000 -0.025000 0.000000
0.125000 0.000000 0.000000
0.124664 0.025015 0.000000
0.124804 0.050079 0.000000
0.124784 0.075166 0.000000
0.124720 0.100152 0.000000
0.124738 0.125308 0.000000
0.124709 0.150256 0.000000
0.124696 0.175430 0.000000
0.124686 0.200374 0.000000
0.124671 0.225551 0.000000
0.124641 0.250518 0.000000
0.124637 0.275659 0.000000
0.124599 0.300701 0.000000
0.124554 0.325811 0.000000
0.124566 0.350777 0.000000
0.124371 0.375991 0.000000
0.124422 0.400899 0.000000
0.124196 0.426018 0.000000
0.123992 0.450777 0.000000
0.124134 0.476434 0.000000
0.123254 0.500267 0.000000
0.124465 0.526550 0.000000
0.122698 0.550868 0.000000
0.140996 0.575529 0.000000
0.141004 0.600000 0.000000
0.150000 -0.075000 0.000000
0.150000 -0.050000 0.000000
0.150000 -0.025000 0.000000
0.150000 0.000000 0.000000
0.149565 0.024941 0.000000
0.149718 0.050090 0.000000
0.149697 0.075100 0.000000
0.149651 0.100137 0.000000
0.149690 0.125235 0.000000
0.149606 0.150167 0.000000
0.149660 0.175349 0.000000
0.149565 0.200247 0.000000
0.149605 0.225425 0.000000
0.149507 0.250342 0.000000
0.149507 0.275529 0.000000
0.149432 0.300385 0.000000
0.149366 0.325678 0.000000
0.149288 0.350484 0.000000
0.149279 0.375830 0.000000
0.149024 0.400526 0.000000
0.149256 0.426094 0.000000
0.148582 0.450661 0.000000
0.149557 0.475893 0.000000
0.147818 0.501042 0.000000
0.150032 0.525661 0.000000
0.147140 0.550180 0.000000
0.166040 0.575555 0.000000
0.166006 0.600000 0.000000
0.175000 -0.075000 0.000000
0.175000 -0.050000 0.000000
0.175000 -0.025000 0.000000
0.175000 0.000000 0.000000
0.174537 0.024943 0.000000
0.174677 0.050088 0.000000
0.174683 0.075092 0.000000
0.174632 0.100128 0.000000
0.174640 0.125238 0.000000
0.174602 0.150199 0.000000
0.174598 0.175400 0.000000
0.174567 0.200299 0.000000
0.174557 0.225576 0.000000
0.174528 0.250414 0.000000
0.174511 0.275735 0.000000
0.174438 0.300558 0.000000
0.174509 0.325830 0.000000
0.174241 0.350684 0.000000
0.174522 0.375869 0.000000
0.173937 0.400843 0.000000
0.174516 0.425794 0.000000
0.173501 0.450787 0.000000
0.174425 0.476117 0.000000
0.173094 0.500245 0.000000
0.174667 0.526234 0.000000
0.172919 0.550516 0.000000
0.191004 0.575562 0.000000
0.191003 0.600000 0.000000
0.200000 -0.075000 0.000000
0.200000 -0.050000 0.000000
0.200000 -0.025000 0.000000
0.200000 0.000000 0.000000
0.199459 0.024980 0.000000
0.199607 0.050059 0.000000
0.199612 0.075129 0.000000
0.199575 0.100111 0.000000
0.199566 0.125275 0.000000
0.199532 0.150162 0.000000
0.199518 0.175400 0.000000
0.199470 0.200228 0.000000
0.199480 0.225489 0.000000
0.199378 0.250326 0.000000
0.199466 0.275547 0.000000
0.199229 0.300440 0.000000
0.199436 0.325608 0.000000
0.199061 0.350573 0.000000
0.199317 0.375753 0.000000
0.198944 0.400553 0.000000
0.199149 0.426072 0.000000
0.198771 0.450519 0.000000
0.199339 0.475959 0.000000
0.198253 0.500878 0.000000
0.199838 0.525563 0.000000
0.197884 0.550401 0.000000
0.216025 0.575586 0.000000
0.216004 0.600000 0.000000
0.225000 -0.075000 0.000000
0.225000 -0.050000 0.000000
0.225000 -0.025000 0.000000
0.225000 0.000000 0.000000
0.224408 0.025001 0.000000
0.224583 0.050058 0.000000
0.224576 0.075143 0.000000
0.224523 0.100111 0.000000
0.224550 0.125275 0.000000
0.224473 0.150186 0.000000
0.224530 0.175386 0.000000
0.224415 0.200277 0.000000
0.224524 0.225490 0.000000
0.224334 0.250373 0.000000
0.224497 0.275603 0.000000
0.224259 0.300476 0.000000
0.224385 0.325774 0.000000
0.224187 0.350492 0.000000
0.224307 0.375922 0.000000
[...]
<PointData>
<DataArray NumberOfComponents='1' type='Int32' Name='ParticleType' format='ascii'>
3
3
3
3
3
3
3
3
3
3
3
3
3
3
3
3
3
3
3
3
3
3
3
3
3
3
3
3
3
3
3
3
3
3
3
3
3
3
3
3
3
3
3
3
3
3
3
3
3
3
3
3
3
3
3
3
3
3
2
2
2
2
2
2
2
2
2
2
2
2
2
2
2
2
2
2
2
2
2
2
2
2
2
2
3
3
2
2
2
2
2
2
2
2
2
2
2
2
2
2
2
2
2
2
2
2
2
2
2
2
2
2
3
3
2
2
0
0
0
0
0
0
0
0
0
0
0
0
0
0
0
0
0
0
0
0
0
0
0
0
3
3
2
2
0
0
0
0
0
0
0
0
0
0
0
0
0
0
0
0
0
0
0
0
0
0
0
0
3
3
2
2
0
0
0
0
0
0
0
0
0
0
0
0
0
0
0
0
0
0
0
0
0
0
0
0
3
3
2
2
0
0
0
0
0
0
0
0
0
0
0
0
0
0
0
0
0
0
0
0
0
0
0
0
3
3
2
2
0
0
0
0
0
0
0
0
0
0
0
0
0
0
0
0
0
0
0
0
0
0
0
0
3
3
2
2
0
0
0
0
0
0
0
0
0
0
0
0
0
0
0
0
0
0
0
0
0
0
0
0
3
3
2
2
0
0
0
0
0
0
0
0
0
0
0
0
0
0
0
0
0
0
0
0
0
0
0
0
3
3
2
2
0
0
0
0
0
0
0
0
0
0
0
0
0
0
0
0
0
0
0
0
0
0
0
0
3
3
2
2
0
0
0
0
0
0
0
0
0
0
0
0
0
0
0
0
0
0
0
0
0
0
0
0
3
3
2
2
0
0
0
0
0
0
0
0
0
0
0
0
0
0
0
0
0
0
0
0
0
0
0
0
3
3
2
2
0
0
0
0
0
0
0
0
0
0
0
0
0
0
0
0
0
0
0
0
0
0
0
0
3
3
2
2
0
0
0
0
0
0
0
0
0
0
0
0
0
0
0
0
0
0
0
0
0
0
0
0
3
3
2
2
0
0
0
0
0
0
0
0
0
0
0
0
0
0
0
0
0
0
0
0
0
0
0
0
3
3
2
2
0
0
0
0
0
0
0
0
0
0
0
0
0
0
0
0
0
0
0
0
0
0
0
0
3
3
2
2
0
0
0
0
0
0
0
0
0
0
0
0
0
0
0
0
0
0
0
0
0
0
0
0
3
3
2
2
0
0
0
0
0
0
0
0
0
0
0
0
0
0
0
0
0
0
0
0
0
0
0
0
3
3
2
2
0
0
0
0
0
0
0
0
0
0
0
0
0
0
0
0
0
0
0
0
0
0
0
0
3
3
2
2
0
0
0
0
0
0
0
0
0
0
0
0
0
0
0
0
0
0
0
0
0
0
0
0
3
3
2
2
0
0
0
0
0
0
0
0
0
0
0
0
0
0
0
0
0
0
0
0
0
0
0
0
3
3
2
2
0
0
0
0
0
0
0
0
0
0
0
0
0
0
0
0
0
0
0
0
0
0
0
0
3
3
2
2
0
0
0
0
0
0
0
0
0
0
0
0
0
0
0
0
0
0
0
0
0
0
0
0
3
3
2
2
0
0
0
0
0
0
0
0
0
0
0
0
0
0
0
0
0
0
0
0
0
0
0
0
3
3
2
2
0
0
0
0
0
0
0
0
0
0
0
0
0
0
0
0
0
0
0
0
0
0
0
0
3
3
2
2
0
0
0
0
0
0
0
0
0
0
0
0
0
0
0
0
0
0
0
0
0
0
0
0
3
3
2
2
0
0
0
0
0
0
0
0
0
0
0
0
0
0
0
0
0
0
0
0
0
0
0
0
3
3
2
2
0
0
0
0
0
0
0
0
0
0
0
0
0
0
0
0
0
0
0
0
0
0
0
0
3
3
2
2
0
0
0
0
0
0
0
0
0
0
0
0
0
0
0
0
0
0
0
0
0
0
0
0
3
3
2
2
0
0
0
0
0
0
0
0
0
0
0
0
0
0
0
0
0
0
0
0
0
0
0
0
3
3
2
2
0
0
0
0
0
0
0
0
0
0
0
0
0
0
0
0
0
0
0
0
0
0
0
0
3
3
2
2
0
0
0
0
0
0
0
0
0
0
0
0
0
0
0
0
0
0
0
0
0
0
0
0
3
3
2
2
0
0
0
0
0
0
0
0
0
0
0
0
0
0
0
0
0
0
0
0
0
0
0
0
3
3
2
2
0
0
0
0
0
0
0
0
0
0
0
0
0
0
0
0
0
0
0
0
0
0
0
0
3
3
2
2
0
0
0
0
0
0
0
0
0
0
0
0
0
0
0
0
0
0
0
0
0
0
0
0
3
3
2
2
0
0
0
0
0
0
0
0
0
0
0
0
0
0
0
0
0
0
0
0
0
0
0
0
3
3
2
2
0
0
0
0
0
0
0
0
0
0
0
0
0
0
0
0
0
0
0
0
0
0
0
0
3
3
2
2
0
0
0
0
0
0
0
0
0
0
0
0
0
0
0
0
0
0
0
0
0
0
0
0
3
3
2
2
0
0
0
0
0
0
0
0
0
0
0
0
0
0
0
0
0
0
0
0
0
0
0
0
3
3
2
2
0
0
0
0
0
0
0
0
0
0
0
0
0
0
0
0
0
0
0
0
0
0
0
0
3
3
2
2
0
0
0
0
0
0
0
0
0
0
0
0
0
0
0
0
0
0
0
0
0
0
0
0
3
3
2
2
0
0
0
0
0
0
0
0
0
0
0
0
0
0
0
0
0
0
0
0
0
0
0
0
3
3
2
2
2
2
2
2
2
2
2
2
2
2
2
2
2
2
2
2
2
2
2
2
2
2
2
2
3
3
2
2
2
2
2
2
2
2
2
2
2
2
2
2
2
2
2
2
2
2
2
2
2
2
2
2
3
3
3
3
3
3
3
3
3
3
3
3
3
3
3
3
3
3
3
3
3
3
3
3
3
3
3
3
3
3
3
3
3
3
3
3
3
3
3
3
3
3
3
3
3
3
3
3
3
3
3
3
3
3
3
3
</DataArray>
<DataArray NumberOfComponents='1' type='Float32' Name='Velocity' format='ascii'>
0.000000
0.000000
0.000000
0.000000
0.000000
0.000000
0.000000
0.000000
0.000000
0.000000
0.000000
0.000000
0.000000
0.000000
0.000000
0.000000
0.000000
0.000000
0.000000
0.000000
0.000000
0.000000
0.000000
0.000000
0.000000
0.000000
0.000000
0.000000
0.000000
0.000000
0.000000
0.000000
0.000000
0.000000
0.000000
0.000000
0.000000
0.000000
0.000000
0.000000
0.000000
0.000000
0.000000
0.000000
0.000000
0.000000
0.000000
0.000000
0.000000
0.000000
0.000000
0.000000
0.000000
0.000000
0.000000
0.000000
0.000000
0.000000
0.000000
0.000000
0.000000
0.000000
0.000000
0.000000
0.000000
0.000000
0.000000
0.000000
0.000000
0.000000
0.000000
0.000000
0.000000
0.000000
0.000000
0.000000
0.000000
0.000000
0.000000
0.000000
0.000000
0.000000
0.000000
0.000000
0.000000
0.000000
0.000000
0.000000
0.000000
0.000000
0.000000
0.000000
0.000000
0.000000
0.000000
0.000000
0.000000
0.000000
0.000000
0.000000
0.000000
0.000000
0.000000
0.000000
0.000000
0.000000
0.000000
0.000000
0.000000
0.000000
0.000000
0.000000
0.000000
0.000000
0.000000
0.000000
0.003999
0.003761
0.006754
0.004603
0.008831
0.005721
0.010250
0.007689
0.015443
0.009536
0.024458
0.011414
0.035860
0.014291
0.048022
0.021154
0.059962
0.019261
0.070739
0.027683
0.085598
0.095066
0.100000
0.100000
0.000000
0.000000
0.000000
0.000000
0.003697
0.001642
0.004760
0.002653
0.005565
0.002504
0.006001
0.003493
0.004959
0.003725
0.003556
0.009319
0.002554
0.014461
0.001847
0.023145
0.004097
0.022185
0.005872
0.003345
0.008541
0.052258
0.100000
0.100000
0.000000
0.000000
0.000000
0.000000
0.004792
0.001391
0.005790
0.001477
0.005243
0.006550
0.003877
0.012586
0.003653
0.015372
0.001422
0.016640
0.006864
0.019096
0.006765
0.020490
0.001489
0.004969
0.002231
0.024720
0.008843
0.043654
0.100000
0.100000
0.000000
0.000000
0.000000
0.000000
0.006761
0.004323
0.005703
0.002609
0.004178
0.004395
0.007631
0.010564
0.011602
0.012872
0.012595
0.014104
0.012182
0.008350
0.014495
0.005698
0.020947
0.012253
0.016325
0.002049
0.023474
0.040580
0.100000
0.100000
0.000000
0.000000
0.000000
0.000000
0.005979
0.002306
0.005000
0.002053
0.003102
0.008854
0.004857
0.016629
0.008533
0.020257
0.008140
0.015647
0.013196
0.010031
0.014660
0.012431
0.007321
0.006014
0.017789
0.030668
0.020330
0.047371
0.100000
0.100000
0.000000
0.000000
0.000000
0.000000
0.007289
0.000766
0.004036
0.002432
0.004890
0.006770
0.008420
0.012329
0.012102
0.011510
0.012403
0.009008
0.009890
0.016756
0.003041
0.019228
0.004450
0.030612
0.004953
0.032158
0.019017
0.040579
0.100000
0.100000
0.000000
0.000000
0.000000
0.000000
0.007370
0.001538
0.005178
0.001682
0.005130
0.009613
0.006900
0.015207
0.007369
0.018618
0.007064
0.022726
0.008694
0.020934
0.005823
0.014484
0.011663
0.007728
0.030041
0.016140
0.013610
0.032878
0.100000
0.100000
0.000000
0.000000
0.000000
0.000000
0.008444
0.001946
0.004613
0.004720
0.003141
0.011063
0.007501
0.016938
0.011363
0.019941
0.012376
0.018499
0.009379
0.008650
0.019089
0.000085
0.024952
0.018618
0.007232
0.033281
0.008799
0.029875
0.100000
0.100000
0.000000
0.000000
0.000000
0.000000
0.007869
0.002881
0.002703
0.008470
0.003374
0.014395
0.006682
0.018017
0.008539
0.017810
0.007644
0.010490
0.012976
0.009632
0.005342
0.024553
0.005801
0.027799
0.018829
0.024454
0.013880
0.032913
0.100000
0.100000
0.000000
0.000000
0.000000
0.000000
0.009339
0.004823
0.004447
0.008115
0.006260
0.011987
0.008560
0.013895
0.008994
0.011341
0.009506
0.016478
0.005717
0.025144
0.001785
0.015686
0.019220
0.008393
0.010050
0.026882
0.006748
0.021565
0.100000
0.100000
0.000000
0.000000
0.000000
0.000000
0.009383
0.004279
0.004669
0.008255
0.006483
0.013370
0.007343
0.014971
0.005898
0.019304
0.008195
0.022207
0.002994
0.012022
0.014168
0.012579
0.007635
0.027328
0.012441
0.024368
0.004625
0.035865
0.100000
0.100000
0.000000
0.000000
0.000000
0.000000
0.010333
0.005140
0.004732
0.010351
0.007048
0.014598
0.009473
0.019093
0.010839
0.019269
0.008368
0.010923
0.011264
0.014025
0.003049
0.020465
0.008086
0.013724
0.011110
0.023307
0.008334
0.019749
0.100000
0.100000
0.000000
0.000000
0.000000
0.000000
0.010611
0.006889
0.005723
0.011644
0.008017
0.016297
0.009858
0.015897
0.008343
0.010504
0.008058
0.014507
0.004672
0.019165
0.006431
0.016629
0.011578
0.023209
0.009550
0.025506
0.008142
0.031625
0.100000
0.100000
0.000000
0.000000
0.000000
0.000000
0.012257
0.006663
0.007498
0.011426
0.010385
0.013764
0.010565
0.013473
0.009638
0.017639
0.007801
0.019393
0.006703
0.014308
0.007637
0.015420
0.005499
0.015206
0.009788
0.016797
0.010161
0.019559
0.100000
0.100000
0.000000
0.000000
0.000000
0.000000
0.012983
0.006930
0.008278
0.012039
0.010160
0.015092
0.011023
0.017021
0.010275
0.016045
0.008357
0.012053
0.008216
0.015984
0.006270
0.019657
0.011473
0.021528
0.009437
0.025984
0.008792
0.027922
0.100000
0.100000
0.000000
0.000000
0.000000
0.000000
0.011934
0.007959
0.008870
0.013226
0.012408
0.015877
0.012458
0.015757
0.011111
0.013342
0.010511
0.015414
0.008101
0.015566
0.008479
0.013758
0.005239
0.016071
0.007939
0.016428
0.008938
0.022981
0.100000
0.100000
0.000000
0.000000
0.000000
0.000000
0.014684
0.008783
0.009313
0.013180
0.012165
0.014901
0.012733
0.013436
0.011346
0.013574
0.009538
0.014464
0.009808
0.015183
0.008724
0.019400
0.011942
0.021064
0.010095
0.023654
0.005049
0.025132
0.100000
0.100000
0.000000
0.000000
0.000000
0.000000
0.015176
0.008118
0.012689
0.013256
0.013049
0.015304
0.013075
0.015140
0.012050
0.015260
0.011745
0.013834
0.009956
0.014892
0.008877
0.015056
0.005634
0.016316
0.007104
0.019793
0.005012
0.026742
0.100000
0.100000
0.000000
0.000000
0.000000
0.000000
0.012818
0.009606
0.010920
0.015188
0.015947
0.014572
0.013343
0.013499
0.011993
0.011303
0.011419
0.013055
0.011755
0.015529
0.011870
0.018733
0.012520
0.022486
0.009686
0.022087
0.001242
0.025027
0.100000
0.100000
0.000000
0.000000
0.000000
0.000000
0.016406
0.009750
0.011349
0.012948
0.012771
0.015026
0.015959
0.013470
0.013790
0.013574
0.012679
0.013450
0.012410
0.013187
0.010280
0.015497
0.008160
0.016197
0.008344
0.023456
0.001940
0.031084
0.100000
0.100000
0.000000
0.000000
0.000000
0.000000
0.016423
0.009654
0.015923
0.015185
0.015080
0.014007
0.011551
0.012065
0.013492
0.010193
0.013932
0.011315
0.013512
0.015573
0.015444
0.018391
0.014029
0.023209
0.010303
0.022490
0.000815
0.027993
0.100000
0.100000
0.000000
0.000000
0.000000
0.000000
0.012862
0.009258
0.011584
0.014093
0.019072
0.014799
0.016942
0.012567
0.012145
0.012722
0.013266
0.012455
0.015300
0.011676
0.011811
0.015067
0.012319
0.017281
0.010582
0.025294
0.003148
0.035166
0.100000
0.100000
0.000000
0.000000
0.000000
0.000000
0.016903
0.011053
0.012818
0.013781
0.010685
0.013345
0.016521
0.011077
0.017801
0.007757
0.014870
0.010334
0.014371
0.014970
0.019793
0.017944
0.017284
0.021745
0.015844
0.023321
0.003418
0.034047
0.100000
0.100000
0.000000
0.000000
0.000000
0.000000
0.015991
0.009002
0.017206
0.014634
0.018538
0.012937
0.008969
0.013785
0.012288
0.011621
0.017323
0.010171
0.018948
0.009640
0.013545
0.012754
0.018003
0.016939
0.014742
0.024764
0.010683
0.029008
0.100000
0.100000
0.000000
0.000000
0.000000
0.000000
0.013670
0.010017
0.011422
0.013740
0.017988
0.015276
0.022374
0.009180
0.011564
0.011478
0.010456
0.011665
0.014965
0.014349
0.023603
0.017751
0.020672
0.019495
0.023085
0.018894
0.015093
0.030227
0.100000
0.100000
0.000000
0.000000
0.000000
0.000000
0.013403
0.009393
0.013139
0.013406
0.011684
0.012847
0.012517
0.013261
0.023056
0.011438
0.018323
0.010500
0.015729
0.013018
0.013546
0.010838
0.023284
0.016461
0.024872
0.023325
0.022527
0.018340
0.100000
0.100000
0.000000
0.000000
0.000000
0.000000
0.014846
0.010993
0.013347
0.014602
0.016688
0.014062
0.011928
0.013351
0.005405
0.010341
0.017289
0.007402
0.021521
0.010546
0.025922
0.018422
0.026526
0.018011
0.029803
0.013231
0.020663
0.028998
0.100000
0.100000
0.000000
0.000000
0.000000
0.000000
0.011756
0.009485
0.013052
0.011632
0.015639
0.011969
0.019545
0.013710
0.016721
0.015245
0.004920
0.018698
0.010028
0.014529
0.014833
0.008062
0.026221
0.022069
0.030673
0.028216
0.035974
0.018040
0.100000
0.100000
0.000000
0.000000
0.000000
0.000000
0.008540
0.012184
0.007261
0.014125
0.013085
0.013033
0.012656
0.008361
0.018189
0.008567
0.025153
0.005917
0.016084
0.014685
0.018507
0.028680
0.026326
0.017979
0.034111
0.016942
0.021802
0.026143
0.100000
0.100000
0.000000
0.000000
0.000000
0.000000
0.008250
0.009971
0.008765
0.011738
0.010651
0.011489
0.013712
0.012626
0.008813
0.014943
0.010407
0.009388
0.020282
0.004522
0.023556
0.006005
0.025237
0.032862
0.035927
0.023688
0.056850
0.021273
0.100000
0.100000
0.000000
0.000000
0.000000
0.000000
0.008553
0.010980
0.006830
0.011265
0.010004
0.010312
0.009772
0.009707
0.016407
0.009472
0.016349
0.018086
0.006595
0.023016
0.009449
0.025602
0.026610
0.015692
0.036058
0.033334
0.028466
0.021388
0.100000
0.100000
0.000000
0.000000
0.000000
0.000000
0.005504
0.009569
0.004183
0.004883
0.010386
0.004160
0.014712
0.005937
0.010411
0.009886
0.015910
0.007825
0.024855
0.009064
0.021035
0.024348
0.006272
0.039317
0.031394
0.016603
0.064648
0.041295
0.100000
0.100000
0.000000
0.000000
0.000000
0.000000
0.009535
0.009914
0.003712
0.008226
0.002871
0.005606
0.007849
0.002583
0.016007
0.003599
0.013409
0.014624
0.008188
0.012372
0.022250
0.007626
0.040532
0.020998
0.031284
0.055252
0.057984
0.011583
0.100000
0.100000
0.000000
0.000000
0.000000
0.000000
0.006188
0.006242
0.000772
0.009650
0.004119
0.009402
0.006811
0.010374
0.005699
0.009827
0.015401
0.009989
0.022038
0.023835
0.008960
0.040614
0.014806
0.015667
0.050900
0.011666
0.074036
0.079716
0.100000
0.100000
0.000000
0.000000
0.000000
0.000000
0.008321
0.001891
0.005504
0.002036
0.005168
0.002920
0.004840
0.004703
0.008866
0.007559
0.008465
0.015418
0.014390
0.007820
0.036473
0.014419
0.017705
0.060429
0.010497
0.041671
0.081709
0.004327
0.100000
0.100000
0.000000
0.000000
0.000000
0.000000
0.005298
0.006329
0.002409
0.008657
0.005268
0.006512
0.007808
0.006107
0.006888
0.005941
0.013980
0.002574
0.014485
0.025612
0.005821
0.017301
0.043745
0.028432
0.079626
0.044427
0.100874
0.149744
0.100000
0.100000
0.000000
0.000000
0.000000
0.000000
0.008590
0.002780
0.006623
0.003483
0.005446
0.004162
0.003899
0.003419
0.004443
0.005332
0.002673
0.015476
0.005173
0.005556
0.015547
0.039437
0.020748
0.059107
0.030766
0.030704
0.176408
0.028103
0.100000
0.100000
0.000000
0.000000
0.000000
0.000000
0.005583
0.003680
0.005399
0.006178
0.006037
0.007004
0.008035
0.007372
0.008760
0.007547
0.015653
0.007285
0.011829
0.032758
0.010315
0.016500
0.049155
0.044070
0.038403
0.102340
0.069414
0.131272
0.100000
0.100000
0.000000
0.000000
0.000000
0.000000
0.003629
0.003009
0.004502
0.004885
0.004749
0.005484
0.004482
0.004401
0.003458
0.006555
0.008270
0.007825
0.006811
0.013080
0.014500
0.021631
0.018615
0.032396
0.103273
0.093488
0.224999
0.307576
0.100000
0.100000
0.000000
0.000000
0.000000
0.000000
0.000439
0.006753
0.005795
0.009517
0.009374
0.011631
0.012970
0.014538
0.014356
0.018999
0.018711
0.019327
0.030444
0.042563
0.032587
0.037966
0.036729
0.061606
0.090684
0.072368
0.252432
0.373846
0.413064
0.100000
0.000000
0.000000
0.000000
0.000000
0.000000
0.000000
0.000000
0.000000
0.000000
0.000000
0.000000
0.000000
0.000000
0.000000
0.000000
0.000000
0.000000
0.000000
0.000000
0.000000
0.000000
0.000000
0.000000
0.000000
0.000000
0.000000
0.000000
0.000000
0.000000
0.000000
0.000000
0.000000
0.000000
0.000000
0.000000
0.000000
0.000000
0.000000
0.000000
0.000000
0.000000
0.000000
0.000000
0.000000
0.000000
0.000000
0.000000
0.000000
0.000000
0.000000
0.000000
0.000000
0.000000
0.000000
0.000000
0.000000
0.000000
0.000000
0.000000
0.000000
0.000000
0.000000
0.000000
0.000000
0.000000
0.000000
0.000000
0.000000
0.000000
0.000000
0.000000
0.000000
0.000000
0.000000
0.000000
0.000000
0.000000
0.000000
0.000000
0.000000
0.000000
0.000000
0.000000
0.000000
0.000000
0.000000
0.000000
0.000000
0.000000
0.000000
0.000000
0.000000
0.000000
0.000000
0.000000
0.000000
0.000000
0.000000
0.000000
0.000000
0.000000
0.000000
0.000000
0.000000
0.000000
0.000000
0.000000
0.000000
0.000000
0.000000
0.000000
0.000000
</DataArray>
<DataArray NumberOfComponents='1' type='Float32' Name='pressure' format='ascii'>
0.000000
0.000000
0.000000
0.000000
0.000000
0.000000
0.000000
0.000000
0.000000
0.000000
0.000000
0.000000
0.000000
0.000000
0.000000
0.000000
0.000000
0.000000
0.000000
0.000000
0.000000
0.000000
0.000000
0.000000
0.000000
0.000000
0.000000
0.000000
0.000000
0.000000
0.000000
0.000000
0.000000
0.000000
0.000000
0.000000
0.000000
0.000000
0.000000
0.000000
0.000000
0.000000
0.000000
0.000000
0.000000
0.000000
0.000000
0.000000
0.000000
0.000000
0.000000
0.000000
0.000000
0.000000
0.000000
0.000000
0.000000
0.000000
5531.975098
5486.651367
5410.276855
5165.375488
4959.437012
4711.719727
4476.617676
4228.193359
3994.013184
3745.823975
3507.745605
3268.563965
3037.418701
2789.561523
2556.507080
2316.132568
2099.759033
1781.453613
1666.780518
1303.157837
1132.605957
937.431824
892.368347
959.626526
0.000000
0.000000
0.000000
0.000000
5561.263184
5585.992676
5489.042969
5170.420898
4979.541016
4692.015625
4489.589355
4209.764160
3999.325195
3729.459229
3504.738770
3253.621094
3035.870850
2765.780273
2553.214111
2296.675537
2081.805908
1743.868286
1689.668335
1209.299927
1167.163940
810.445923
537.176270
408.705048
0.000000
0.000000
0.000000
0.000000
5614.687500
5636.821289
5473.660645
5133.911621
4965.068848
4640.830078
4454.488281
4149.325684
3938.031738
3654.855225
3430.496826
3138.199463
2923.285156
2619.696289
2418.208984
2096.088867
1908.588257
1604.637695
1363.613159
1142.344238
838.987549
693.969543
382.360199
0.000000
0.000000
0.000000
0.000000
0.000000
5616.886230
5649.002930
5485.895508
5160.634277
4989.717285
4677.021484
4492.068848
4206.526855
3984.792725
3731.866455
3499.004639
3236.221436
3034.998291
2750.068848
2528.658691
2301.342773
2000.804688
1834.833862
1479.267456
1348.043213
966.842834
858.815857
377.783569
473.825928
0.000000
0.000000
0.000000
0.000000
5636.775391
5657.492188
5466.911133
5146.334473
4968.980469
4655.943848
4445.908203
4184.404785
3917.415283
3697.067627
3413.916748
3184.537354
2905.402832
2684.038330
2390.520996
2197.341797
1857.536255
1725.984131
1384.701538
1160.692627
962.460327
655.276367
497.278687
101.786209
0.000000
0.000000
0.000000
0.000000
5637.350098
5650.229004
5485.700195
5165.803223
4983.068848
4684.472168
4476.705566
4226.026855
3952.418213
3766.955566
3444.431152
3290.537598
2955.050537
2800.023682
2466.063477
2273.284424
2032.475464
1687.941040
1560.986084
1229.750854
1012.143921
725.688049
543.381958
207.273483
0.000000
0.000000
0.000000
0.000000
5619.584473
5626.512207
5478.187500
5146.354980
4973.517090
4663.198242
4452.538574
4188.169922
3923.363037
3717.637451
3398.514648
3225.743896
2900.681152
2692.168945
2458.117920
2145.188477
1958.416260
1724.274292
1385.563232
1225.500732
936.374817
688.190857
432.937347
165.429214
0.000000
0.000000
0.000000
0.000000
5648.887207
5672.495605
5486.163086
5159.034668
5001.100098
4659.130371
4504.531250
4198.076660
3978.924072
3740.052490
3470.781006
3248.378906
2996.935303
2743.756592
2464.078369
2306.746338
1893.701172
1798.565796
1437.068481
1271.793213
963.114929
736.903076
553.320923
228.766998
0.000000
0.000000
0.000000
0.000000
5649.365234
5677.127441
5476.129395
5148.745605
4996.603027
4636.028320
4497.235352
4153.859375
3966.415039
3689.325684
3443.536865
3208.848389
2910.234375
2758.329834
2367.701904
2279.519287
1906.592041
1762.328613
1439.523315
1197.000610
1041.359863
643.606506
459.234863
165.548889
7.314580
0.000000
0.000000
0.000000
5629.606445
5643.092285
5499.185059
5151.880859
5003.603516
4663.646484
4500.719238
4195.104492
3988.232666
3728.057617
3464.769531
3271.720215
2938.131104
2782.680664
2462.025879
2232.056396
1993.571777
1677.181763
1533.110352
1170.555420
986.716736
710.840637
604.399170
225.652451
118.610558
0.000000
0.000000
0.000000
5615.390137
5617.843262
5499.437012
5139.434082
4992.074219
4658.876465
4476.182617
4186.042969
3955.268311
3709.597656
3448.551758
3208.457031
2972.191895
2677.775879
2499.429688
2193.026611
1970.155762
1754.277222
1429.160400
1268.827271
1054.773926
646.835693
476.832886
211.134003
38.214680
0.000000
0.000000
0.000000
5627.153809
5644.874023
5509.178223
5147.850098
5008.609863
4665.624023
4502.811523
4191.235352
3994.327393
3708.265381
3503.493164
3197.386230
3015.283691
2723.991211
2448.780273
2279.749756
1926.970093
1744.432739
1512.024048
1133.281250
1018.121216
701.444519
592.238892
208.161957
0.000000
0.000000
0.000000
0.000000
5623.050293
5640.536621
5505.588867
5137.663086
5003.141602
4651.596191
4495.044434
4173.485840
3987.431641
3686.249023
3481.667969
3218.955078
2940.142334
2753.892578
2460.510498
2215.854004
2014.587158
1689.526123
1512.292847
1245.377686
1067.182007
639.247192
526.850159
241.643539
0.000000
0.000000
0.000000
0.000000
5612.975098
5619.659180
5516.886230
5149.861328
5004.562500
4678.592285
4493.577637
4202.275879
3984.956055
3729.199707
3465.868652
3238.744385
2994.158203
2699.428223
2517.343018
2209.882812
1976.098633
1748.482666
1490.183350
1165.878174