<?xml version='1.0' encoding='UTF-8'?>
<VTKFile xmlns='VTK' byte_order='LittleEndian' version='0.1' type='UnstructuredGrid'>
<UnstructuredGrid>
<Piece NumberOfCells='1344' NumberOfPoints='1344'>
<Points>
<DataArray NumberOfComponents='3' type='Float32' Name='Position' format='ascii'>
-0.075000 -0.075000 0.000000
-0.075000 -0.050000 0.000000
-0.075000 -0.025000 0.000000
-0.075000 0.000000 0.000000
-0.075000 0.025000 0.000000
-0.075000 0.050000 0.000000
-0.075000 0.075000 0.000000
-0.075000 0.100000 0.000000
-0.075000 0.125000 0.000000
-0.075000 0.150000 0.000000
-0.075000 0.175000 0.000000
-0.075000 0.200000 0.000000
-0.075000 0.225000 0.000000
-0.075000 0.250000 0.000000
-0.075000 0.275000 0.000000
-0.075000 0.300000 0.000000
-0.075000 0.325000 0.000000
-0.075000 0.350000 0.000000
-0.075000 0.375000 0.000000
-0.075000 0.400000 0.000000
-0.075000 0.425000 0.000000
-0.075000 0.450000 0.000000
-0.075000 0.475000 0.000000
-0.075000 0.500000 0.000000
-0.075000 0.525000 0.000000
-0.075000 0.550000 0.000000
-0.075000 0.575000 0.000000
-0.075000 0.600000 0.000000
-0.050000 -0.075000 0.000000
-0.050000 -0.050000 0.000000
-0.050000 -0.025000 0.000000
-0.050000 0.000000 0.000000
-0.050000 0.025000 0.000000
-0.050000 0.050000 0.000000
-0.050000 0.075000 0.000000
-0.050000 0.100000 0.000000
-0.050000 0.125000 0.000000
-0.050000 0.150000 0.000000
-0.050000 0.175000 0.000000
-0.050000 0.200000 0.000000
-0.050000 0.225000 0.000000
-0.050000 0.250000 0.000000
-0.050000 0.275000 0.000000
-0.050000 0.300000 0.000000
-0.050000 0.325000 0.000000
-0.050000 0.350000 0.000000
-0.050000 0.375000 0.000000
-0.050000 0.400000 0.000000
-0.050000 0.425000 0.000000
-0.050000 0.450000 0.000000
-0.050000 0.475000 0.000000
-0.050000 0.500000 0.000000
-0.050000 0.525000 0.000000
-0.050000 0.550000 0.000000
-0.050000 0.575000 0.000000
-0.050000 0.600000 0.000000
-0.025000 -0.075000 0.000000
-0.025000 -0.050000 0.000000
-0.025000 -0.025000 0.000000
-0.025000 0.000000 0.000000
-0.025000 0.025000 0.000000
-0.025000 0.050000 0.000000
-0.025000 0.075000 0.000000
-0.025000 0.100000 0.000000
-0.025000 0.125000 0.000000
-0.025000 0.150000 0.000000
-0.025000 0.175000 0.000000
-0.025000 0.200000 0.000000
-0.025000 0.225000 0.000000
-0.025000 0.250000 0.000000
-0.025000 0.275000 0.000000
-0.025000 0.300000 0.000000
-0.025000 0.325000 0.000000
-0.025000 0.350000 0.000000
-0.025000 0.375000 0.000000
-0.025000 0.400000 0.000000
-0.025000 0.425000 0.000000
-0.025000 0.450000 0.000000
-0.025000 0.475000 0.000000
-0.025000 0.500000 0.000000
-0.025000 0.525000 0.000000
-0.025000 0.550000 0.000000
-0.025000 0.575000 0.000000
-0.025000 0.600000 0.000000
0.000000 -0.075000 0.000000
0.000000 -0.050000 0.000000
0.000000 -0.025000 0.000000
0.000000 0.000000 0.000000
0.000000 0.025000 0.000000
0.000000 0.050000 0.000000
0.000000 0.075000 0.000000
0.000000 0.100000 0.000000
0.000000 0.125000 0.000000
0.000000 0.150000 0.000000
0.000000 0.175000 0.000000
0.000000 0.200000 0.000000
0.000000 0.225000 0.000000
0.000000 0.250000 0.000000
0.000000 0.275000 0.000000
0.000000 0.300000 0.000000
0.000000 0.325000 0.000000
0.000000 0.350000 0.000000
0.000000 0.375000 0.000000
0.000000 0.400000 0.000000
0.000000 0.425000 0.000000
0.000000 0.450000 0.000000
0.000000 0.475000 0.000000
0.000000 0.500000 0.000000
0.000000 0.525000 0.000000
0.000000 0.550000 0.000000
0.000000 0.575000 0.000000
0.000000 0.600000 0.000000
0.025000 -0.075000 0.000000
0.025000 -0.050000 0.000000
0.025000 -0.025000 0.000000
0.025000 0.000000 0.000000
0.034376 0.022746 0.000000
0.061282 0.024608 0.000000
0.022363 0.040152 0.000000
0.022405 0.114320 0.000000
0.036252 0.199122 0.000000
0.069196 0.267053 0.000000
0.022123 0.214565 0.000000
0.047562 0.251868 0.000000
0.022137 0.269791 0.000000
0.021372 0.310061 0.000000
0.022536 0.374701 0.000000
0.022884 0.410504 0.000000
0.022908 0.441500 0.000000
0.024497 0.468491 0.000000
0.024942 0.498194 0.000000
0.024773 0.521688 0.000000
0.023371 0.547457 0.000000
0.050522 0.554182 0.000000
0.074391 0.577443 0.000000
0.048288 0.578302 0.000000
0.035763 0.600000 0.000000
0.014686 0.600000 0.000000
0.133673 0.600000 0.000000
0.152681 0.600000 0.000000
0.050000 -0.075000 0.000000
0.050000 -0.050000 0.000000
0.050000 -0.025000 0.000000
0.050000 0.000000 0.000000
0.087417 0.023783 0.000000
0.060681 0.047331 0.000000
0.023358 0.072686 0.000000
0.033727 0.092367 0.000000
0.023738 0.151377 0.000000
0.025492 0.176607 0.000000
0.068077 0.237425 0.000000
0.043037 0.276382 0.000000
0.042984 0.299879 0.000000
0.044867 0.323235 0.000000
0.023297 0.340660 0.000000
0.038626 0.395589 0.000000
0.043021 0.432036 0.000000
0.054094 0.456059 0.000000
0.043041 0.479030 0.000000
0.051621 0.506394 0.000000
0.048332 0.531679 0.000000
0.076481 0.515943 0.000000
0.023974 0.574298 0.000000
0.074984 0.600000 0.000000
0.094409 0.600000 0.000000
0.055073 0.600000 0.000000
0.164284 0.577343 0.000000
0.171520 0.600000 0.000000
0.075000 -0.075000 0.000000
0.075000 -0.050000 0.000000
0.075000 -0.025000 0.000000
0.075000 0.000000 0.000000
0.092272 0.049538 0.000000
0.042762 0.060364 0.000000
0.057236 0.083407 0.000000
0.038590 0.129527 0.000000
0.074347 0.211674 0.000000
0.050859 0.225258 0.000000
0.098622 0.215685 0.000000
0.025272 0.241969 0.000000
0.081471 0.285522 0.000000
0.069924 0.304187 0.000000
0.066910 0.330358 0.000000
0.041611 0.353436 0.000000
0.050296 0.374412 0.000000
0.059210 0.408833 0.000000
0.066666 0.436184 0.000000
0.076581 0.468600 0.000000
0.100949 0.513160 0.000000
0.103766 0.537635 0.000000
0.073893 0.540128 0.000000
0.089355 0.557988 0.000000
0.106323 0.579213 0.000000
0.113798 0.600000 0.000000
0.191157 0.600000 0.000000
0.210766 0.600000 0.000000
0.100000 -0.075000 0.000000
0.100000 -0.050000 0.000000
0.100000 -0.025000 0.000000
0.100000 0.000000 0.000000
0.119207 0.046460 0.000000
0.060977 0.134580 0.000000
0.065926 0.168845 0.000000
0.058979 0.109732 0.000000
0.060474 0.192994 0.000000
0.044799 0.162699 0.000000
0.120609 0.246959 0.000000
0.100261 0.240899 0.000000
0.094988 0.260999 0.000000
0.101699 0.303515 0.000000
0.089359 0.324119 0.000000
0.068832 0.356655 0.000000
0.079311 0.401153 0.000000
0.111433 0.388693 0.000000
0.091028 0.423429 0.000000
0.090951 0.447952 0.000000
0.070002 0.491194 0.000000
0.096637 0.486803 0.000000
0.127456 0.527898 0.000000
0.153852 0.531592 0.000000
0.119850 0.555190 0.000000
0.136224 0.577172 0.000000
0.220204 0.578059 0.000000
0.229990 0.600000 0.000000
0.125000 -0.075000 0.000000
0.125000 -0.050000 0.000000
0.125000 -0.025000 0.000000
0.125000 0.000000 0.000000
0.100439 0.079250 0.000000
0.078887 0.064230 0.000000
0.081581 0.146943 0.000000
0.118348 0.201667 0.000000
0.090695 0.191643 0.000000
0.136097 0.214982 0.000000
0.142819 0.233280 0.000000
0.132352 0.268845 0.000000
0.112478 0.280171 0.000000
0.117771 0.321622 0.000000
0.091636 0.358192 0.000000
0.081126 0.380042 0.000000
0.131592 0.400145 0.000000
0.112459 0.415769 0.000000
0.142985 0.426850 0.000000
0.117797 0.440930 0.000000
0.108549 0.466312 0.000000
0.120385 0.496169 0.000000
0.141332 0.507110 0.000000
0.172423 0.553022 0.000000
0.192325 0.576435 0.000000
0.144985 0.553215 0.000000
0.248396 0.576714 0.000000
0.248863 0.600000 0.000000
0.150000 -0.075000 0.000000
0.150000 -0.050000 0.000000
0.150000 -0.025000 0.000000
0.150000 0.000000 0.000000
0.113232 0.026099 0.000000
0.121918 0.081987 0.000000
0.105626 0.104198 0.000000
0.077623 0.096390 0.000000
0.092673 0.169957 0.000000
0.117962 0.173854 0.000000
0.139367 0.184689 0.000000
0.160681 0.246534 0.000000
0.154158 0.278080 0.000000
0.134901 0.296838 0.000000
0.111878 0.343275 0.000000
0.116386 0.367713 0.000000
0.151923 0.374079 0.000000
0.153127 0.405008 0.000000
0.172418 0.423027 0.000000
0.162804 0.446972 0.000000
0.138343 0.451519 0.000000
0.134382 0.475698 0.000000
0.167682 0.509607 0.000000
0.198515 0.510858 0.000000
0.183252 0.531427 0.000000
0.199907 0.552157 0.000000
0.268706 0.600000 0.000000
0.288234 0.600000 0.000000
0.175000 -0.075000 0.000000
0.175000 -0.050000 0.000000
0.175000 -0.025000 0.000000
0.175000 0.000000 0.000000
0.138706 0.024339 0.000000
0.136623 0.063515 0.000000
0.140112 0.099972 0.000000
0.106887 0.138225 0.000000
0.123277 0.119973 0.000000
0.125491 0.148628 0.000000
0.147595 0.164782 0.000000
0.174297 0.146857 0.000000
0.162252 0.198564 0.000000
0.171923 0.216907 0.000000
0.174197 0.276351 0.000000
0.140152 0.327182 0.000000
0.139086 0.360663 0.000000
0.178798 0.395901 0.000000
0.199903 0.411356 0.000000
0.189775 0.438443 0.000000
0.201817 0.465980 0.000000
0.175456 0.467773 0.000000
0.156455 0.482795 0.000000
0.182783 0.490070 0.000000
0.227741 0.510941 0.000000
0.213919 0.531746 0.000000
0.304037 0.576222 0.000000
0.307529 0.600000 0.000000
0.200000 -0.075000 0.000000
0.200000 -0.050000 0.000000
0.200000 -0.025000 0.000000
0.200000 0.000000 0.000000
0.165970 0.023342 0.000000
0.152040 0.047010 0.000000
0.158715 0.079684 0.000000
0.087069 0.121278 0.000000
0.185728 0.124304 0.000000
0.150667 0.140507 0.000000
0.215279 0.124941 0.000000
0.246734 0.132247 0.000000
0.175514 0.173394 0.000000
0.180733 0.243192 0.000000
0.156181 0.305905 0.000000
0.181035 0.314151 0.000000
0.160241 0.333325 0.000000
0.177035 0.347521 0.000000
0.174615 0.372958 0.000000
0.202970 0.387279 0.000000
0.211909 0.440083 0.000000
0.211810 0.488655 0.000000
0.236909 0.488380 0.000000
0.254375 0.511617 0.000000
0.242612 0.535341 0.000000
0.226828 0.553842 0.000000
0.331246 0.576035 0.000000
0.326730 0.600000 0.000000
0.225000 -0.075000 0.000000
0.225000 -0.050000 0.000000
0.225000 -0.025000 0.000000
0.225000 0.000000 0.000000
0.194326 0.023983 0.000000
0.177498 0.046496 0.000000
0.172141 0.100154 0.000000
0.154568 0.116315 0.000000
0.219624 0.065698 0.000000
0.201945 0.078867 0.000000
0.243829 0.163197 0.000000
0.196014 0.150662 0.000000
0.203998 0.171530 0.000000
0.188094 0.192743 0.000000
0.196451 0.265434 0.000000
0.215008 0.298408 0.000000
0.199134 0.324430 0.000000
0.216495 0.340614 0.000000
0.198717 0.357066 0.000000
[...]
<PointData>
<DataArray NumberOfComponents='1' type='Int32' Name='ParticleType' format='ascii'>
3
3
3
3
3
3
3
3
3
3
3
3
3
3
3
3
3
3
3
3
3
3
3
3
3
3
3
3
3
3
3
3
3
3
3
3
3
3
3
3
3
3
3
3
3
3
3
3
3
3
3
3
3
3
3
3
3
3
2
2
2
2
2
2
2
2
2
2
2
2
2
2
2
2
2
2
2
2
2
2
2
2
2
2
3
3
2
2
2
2
2
2
2
2
2
2
2
2
2
2
2
2
2
2
2
2
2
2
2
2
2
2
3
3
2
2
0
0
0
0
0
0
0
0
0
0
0
0
0
0
0
0
0
0
0
0
0
0
0
0
3
3
2
2
0
0
0
0
0
0
0
0
0
0
0
0
0
0
0
0
0
0
0
0
0
0
0
0
3
3
2
2
0
0
0
0
0
0
0
0
0
0
0
0
0
0
0
0
0
0
0
0
0
0
0
0
3
3
2
2
0
0
0
0
0
0
0
0
0
0
0
0
0
0
0
0
0
0
0
0
0
0
0
0
3
3
2
2
0
0
0
0
0
0
0
0
0
0
0
0
0
0
0
0
0
0
0
0
0
0
0
0
3
3
2
2
0
0
0
0
0
0
0
0
0
0
0
0
0
0
0
0
0
0
0
0
0
0
0
0
3
3
2
2
0
0
0
0
0
0
0
0
0
0
0
0
0
0
0
0
0
0
0
0
0
0
0
0
3
3
2
2
0
0
0
0
0
0
0
0
0
0
0
0
0
0
0
0
0
0
0
0
0
0
0
0
3
3
2
2
0
0
0
0
0
0
0
0
0
0
0
0
0
0
0
0
0
0
0
0
0
0
0
0
3
3
2
2
0
0
0
0
0
0
0
0
0
0
0
0
0
0
0
0
0
0
0
0
0
0
0
0
3
3
2
2
0
0
0
0
0
0
0
0
0
0
0
0
0
0
0
0
0
0
0
0
0
0
0
0
3
3
2
2
0
0
0
0
0
0
0
0
0
0
0
0
0
0
0
0
0
0
0
0
0
0
0
0
3
3
2
2
0
0
0
0
0
0
0
0
0
0
0
0
0
0
0
0
0
0
0
0
0
0
0
0
3
3
2
2
0
0
0
0
0
0
0
0
0
0
0
0
0
0
0
0
0
0
0
0
0
0
0
0
3
3
2
2
0
0
0
0
0
0
0
0
0
0
0
0
0
0
0
0
0
0
0
0
0
0
0
0
3
3
2
2
0
0
0
0
0
0
0
0
0
0
0
0
0
0
0
0
0
0
0
0
0
0
0
0
3
3
2
2
0
0
0
0
0
0
0
0
0
0
0
0
0
0
0
0
0
0
0
0
0
0
0
0
3
3
2
2
0
0
0
0
0
0
0
0
0
0
0
0
0
0
0
0
0
0
0
0
0
0
0
0
3
3
2
2
0
0
0
0
0
0
0
0
0
0
0
0
0
0
0
0
0
0
0
0
0
0
0
0
3
3
2
2
0
0
0
0
0
0
0
0
0
0
0
0
0
0
0
0
0
0
0
0
0
0
0
0
3
3
2
2
0
0
0
0
0
0
0
0
0
0
0
0
0
0
0
0
0
0
0
0
0
0
0
0
3
3
2
2
0
0
0
0
0
0
0
0
0
0
0
0
0
0
0
0
0
0
0
0
0
0
0
0
3
3
2
2
0
0
0
0
0
0
0
0
0
0
0
0
0
0
0
0
0
0
0
0
0
0
0
0
3
3
2
2
0
0
0
0
0
0
0
0
0
0
0
0
0
0
0
0
0
0
0
0
0
0
0
0
3
3
2
2
0
0
0
0
0
0
0
0
0
0
0
0
0
0
0
0
0
0
0
0
0
0
0
0
3
3
2
2
0
0
0
0
0
0
0
0
0
0
0
0
0
0
0
0
0
0
0
0
0
0
0
0
3
3
2
2
0
0
0
0
0
0
0
0
0
0
0
0
0
0
0
0
0
0
0
0
0
0
0
0
3
3
2
2
0
0
0
0
0
0
0
0
0
0
0
0
0
0
0
0
0
0
0
0
0
0
0
0
3
3
2
2
0
0
0
0
0
0
0
0
0
0
0
0
0
0
0
0
0
0
0
0
0
0
0
0
3
3
2
2
0
0
0
0
0
0
0
0
0
0
0
0
0
0
0
0
0
0
0
0
0
0
0
0
3
3
2
2
0
0
0
0
0
0
0
0
0
0
0
0
0
0
0
0
0
0
0
0
0
0
0
0
3
3
2
2
0
0
0
0
0
0
0
0
0
0
0
0
0
0
0
0
0
0
0
0
0
0
0
0
3
3
2
2
0
0
0
0
0
0
0
0
0
0
0
0
0
0
0
0
0
0
0
0
0
0
0
0
3
3
2
2
0
0
0
0
0
0
0
0
0
0
0
0
0
0
0
0
0
0
0
0
0
0
0
0
3
3
2
2
0
0
0
0
0
0
0
0
0
0
0
0
0
0
0
0
0
0
0
0
0
0
0
0
3
3
2
2
0
0
0
0
0
0
0
0
0
0
0
0
0
0
0
0
0
0
0
0
0
0
0
0
3
3
2
2
0
0
0
0
0
0
0
0
0
0
0
0
0
0
0
0
0
0
0
0
0
0
0
0
3
3
2
2
0
0
0
0
0
0
0
0
0
0
0
0
0
0
0
0
0
0
0
0
0
0
0
0
3
3
2
2
0
0
0
0
0
0
0
0
0
0
0
0
0
0
0
0
0
0
0
0
0
0
0
0
3
3
2
2
0
0
0
0
0
0
0
0
0
0
0
0
0
0
0
0
0
0
0
0
0
0
0
0
3
3
2
2
2
2
2
2
2
2
2
2
2
2
2
2
2
2
2
2
2
2
2
2
2
2
2
2
3
3
2
2
2
2
2
2
2
2
2
2
2
2
2
2
2
2
2
2
2
2
2
2
2
2
2
2
3
3
3
3
3
3
3
3
3
3
3
3
3
3
3
3
3
3
3
3
3
3
3
3
3
3
3
3
3
3
3
3
3
3
3
3
3
3
3
3
3
3
3
3
3
3
3
3
3
3
3
3
3
3
3
3
</DataArray>
<DataArray NumberOfComponents='1' type='Float32' Name='Velocity' format='ascii'>
0.000000
0.000000
0.000000
0.000000
0.000000
0.000000
0.000000
0.000000
0.000000
0.000000
0.000000
0.000000
0.000000
0.000000
0.000000
0.000000
0.000000
0.000000
0.000000
0.000000
0.000000
0.000000
0.000000
0.000000
0.000000
0.000000
0.000000
0.000000
0.000000
0.000000
0.000000
0.000000
0.000000
0.000000
0.000000
0.000000
0.000000
0.000000
0.000000
0.000000
0.000000
0.000000
0.000000
0.000000
0.000000
0.000000
0.000000
0.000000
0.000000
0.000000
0.000000
0.000000
0.000000
0.000000
0.000000
0.000000
0.000000
0.000000
0.000000
0.000000
0.000000
0.000000
0.000000
0.000000
0.000000
0.000000
0.000000
0.000000
0.000000
0.000000
0.000000
0.000000
0.000000
0.000000
0.000000
0.000000
0.000000
0.000000
0.000000
0.000000
0.000000
0.000000
0.000000
0.000000
0.000000
0.000000
0.000000
0.000000
0.000000
0.000000
0.000000
0.000000
0.000000
0.000000
0.000000
0.000000
0.000000
0.000000
0.000000
0.000000
0.000000
0.000000
0.000000
0.000000
0.000000
0.000000
0.000000
0.000000
0.000000
0.000000
0.000000
0.000000
0.000000
0.000000
0.000000
0.000000
0.090726
0.207379
0.225169
0.085156
0.190517
0.195311
0.085730
0.070203
0.294598
0.047057
0.229404
0.036367
0.068535
0.112727
0.235248
0.138574
0.209509
0.172987
0.100000
0.100000
0.100000
0.100000
0.100000
0.100000
0.000000
0.000000
0.000000
0.000000
0.258491
0.208083
0.190291
0.171120
0.249991
0.181299
0.346352
0.221418
0.252715
0.077481
0.281649
0.162507
0.134348
0.344427
0.049075
0.214161
0.129685
0.229018
0.189847
0.100000
0.100000
0.100000
0.100000
0.100000
0.000000
0.000000
0.000000
0.000000
0.197370
0.090064
0.106067
0.177217
0.355186
0.188192
0.096434
0.198608
0.228899
0.319334
0.293640
0.117480
0.311540
0.422939
0.387449
0.145601
0.224027
0.024198
0.154776
0.171523
0.100000
0.100000
0.100000
0.100000
0.000000
0.000000
0.000000
0.000000
0.130797
0.331051
0.218740
0.119356
0.135796
0.082737
0.252909
0.050201
0.234807
0.647046
0.305912
0.209801
0.246006
0.255298
0.421482
0.060757
0.144477
0.208314
0.211897
0.092905
0.191418
0.100000
0.100000
0.100000
0.000000
0.000000
0.000000
0.000000
0.100286
0.117595
0.259181
0.204573
0.183108
0.146002
0.348213
0.319346
0.124847
0.036523
0.546894
0.339777
0.194265
0.507340
0.419172
0.421490
0.296630
0.259861
0.186773
0.287427
0.100000
0.129160
0.100000
0.100000
0.000000
0.000000
0.000000
0.000000
0.274806
0.163640
0.056081
0.112512
0.206292
0.211026
0.224347
0.144129
0.253832
0.518089
0.239004
0.038022
0.252871
0.234512
0.099655
0.128109
0.078594
0.088210
0.346771
0.136547
0.431244
0.174491
0.100000
0.100000
0.000000
0.000000
0.000000
0.000000
0.266827
0.254069
0.245860
0.306555
0.193507
0.224628
0.090346
0.071470
0.068991
0.072536
0.228019
0.476169
0.105601
0.204673
0.149749
0.326503
0.333514
0.112550
0.150704
0.206625
0.026120
0.223476
0.100000
0.100000
0.000000
0.000000
0.000000
0.000000
0.170019
0.172059
0.078237
0.171806
0.325559
0.362225
0.160777
0.138845
0.157447
0.298277
0.274968
0.214353
0.073537
0.329678
0.207397
0.328860
0.308334
0.069368
0.082652
0.316781
0.274329
0.322683
0.100000
0.100000
0.000000
0.000000
0.000000
0.000000
0.092753
0.137786
0.376015
0.209869
0.181594
0.190409
0.248472
0.227324
0.072398
0.174387
0.149042
0.246158
0.289789
0.113890
0.185105
0.049991
0.109150
0.116593
0.089736
0.175726
0.137750
0.237083
0.100000
0.100000
0.000000
0.000000
0.000000
0.000000
0.069550
0.316349
0.222998
0.185869
0.021325
0.253646
0.310223
0.024317
0.167251
0.084806
0.225042
0.246053
0.212562
0.290327
0.357901
0.072947
0.155884
0.187078
0.152904
0.177181
0.127203
0.177540
0.100000
0.100000
0.000000
0.000000
0.000000
0.000000
0.104739
0.321655
0.047908
0.065582
0.130528
0.021817
0.077449
0.255698
0.090951
0.221418
0.165602
0.081464
0.182395
0.042855
0.216923
0.349690
0.138084
0.203914
0.286731
0.056303
0.059906
0.100000
0.100000
0.100000
0.000000
0.000000
0.000000
0.000000
0.150559
0.187362
0.177491
0.034803
0.114728
0.078672
0.185259
0.252950
0.178401
0.214599
0.193755
0.126370
0.247526
0.136931
0.176401
0.497002
0.130486
0.229578
0.165429
0.071277
0.200580
0.216538
0.100000
0.100000
0.000000
0.000000
0.000000
0.000000
0.139644
0.144760
0.352098
0.010788
0.191581
0.084037
0.065165
0.144800
0.018383
0.144120
0.188475
0.085195
0.070761
0.210826
0.180119
0.321340
0.070187
0.224178
0.056931
0.128447
0.362839
0.550630
0.100000
0.100000
0.000000
0.000000
0.000000
0.000000
0.073186
0.101943
0.057534
0.103026
0.358846
0.258400
0.231827
0.306373
0.024563
0.137043
0.138859
0.225350
0.244809
0.234597
0.182366
0.362137
0.218365
0.188568
0.151587
0.133803
0.139891
0.100000
0.100000
0.100000
0.000000
0.000000
0.000000
0.000000
0.134286
0.165374
0.138024
0.154286
0.035517
0.200113
0.112254
0.073456
0.105521
0.143468
0.083069
0.076280
0.213075
0.058698
0.318267
0.107967
0.344728
0.074956
0.082892
0.185159
0.236946
0.477314
0.100000
0.100000
0.000000
0.000000
0.000000
0.000000
0.046225
0.127870
0.241325
0.215062
0.101726
0.156529
0.187763
0.029083
0.116327
0.276770
0.204349
0.145686
0.094817
0.210563
0.371624
0.173880
0.110441
0.243269
0.281215
0.150154
0.064215
0.127920
0.100000
0.100000
0.000000
0.000000
0.000000
0.000000
0.079335
0.149708
0.058035
0.138671
0.312915
0.019389
0.160790
0.089835
0.189776
0.278908
0.313385
0.059393
0.102097
0.089792
0.277795
0.299954
0.178264
0.035790
0.287935
0.184991
0.155417
0.100000
0.100000
0.100000
0.000000
0.000000
0.000000
0.000000
0.169295
0.103926
0.018394
0.090866
0.104280
0.254415
0.272883
0.141664
0.200152
0.216117
0.055087
0.204959
0.071501
0.388596
0.159647
0.146727
0.134087
0.233449
0.026169
0.251999
0.412189
0.314779
0.625815
0.100000
0.000000
0.000000
0.000000
0.000000
0.129669
0.082840
0.261474
0.124028
0.077494
0.108217
0.050463
0.099387
0.036130
0.182294
0.127966
0.105672
0.228343
0.105657
0.043755
0.366509
0.289189
0.136642
0.090166
0.229256
0.115843
0.500995
0.100000
0.100000
0.000000
0.000000
0.000000
0.000000
0.120365
0.181657
0.053918
0.111058
0.207743
0.142307
0.132608
0.157231
0.151614
0.161749
0.134791
0.200299
0.398396
0.197301
0.107136
0.157855
0.313083
0.156958
0.102102
0.258798
0.363460
0.100000
0.100000
0.100000
0.000000
0.000000
0.000000
0.000000
0.170686
0.127049
0.199633
0.314690
0.128643
0.332774
0.290291
0.045036
0.233146
0.100490
0.023421
0.121325
0.104881
0.154123
0.183957
0.459364
0.257563
0.245026
0.180169
0.168510
0.288744
0.116288
0.100000
0.100000
0.000000
0.000000
0.000000
0.000000
0.165940
0.187756
0.081767
0.049696
0.051091
0.315143
0.064961
0.106304
0.040814
0.223338
0.108830
0.135150
0.102395
0.168656
0.046509
0.058755
0.244010
0.270195
0.122475
0.177614
0.209061
0.320750
0.228612
0.100000
0.000000
0.000000
0.000000
0.000000
0.202914
0.139923
0.090727
0.181067
0.172498
0.186802
0.091094
0.161736
0.059058
0.118852
0.165166
0.043602
0.102430
0.182372
0.192047
0.080353
0.204969
0.045421
0.161514
0.194088
0.188401
0.073632
0.390732
0.100000
0.000000
0.000000
0.000000
0.000000
0.163271
0.174795
0.125986
0.096335
0.221694
0.105465
0.156701
0.210265
0.274868
0.140855
0.031308
0.074105
0.042330
0.213692
0.361602
0.229739
0.033379
0.108935
0.062553
0.200554
0.160097
0.295266
0.652600
0.100000
0.000000
0.000000
0.000000
0.000000
0.164998
0.214826
0.183607
0.091207
0.234803
0.294799
0.225764
0.137554
0.187528
0.054523
0.112003
0.082259
0.053093
0.099359
0.091207
0.123701
0.198478
0.131861
0.281836
0.253629
0.194459
0.216988
0.523335
0.100000
0.000000
0.000000
0.000000
0.000000
0.151743
0.327057
0.100014
0.077378
0.070842
0.221610
0.129671
0.063402
0.159656
0.080058
0.038433
0.102020
0.078781
0.028331
0.198212
0.259502
0.163670
0.079537
0.034961
0.250644
0.343485
0.071858
0.100000
0.100000
0.000000
0.000000
0.000000
0.000000
0.084676
0.092565
0.076595
0.132072
0.063676
0.165376
0.193193
0.107391
0.027885
0.057557
0.186698
0.307938
0.170055
0.118203
0.150632
0.336047
0.210154
0.186882
0.010010
0.169327
0.315112
0.203589
0.095356
0.100000
0.000000
0.000000
0.000000
0.000000
0.171146
0.069549
0.085607
0.091342
0.130273
0.147258
0.069106
0.036895
0.070288
0.022916
0.255123
0.067924
0.093592
0.111781
0.115663
0.167436
0.097230
0.218967
0.098622
0.223404
0.325806
0.308422
0.055323
0.100000
0.000000
0.000000
0.000000
0.000000
0.040999
0.094507
0.068559
0.121456
0.019418
0.051748
0.066749
0.065360
0.052022
0.182554
0.034093
0.050213
0.118462
0.207490
0.293628
0.085223
0.373245
0.080542
0.213316
0.172489
0.173831
0.256017
0.100000
0.100000
0.000000
0.000000
0.000000
0.000000
0.147255
0.068831
0.091905
0.011387
0.151669
0.093772
0.200148
0.075449
0.159175
0.129694
0.340281
0.204188
0.192467
0.071073
0.113470
0.138440
0.120498
0.195954
0.113582
0.285015
0.229855
0.379038
0.162570
0.100000
0.000000
0.000000
0.000000
0.000000
0.112007
0.205659
0.178836
0.041818
0.199797
0.402614
0.025815
0.300611
0.074627
0.080342
0.215002
0.139606
0.024301
0.064690
0.175062
0.133372
0.096743
0.301229
0.054302
0.223028
0.126116
0.331654
0.273167
0.100000
0.000000
0.000000
0.000000
0.000000
0.129411
0.254394
0.325288
0.057657
0.305104
0.064804
0.235555
0.051209
0.205432
0.157091
0.066948
0.240688
0.259069
0.145211
0.072375
0.183691
0.066461
0.223392
0.238819
0.242775
0.441470
0.299741
0.156961
0.100000
0.000000
0.000000
0.000000
0.000000
0.097071
0.085531
0.155165
0.058468
0.195598
0.202861
0.037118
0.112017
0.241669
0.174635
0.147766
0.220156
0.102464
0.243679
0.207227
0.090129
0.131564
0.104487
0.214474
0.331351
0.152406
0.243781
0.179864
0.100000
0.000000
0.000000
0.000000
0.000000
0.144332
0.100811
0.179715
0.076721
0.085950
0.224209
0.068316
0.044659
0.319937
0.212057
0.195186
0.167962
0.116409
0.047874
0.137464
0.120326
0.144858
0.138864
0.209099
0.206172
0.136765
0.668670
0.122922
0.100000
0.000000
0.000000
0.000000
0.000000
0.149789
0.152907
0.193944
0.280472
0.161424
0.253362
0.039201
0.276226
0.132425
0.196608
0.263897
0.314750
0.118912
0.098059
0.097771
0.130363
0.179506
0.269358
0.082556
0.341111
0.375195
0.474248
0.311298
0.100000
0.000000
0.000000
0.000000
0.000000
0.136890
0.130325
0.165078
0.128739
0.299861
0.157841
0.158460
0.406990
0.192111
0.271186
0.087788
0.147243
0.317561
0.202512
0.083042
0.480299
0.171443
0.143351
0.188252
0.172206
0.387986
0.151695
0.243750
0.100000
0.000000
0.000000
0.000000
0.000000
0.047206
0.075157
0.166730
0.099301
0.100383
0.195796
0.084861
0.185684
0.100759
0.045001
0.375063
0.117692
0.220242
0.286768
0.294994
0.129851
0.114970
0.453780
0.087942
0.035356
0.495066
0.145973
0.141470
0.100000
0.000000
0.000000
0.000000
0.000000
0.101149
0.078337
0.325614
0.139557
0.085024
0.169141
0.261876
0.091538
0.065766
0.061395
0.131971
0.105950
0.160136
0.173031
0.169365
0.141995
0.223565
0.134977
0.204218
0.125388
0.206911
0.159382
0.359951
0.100000
0.000000
0.000000
0.000000
0.000000
0.084643
0.101590
0.145660
0.288426
0.130001
0.247130
0.176530
0.058201
0.239557
0.056156
0.126574
0.038948
0.096139
0.207216
0.193157
0.179272
0.171492
0.076758
0.139675
0.217836
0.186455
0.116466
0.437765
0.100000
0.000000
0.000000
0.000000
0.000000
0.130697
0.096020
0.191218
0.079868
0.153224
0.234425
0.157032
0.079200
0.121152
0.092138
0.015056
0.057288
0.094132
0.050725
0.167484
0.097603
0.145532
0.161347
0.277385
0.165223
0.311951
0.190590
0.230647
0.100000
0.000000
0.000000
0.000000
0.000000
0.000000
0.000000
0.000000
0.000000
0.000000
0.000000
0.000000
0.000000
0.000000
0.000000
0.000000
0.000000
0.000000
0.000000
0.000000
0.000000
0.000000
0.000000
0.000000
0.000000
0.000000
0.000000
0.000000
0.000000
0.000000
0.000000
0.000000
0.000000
0.000000
0.000000
0.000000
0.000000
0.000000
0.000000
0.000000
0.000000
0.000000
0.000000
0.000000
0.000000
0.000000
0.000000
0.000000
0.000000
0.000000
0.000000
0.000000
0.000000
0.000000
0.000000
0.000000
0.000000
0.000000
0.000000
0.000000
0.000000
0.000000
0.000000
0.000000
0.000000
0.000000
0.000000
0.000000
0.000000
0.000000
0.000000
0.000000
0.000000
0.000000
0.000000
0.000000
0.000000
0.000000
0.000000
0.000000
0.000000
0.000000
0.000000
0.000000
0.000000
0.000000
0.000000
0.000000
0.000000
0.000000
0.000000
0.000000
0.000000
0.000000
0.000000
0.000000
0.000000
0.000000
0.000000
0.000000
0.000000
0.000000
0.000000
0.000000
0.000000
0.000000
0.000000
0.000000
0.000000
0.000000
0.000000
0.000000
0.000000
</DataArray>
<DataArray NumberOfComponents='1' type='Float32' Name='pressure' format='ascii'>
0.000000
0.000000
0.000000
0.000000
0.000000
0.000000
0.000000
0.000000
0.000000
0.000000
0.000000
0.000000
0.000000
0.000000
0.000000
0.000000
0.000000
0.000000
0.000000
0.000000
0.000000
0.000000
0.000000
0.000000
0.000000
0.000000
0.000000
0.000000
0.000000
0.000000
0.000000
0.000000
0.000000
0.000000
0.000000
0.000000
0.000000
0.000000
0.000000
0.000000
0.000000
0.000000
0.000000
0.000000
0.000000
0.000000
0.000000
0.000000
0.000000
0.000000
0.000000
0.000000
0.000000
0.000000
0.000000
0.000000
0.000000
0.000000
40828.386719
40666.843750
40714.613281
41259.507812
40927.714844
39651.503906
38856.484375
37606.253906
35530.847656
34377.378906
33255.156250
31216.990234
29927.240234
27464.800781
24610.730469
21011.992188
19808.228516
19315.867188
20650.964844
21572.955078
21706.708984
21851.736328
21578.941406
19948.859375
16520.982422
0.000000
0.000000
0.000000
41205.714844
40118.023438
38943.109375
41102.312500
41412.800781
38499.199219
37708.632812
38081.218750
35648.761719
33012.812500
32723.119141
31222.345703
28942.988281
25898.611328
23542.650391
19363.562500
18093.363281
17918.414062
20026.042969
21460.726562
21760.171875
22061.091797
23235.404297
21521.003906
22672.292969
0.000000
0.000000
0.000000
42388.390625
41731.421875
41929.832031
42556.062500
41241.054688
39027.921875
34709.054688
30396.476562
33759.820312
32063.468750
28824.708984
25428.400391
0.000000
19031.154297
22020.437500
21148.925781
22439.425781
23093.873047
21334.390625
22948.632812
28303.441406
26435.570312
0.000000
14319.864258
20792.335938
0.000000
0.000000
0.000000
43166.792969
43257.703125
42501.335938
41658.933594
41256.964844
39809.007812
36768.519531
35487.320312
32429.464844
29764.103516
26741.119141
24866.792969
21495.884766
20039.273438
22132.140625
21986.017578
22768.812500
23736.208984
23953.556641
24354.626953
23841.412109
19417.544922
25356.878906
0.000000
26064.927734
14966.965820
0.000000
0.000000
43464.625000
43347.996094
41778.359375
41240.507812
40171.289062
38251.031250
35323.585938
31999.882812
34351.894531
31394.111328
30426.128906
28022.980469
26222.945312
20822.775391
20808.554688
20551.636719
22937.384766
23817.695312
25318.373047
26489.880859
23516.277344
26462.056641
33554.007812
26731.439453
16304.405273
14733.217773
0.000000
0.000000
43538.187500
43605.640625
42990.250000
38823.035156
36431.902344
39543.230469
35852.449219
36962.945312
33019.425781
34527.101562
32745.669922
30876.669922
27342.185547
22914.490234
23719.617188
26389.283203
24998.619141
25196.798828
24820.236328
24468.072266
24309.513672
26077.238281
26392.023438
29543.562500
25236.347656
0.000000
0.000000
0.000000
43860.179688
44176.953125
41093.367188
42421.210938
38012.757812
37470.570312
36398.425781
36987.679688
36484.214844
33706.210938
32410.025391
31162.060547
26518.906250
23393.976562
28025.806641
26247.601562
27366.056641
25853.818359
24612.525391
26298.402344
25892.623047
22596.443359
25528.369141
25672.408203
27340.041016
17654.535156
0.000000
0.000000
45229.214844
44947.832031
43676.082031
42458.593750
40952.750000
40347.128906
37821.472656
37561.257812
39432.132812
36813.902344
35552.347656
31417.755859
27936.767578
27854.658203
29590.054688
29660.156250
29911.769531
28369.650391
27743.310547
26965.845703
26745.796875
27204.791016
26068.947266
23597.585938
21659.875000
23499.955078
0.000000
0.000000
45994.257812
45699.804688
44143.695312
43282.812500
42084.375000
39615.496094
39925.828125
40214.113281
39112.308594
42058.957031
38493.585938
38450.746094
35717.542969
31296.416016
29305.167969
30918.468750
31606.607422
30023.888672
28688.882812
29071.785156
26626.730469
27414.771484
28350.095703
27785.642578
30895.033203
24622.580078
0.000000
0.000000
46677.507812
46286.742188
44713.320312
43728.320312
43220.082031
40107.785156
42183.402344
41433.617188
44073.187500
44663.167969
39817.960938
37565.218750
33343.308594
34146.085938
32774.078125
33160.914062
31041.789062
32283.957031
31164.566406
28647.265625
29415.224609
28765.927734
27382.976562
24172.794922
30710.080078
24977.416016
0.000000
0.000000
47168.312500
46994.707031
45907.089844
45420.925781
43449.312500
42230.492188
45981.371094
44631.074219
43938.007812
42480.828125
41558.308594
40667.019531
37642.324219
38204.210938
34480.136719
34708.671875
33896.980469
33169.523438
32552.810547
30012.062500
31047.212891
30186.570312
29370.796875
25678.650391
30897.455078
25591.857422
0.000000
0.000000
48195.695312
48482.761719
46631.238281
44991.636719
44429.468750
44721.023438
45625.289062
44804.925781
42862.667969
43240.804688
42154.140625
41282.320312
39244.640625
35907.511719
36831.062500
34301.078125
32353.359375
34265.042969
35439.535156
32510.929688
32211.560547
31584.132812
30600.054688
28366.822266
29010.656250
26104.986328
0.000000
0.000000
49224.566406
49209.722656
47062.101562
48254.714844
47068.765625
46752.156250
46217.949219
46133.843750
45887.593750
42709.140625
41205.343750
40664.066406