<?xml version='1.0' encoding='UTF-8'?>
<VTKFile xmlns='VTK' byte_order='LittleEndian' version='0.1' type='UnstructuredGrid'>
<UnstructuredGrid>
<Piece NumberOfCells='1344' NumberOfPoints='1344'>
<Points>
<DataArray NumberOfComponents='3' type='Float32' Name='Position' format='ascii'>
-0.075000 -0.075000 0.000000
-0.075000 -0.050000 0.000000
-0.075000 -0.025000 0.000000
-0.075000 0.000000 0.000000
-0.075000 0.025000 0.000000
-0.075000 0.050000 0.000000
-0.075000 0.075000 0.000000
-0.075000 0.100000 0.000000
-0.075000 0.125000 0.000000
-0.075000 0.150000 0.000000
-0.075000 0.175000 0.000000
-0.075000 0.200000 0.000000
-0.075000 0.225000 0.000000
-0.075000 0.250000 0.000000
-0.075000 0.275000 0.000000
-0.075000 0.300000 0.000000
-0.075000 0.325000 0.000000
-0.075000 0.350000 0.000000
-0.075000 0.375000 0.000000
-0.075000 0.400000 0.000000
-0.075000 0.425000 0.000000
-0.075000 0.450000 0.000000
-0.075000 0.475000 0.000000
-0.075000 0.500000 0.000000
-0.075000 0.525000 0.000000
-0.075000 0.550000 0.000000
-0.075000 0.575000 0.000000
-0.075000 0.600000 0.000000
-0.050000 -0.075000 0.000000
-0.050000 -0.050000 0.000000
-0.050000 -0.025000 0.000000
-0.050000 0.000000 0.000000
-0.050000 0.025000 0.000000
-0.050000 0.050000 0.000000
-0.050000 0.075000 0.000000
-0.050000 0.100000 0.000000
-0.050000 0.125000 0.000000
-0.050000 0.150000 0.000000
-0.050000 0.175000 0.000000
-0.050000 0.200000 0.000000
-0.050000 0.225000 0.000000
-0.050000 0.250000 0.000000
-0.050000 0.275000 0.000000
-0.050000 0.300000 0.000000
-0.050000 0.325000 0.000000
-0.050000 0.350000 0.000000
-0.050000 0.375000 0.000000
-0.050000 0.400000 0.000000
-0.050000 0.425000 0.000000
-0.050000 0.450000 0.000000
-0.050000 0.475000 0.000000
-0.050000 0.500000 0.000000
-0.050000 0.525000 0.000000
-0.050000 0.550000 0.000000
-0.050000 0.575000 0.000000
-0.050000 0.600000 0.000000
-0.025000 -0.075000 0.000000
-0.025000 -0.050000 0.000000
-0.025000 -0.025000 0.000000
-0.025000 0.000000 0.000000
-0.025000 0.025000 0.000000
-0.025000 0.050000 0.000000
-0.025000 0.075000 0.000000
-0.025000 0.100000 0.000000
-0.025000 0.125000 0.000000
-0.025000 0.150000 0.000000
-0.025000 0.175000 0.000000
-0.025000 0.200000 0.000000
-0.025000 0.225000 0.000000
-0.025000 0.250000 0.000000
-0.025000 0.275000 0.000000
-0.025000 0.300000 0.000000
-0.025000 0.325000 0.000000
-0.025000 0.350000 0.000000
-0.025000 0.375000 0.000000
-0.025000 0.400000 0.000000
-0.025000 0.425000 0.000000
-0.025000 0.450000 0.000000
-0.025000 0.475000 0.000000
-0.025000 0.500000 0.000000
-0.025000 0.525000 0.000000
-0.025000 0.550000 0.000000
-0.025000 0.575000 0.000000
-0.025000 0.600000 0.000000
0.000000 -0.075000 0.000000
0.000000 -0.050000 0.000000
0.000000 -0.025000 0.000000
0.000000 0.000000 0.000000
0.000000 0.025000 0.000000
0.000000 0.050000 0.000000
0.000000 0.075000 0.000000
0.000000 0.100000 0.000000
0.000000 0.125000 0.000000
0.000000 0.150000 0.000000
0.000000 0.175000 0.000000
0.000000 0.200000 0.000000
0.000000 0.225000 0.000000
0.000000 0.250000 0.000000
0.000000 0.275000 0.000000
0.000000 0.300000 0.000000
0.000000 0.325000 0.000000
0.000000 0.350000 0.000000
0.000000 0.375000 0.000000
0.000000 0.400000 0.000000
0.000000 0.425000 0.000000
0.000000 0.450000 0.000000
0.000000 0.475000 0.000000
0.000000 0.500000 0.000000
0.000000 0.525000 0.000000
0.000000 0.550000 0.000000
0.000000 0.575000 0.000000
0.000000 0.600000 0.000000
0.025000 -0.075000 0.000000
0.025000 -0.050000 0.000000
0.025000 -0.025000 0.000000
0.025000 0.000000 0.000000
0.055375 0.025299 0.000000
0.111692 0.020963 0.000000
0.024331 0.024592 0.000000
0.023034 0.114405 0.000000
0.045359 0.131362 0.000000
0.072098 0.269320 0.000000
0.029439 0.193741 0.000000
0.046548 0.208307 0.000000
0.032307 0.240511 0.000000
0.022977 0.262839 0.000000
0.029333 0.362972 0.000000
0.022981 0.412194 0.000000
0.023343 0.495187 0.000000
0.023955 0.520982 0.000000
0.036177 0.540416 0.000000
0.048349 0.563269 0.000000
0.067328 0.580078 0.000000
0.094206 0.587757 0.000000
0.123502 0.577265 0.000000
0.060578 0.600000 0.000000
0.040833 0.600000 0.000000
0.014432 0.600000 0.000000
0.167861 0.600000 0.000000
0.187545 0.600000 0.000000
0.050000 -0.075000 0.000000
0.050000 -0.050000 0.000000
0.050000 -0.025000 0.000000
0.050000 0.000000 0.000000
0.144210 0.027323 0.000000
0.095596 0.041009 0.000000
0.020740 0.062702 0.000000
0.029973 0.094959 0.000000
0.025014 0.144111 0.000000
0.023115 0.170168 0.000000
0.048400 0.254771 0.000000
0.049596 0.278962 0.000000
0.023035 0.290658 0.000000
0.055524 0.355324 0.000000
0.023460 0.338502 0.000000
0.024005 0.383666 0.000000
0.023212 0.445373 0.000000
0.027608 0.469607 0.000000
0.047496 0.490328 0.000000
0.021124 0.560129 0.000000
0.062364 0.538380 0.000000
0.115456 0.534015 0.000000
0.030175 0.583883 0.000000
0.108546 0.600000 0.000000
0.128248 0.600000 0.000000
0.080450 0.600000 0.000000
0.208564 0.576639 0.000000
0.207065 0.600000 0.000000
0.075000 -0.075000 0.000000
0.075000 -0.050000 0.000000
0.075000 -0.025000 0.000000
0.075000 0.000000 0.000000
0.127620 0.040602 0.000000
0.078403 0.024656 0.000000
0.037805 0.042208 0.000000
0.056054 0.095175 0.000000
0.064993 0.228797 0.000000
0.046735 0.159901 0.000000
0.138738 0.267213 0.000000
0.022754 0.218079 0.000000
0.051994 0.301470 0.000000
0.029407 0.314385 0.000000
0.076836 0.361424 0.000000
0.070109 0.316593 0.000000
0.045798 0.402467 0.000000
0.040523 0.431039 0.000000
0.065815 0.439037 0.000000
0.049829 0.461225 0.000000
0.142117 0.532740 0.000000
0.133407 0.555407 0.000000
0.078253 0.558718 0.000000
0.103617 0.560389 0.000000
0.152275 0.577521 0.000000
0.148421 0.600000 0.000000
0.226552 0.600000 0.000000
0.246915 0.600000 0.000000
0.100000 -0.075000 0.000000
0.100000 -0.050000 0.000000
0.100000 -0.025000 0.000000
0.100000 0.000000 0.000000
0.121056 0.095903 0.000000
0.084491 0.099576 0.000000
0.065577 0.149102 0.000000
0.041876 0.073524 0.000000
0.058810 0.188369 0.000000
0.063605 0.117410 0.000000
0.094226 0.263661 0.000000
0.108942 0.238106 0.000000
0.080495 0.242164 0.000000
0.047400 0.331787 0.000000
0.077305 0.390819 0.000000
0.055568 0.380029 0.000000
0.088833 0.429219 0.000000
0.073859 0.463739 0.000000
0.070978 0.490504 0.000000
0.076320 0.515402 0.000000
0.050467 0.515126 0.000000
0.091669 0.536676 0.000000
0.169736 0.529427 0.000000
0.202254 0.536442 0.000000
0.161462 0.552858 0.000000
0.180433 0.578465 0.000000
0.265807 0.576204 0.000000
0.266197 0.600000 0.000000
0.125000 -0.075000 0.000000
0.125000 -0.050000 0.000000
0.125000 -0.025000 0.000000
0.125000 0.000000 0.000000
0.114724 0.115623 0.000000
0.100455 0.060442 0.000000
0.090385 0.148563 0.000000
0.130371 0.238881 0.000000
0.078319 0.210642 0.000000
0.130450 0.209643 0.000000
0.135643 0.292467 0.000000
0.084002 0.334245 0.000000
0.081985 0.294669 0.000000
0.102198 0.378622 0.000000
0.098917 0.401026 0.000000
0.066292 0.414886 0.000000
0.125673 0.441694 0.000000
0.092690 0.479103 0.000000
0.119483 0.465739 0.000000
0.114621 0.489601 0.000000
0.099039 0.510442 0.000000
0.126840 0.510335 0.000000
0.153734 0.508902 0.000000
0.218678 0.554022 0.000000
0.237148 0.579112 0.000000
0.186051 0.552949 0.000000
0.294221 0.577753 0.000000
0.286039 0.600000 0.000000
0.150000 -0.075000 0.000000
0.150000 -0.050000 0.000000
0.150000 -0.025000 0.000000
0.150000 0.000000 0.000000
0.148667 0.055795 0.000000
0.159761 0.129235 0.000000
0.095608 0.082074 0.000000
0.063091 0.050890 0.000000
0.075135 0.174897 0.000000
0.094523 0.190786 0.000000
0.101857 0.215193 0.000000
0.162854 0.274256 0.000000
0.115419 0.268919 0.000000
0.105483 0.294444 0.000000
0.139826 0.350381 0.000000
0.098815 0.450833 0.000000
0.131871 0.392609 0.000000
0.112547 0.420354 0.000000
0.154889 0.389834 0.000000
0.146736 0.450761 0.000000
0.159995 0.470953 0.000000
0.140663 0.484912 0.000000
0.188156 0.514002 0.000000
0.217496 0.513924 0.000000
0.232895 0.533976 0.000000
0.247222 0.555341 0.000000
0.304626 0.600000 0.000000
0.322997 0.600000 0.000000
0.175000 -0.075000 0.000000
0.175000 -0.050000 0.000000
0.175000 -0.025000 0.000000
0.175000 0.000000 0.000000
0.167239 0.022684 0.000000
0.151748 0.101697 0.000000
0.138944 0.137521 0.000000
0.089462 0.122788 0.000000
0.117240 0.136500 0.000000
0.103280 0.165706 0.000000
0.146335 0.181894 0.000000
0.174916 0.174805 0.000000
0.149740 0.222793 0.000000
0.156463 0.245784 0.000000
0.160671 0.297560 0.000000
0.101124 0.353517 0.000000
0.157620 0.366480 0.000000
0.188645 0.424861 0.000000
0.137468 0.415003 0.000000
0.175632 0.446739 0.000000
0.214170 0.474033 0.000000
0.186989 0.468924 0.000000
0.171483 0.492559 0.000000
0.200764 0.493781 0.000000
0.250290 0.514815 0.000000
0.262854 0.534976 0.000000
0.351792 0.576474 0.000000
0.342584 0.600000 0.000000
0.200000 -0.075000 0.000000
0.200000 -0.050000 0.000000
0.200000 -0.025000 0.000000
0.200000 0.000000 0.000000
0.146221 0.081150 0.000000
0.125477 0.071369 0.000000
0.206847 0.127160 0.000000
0.067584 0.070850 0.000000
0.181628 0.154069 0.000000
0.121788 0.189502 0.000000
0.252261 0.120961 0.000000
0.276134 0.100917 0.000000
0.164713 0.197817 0.000000
0.178039 0.239836 0.000000
0.150749 0.327024 0.000000
0.132363 0.313774 0.000000
0.102582 0.315944 0.000000
0.116682 0.336809 0.000000
0.125806 0.369328 0.000000
0.157730 0.426842 0.000000
0.202804 0.449005 0.000000
0.233578 0.495683 0.000000
0.279590 0.511892 0.000000
0.304481 0.508293 0.000000
0.292329 0.534358 0.000000
0.278737 0.554563 0.000000
0.380774 0.575773 0.000000
0.361164 0.600000 0.000000
0.225000 -0.075000 0.000000
0.225000 -0.050000 0.000000
0.225000 -0.025000 0.000000
0.225000 0.000000 0.000000
0.184381 0.038622 0.000000
0.188317 0.078337 0.000000
0.156762 0.154489 0.000000
0.128405 0.165840 0.000000
0.226402 0.081681 0.000000
0.198437 0.099794 0.000000
0.254150 0.146633 0.000000
0.211089 0.150022 0.000000
0.198520 0.182830 0.000000
0.218917 0.172221 0.000000
0.186642 0.270350 0.000000
0.181361 0.360817 0.000000
0.171310 0.339627 0.000000
0.187531 0.386677 0.000000
0.172925 0.406908 0.000000
[...]
<PointData>
<DataArray NumberOfComponents='1' type='Int32' Name='ParticleType' format='ascii'>
3
3
3
3
3
3
3
3
3
3
3
3
3
3
3
3
3
3
3
3
3
3
3
3
3
3
3
3
3
3
3
3
3
3
3
3
3
3
3
3
3
3
3
3
3
3
3
3
3
3
3
3
3
3
3
3
3
3
2
2
2
2
2
2
2
2
2
2
2
2
2
2
2
2
2
2
2
2
2
2
2
2
2
2
3
3
2
2
2
2
2
2
2
2
2
2
2
2
2
2
2
2
2
2
2
2
2
2
2
2
2
2
3
3
2
2
0
0
0
0
0
0
0
0
0
0
0
0
0
0
0
0
0
0
0
0
0
0
0
0
3
3
2
2
0
0
0
0
0
0
0
0
0
0
0
0
0
0
0
0
0
0
0
0
0
0
0
0
3
3
2
2
0
0
0
0
0
0
0
0
0
0
0
0
0
0
0
0
0
0
0
0
0
0
0
0
3
3
2
2
0
0
0
0
0
0
0
0
0
0
0
0
0
0
0
0
0
0
0
0
0
0
0
0
3
3
2
2
0
0
0
0
0
0
0
0
0
0
0
0
0
0
0
0
0
0
0
0
0
0
0
0
3
3
2
2
0
0
0
0
0
0
0
0
0
0
0
0
0
0
0
0
0
0
0
0
0
0
0
0
3
3
2
2
0
0
0
0
0
0
0
0
0
0
0
0
0
0
0
0
0
0
0
0
0
0
0
0
3
3
2
2
0
0
0
0
0
0
0
0
0
0
0
0
0
0
0
0
0
0
0
0
0
0
0
0
3
3
2
2
0
0
0
0
0
0
0
0
0
0
0
0
0
0
0
0
0
0
0
0
0
0
0
0
3
3
2
2
0
0
0
0
0
0
0
0
0
0
0
0
0
0
0
0
0
0
0
0
0
0
0
0
3
3
2
2
0
0
0
0
0
0
0
0
0
0
0
0
0
0
0
0
0
0
0
0
0
0
0
0
3
3
2
2
0
0
0
0
0
0
0
0
0
0
0
0
0
0
0
0
0
0
0
0
0
0
0
0
3
3
2
2
0
0
0
0
0
0
0
0
0
0
0
0
0
0
0
0
0
0
0
0
0
0
0
0
3
3
2
2
0
0
0
0
0
0
0
0
0
0
0
0
0
0
0
0
0
0
0
0
0
0
0
0
3
3
2
2
0
0
0
0
0
0
0
0
0
0
0
0
0
0
0
0
0
0
0
0
0
0
0
0
3
3
2
2
0
0
0
0
0
0
0
0
0
0
0
0
0
0
0
0
0
0
0
0
0
0
0
0
3
3
2
2
0
0
0
0
0
0
0
0
0
0
0
0
0
0
0
0
0
0
0
0
0
0
0
0
3
3
2
2
0
0
0
0
0
0
0
0
0
0
0
0
0
0
0
0
0
0
0
0
0
0
0
0
3
3
2
2
0
0
0
0
0
0
0
0
0
0
0
0
0
0
0
0
0
0
0
0
0
0
0
0
3
3
2
2
0
0
0
0
0
0
0
0
0
0
0
0
0
0
0
0
0
0
0
0
0
0
0
0
3
3
2
2
0
0
0
0
0
0
0
0
0
0
0
0
0
0
0
0
0
0
0
0
0
0
0
0
3
3
2
2
0
0
0
0
0
0
0
0
0
0
0
0
0
0
0
0
0
0
0
0
0
0
0
0
3
3
2
2
0
0
0
0
0
0
0
0
0
0
0
0
0
0
0
0
0
0
0
0
0
0
0
0
3
3
2
2
0
0
0
0
0
0
0
0
0
0
0
0
0
0
0
0
0
0
0
0
0
0
0
0
3
3
2
2
0
0
0
0
0
0
0
0
0
0
0
0
0
0
0
0
0
0
0
0
0
0
0
0
3
3
2
2
0
0
0
0
0
0
0
0
0
0
0
0
0
0
0
0
0
0
0
0
0
0
0
0
3
3
2
2
0
0
0
0
0
0
0
0
0
0
0
0
0
0
0
0
0
0
0
0
0
0
0
0
3
3
2
2
0
0
0
0
0
0
0
0
0
0
0
0
0
0
0
0
0
0
0
0
0
0
0
0
3
3
2
2
0
0
0
0
0
0
0
0
0
0
0
0
0
0
0
0
0
0
0
0
0
0
0
0
3
3
2
2
0
0
0
0
0
0
0
0
0
0
0
0
0
0
0
0
0
0
0
0
0
0
0
0
3
3
2
2
0
0
0
0
0
0
0
0
0
0
0
0
0
0
0
0
0
0
0
0
0
0
0
0
3
3
2
2
0
0
0
0
0
0
0
0
0
0
0
0
0
0
0
0
0
0
0
0
0
0
0
0
3
3
2
2
0
0
0
0
0
0
0
0
0
0
0
0
0
0
0
0
0
0
0
0
0
0
0
0
3
3
2
2
0
0
0
0
0
0
0
0
0
0
0
0
0
0
0
0
0
0
0
0
0
0
0
0
3
3
2
2
0
0
0
0
0
0
0
0
0
0
0
0
0
0
0
0
0
0
0
0
0
0
0
0
3
3
2
2
0
0
0
0
0
0
0
0
0
0
0
0
0
0
0
0
0
0
0
0
0
0
0
0
3
3
2
2
0
0
0
0
0
0
0
0
0
0
0
0
0
0
0
0
0
0
0
0
0
0
0
0
3
3
2
2
0
0
0
0
0
0
0
0
0
0
0
0
0
0
0
0
0
0
0
0
0
0
0
0
3
3
2
2
0
0
0
0
0
0
0
0
0
0
0
0
0
0
0
0
0
0
0
0
0
0
0
0
3
3
2
2
0
0
0
0
0
0
0
0
0
0
0
0
0
0
0
0
0
0
0
0
0
0
0
0
3
3
2
2
2
2
2
2
2
2
2
2
2
2
2
2
2
2
2
2
2
2
2
2
2
2
2
2
3
3
2
2
2
2
2
2
2
2
2
2
2
2
2
2
2
2
2
2
2
2
2
2
2
2
2
2
3
3
3
3
3
3
3
3
3
3
3
3
3
3
3
3
3
3
3
3
3
3
3
3
3
3
3
3
3
3
3
3
3
3
3
3
3
3
3
3
3
3
3
3
3
3
3
3
3
3
3
3
3
3
3
3
</DataArray>
<DataArray NumberOfComponents='1' type='Float32' Name='Velocity' format='ascii'>
0.000000
0.000000
0.000000
0.000000
0.000000
0.000000
0.000000
0.000000
0.000000
0.000000
0.000000
0.000000
0.000000
0.000000
0.000000
0.000000
0.000000
0.000000
0.000000
0.000000
0.000000
0.000000
0.000000
0.000000
0.000000
0.000000
0.000000
0.000000
0.000000
0.000000
0.000000
0.000000
0.000000
0.000000
0.000000
0.000000
0.000000
0.000000
0.000000
0.000000
0.000000
0.000000
0.000000
0.000000
0.000000
0.000000
0.000000
0.000000
0.000000
0.000000
0.000000
0.000000
0.000000
0.000000
0.000000
0.000000
0.000000
0.000000
0.000000
0.000000
0.000000
0.000000
0.000000
0.000000
0.000000
0.000000
0.000000
0.000000
0.000000
0.000000
0.000000
0.000000
0.000000
0.000000
0.000000
0.000000
0.000000
0.000000
0.000000
0.000000
0.000000
0.000000
0.000000
0.000000
0.000000
0.000000
0.000000
0.000000
0.000000
0.000000
0.000000
0.000000
0.000000
0.000000
0.000000
0.000000
0.000000
0.000000
0.000000
0.000000
0.000000
0.000000
0.000000
0.000000
0.000000
0.000000
0.000000
0.000000
0.000000
0.000000
0.000000
0.000000
0.000000
0.000000
0.000000
0.000000
0.124436
0.196869
0.177335
0.122025
0.211422
0.122630
0.106087
0.160767
0.132780
0.113777
0.245298
0.169322
0.123060
0.055777
0.060256
0.128614
0.100000
0.100000
0.100000
0.100000
0.100000
0.100000
0.100000
0.100000
0.000000
0.000000
0.000000
0.000000
0.106413
0.266821
0.166423
0.148569
0.246671
0.202872
0.057891
0.111436
0.120416
0.065143
0.140784
0.190278
0.117482
0.251730
0.254848
0.093866
0.110734
0.141528
0.100000
0.100000
0.100000
0.100000
0.100000
0.100000
0.000000
0.000000
0.000000
0.000000
0.072293
0.150472
0.287461
0.399335
0.236097
0.376987
0.177857
0.225605
0.129683
0.239026
0.028964
0.246723
0.179637
0.029490
0.307068
0.377099
0.153182
0.220786
0.194951
0.173839
0.100000
0.100000
0.100000
0.100000
0.000000
0.000000
0.000000
0.000000
0.305236
0.145004
0.261099
0.424524
0.236465
0.238721
0.118866
0.128559
0.273266
0.304969
0.135039
0.069215
0.306471
0.446022
0.214040
0.037643
0.182717
0.295095
0.201974
0.306163
0.333312
0.100000
0.100000
0.100000
0.000000
0.000000
0.000000
0.000000
0.272185
0.071962
0.308396
0.336638
0.460546
0.288469
0.271348
0.397416
0.393187
0.053666
0.125934
0.253276
0.205881
0.311899
0.485747
0.603366
0.318341
0.190406
0.184856
0.180820
0.100000
0.154251
0.100000
0.100000
0.000000
0.000000
0.000000
0.000000
0.230366
0.261428
0.172964
0.268312
0.438948
0.060872
0.173696
0.044963
0.106338
0.144587
0.230330
0.166112
0.069481
0.172142
0.174358
0.116989
0.176016
0.420624
0.174260
0.020693
0.190475
0.379055
0.100000
0.100000
0.000000
0.000000
0.000000
0.000000
0.199413
0.134161
0.083127
0.257245
0.127779
0.069025
0.352878
0.195260
0.106366
0.111875
0.290146
0.055405
0.193843
0.173207
0.099104
0.130043
0.051211
0.096868
0.225622
0.150190
0.205906
0.329684
0.100000
0.100000
0.000000
0.000000
0.000000
0.000000
0.113621
0.340617
0.129814
0.125289
0.059333
0.247433
0.186775
0.123318
0.168526
0.081510
0.124951
0.285122
0.127597
0.272560
0.185516
0.288877
0.158759
0.061056
0.033975
0.162203
0.248666
0.369767
0.100000
0.100000
0.000000
0.000000
0.000000
0.000000
0.174300
0.081227
0.069089
0.174142
0.138949
0.244174
0.210336
0.302535
0.142908
0.047945
0.083591
0.197115
0.208979
0.025669
0.236852
0.256611
0.032128
0.182166
0.074970
0.069115
0.370636
0.297144
0.100000
0.100000
0.000000
0.000000
0.000000
0.000000
0.263946
0.037588
0.122285
0.221701
0.164165
0.197209
0.085988
0.262877
0.205730
0.132640
0.072978
0.227638
0.078117
0.068939
0.234946
0.243680
0.220918
0.142101
0.239806
0.283870
0.216208
0.181488
0.100000
0.100000
0.000000
0.000000
0.000000
0.000000
0.204934
0.117902
0.078295
0.084745
0.104604
0.008987
0.072488
0.295192
0.079012
0.180261
0.323139
0.142629
0.225722
0.365541
0.248212
0.280463
0.237472
0.097769
0.224964
0.111891
0.235115
0.100000
0.170613
0.100000
0.000000
0.000000
0.000000
0.000000
0.039337
0.134385
0.129019
0.040326
0.122534
0.034652
0.092006
0.160737
0.098295
0.113913
0.049326
0.107408
0.212707
0.209547
0.111645
0.029400
0.149953
0.031921
0.284812
0.247194
0.201392
0.246966
0.203245
0.100000
0.000000
0.000000
0.000000
0.000000
0.085345
0.093414
0.140894
0.263382
0.083725
0.199238
0.273919
0.234712
0.147430
0.171052
0.113217
0.275572
0.109151
0.297852
0.200811
0.169897
0.057079
0.036675
0.271718
0.164436
0.092497
0.089170
0.100000
0.100000
0.000000
0.000000
0.000000
0.000000
0.098583
0.155009
0.216777
0.129285
0.003340
0.286404
0.062463
0.237433
0.151829
0.226393
0.264538
0.171173
0.082302
0.240813
0.239424
0.108491
0.249815
0.060262
0.172414
0.271402
0.224276
0.324038
0.407420
0.100000
0.000000
0.000000
0.000000
0.000000
0.234098
0.255852
0.091628
0.243105
0.291474
0.135196
0.162471
0.233031
0.113453
0.141235
0.143468
0.312797
0.227092
0.026941
0.144676
0.247339
0.138606
0.144364
0.134596
0.062354
0.265139
0.125157
0.100000
0.100000
0.000000
0.000000
0.000000
0.000000
0.198126
0.198092
0.186884
0.124973
0.153101
0.099601
0.146026
0.110732
0.146563
0.266747
0.229440
0.189579
0.276948
0.200344
0.177146
0.077942
0.235168
0.159327
0.308716
0.068495
0.238920
0.178545
0.100000
0.100000
0.000000
0.000000
0.000000
0.000000
0.150115
0.099125
0.044302
0.129732
0.130007
0.054408
0.180867
0.094527
0.241181
0.148106
0.138963
0.258113
0.599500
0.089462
0.227212
0.324312
0.065967
0.141222
0.270599
0.110950
0.198677
0.192090
0.350566
0.100000
0.000000
0.000000
0.000000
0.000000
0.170823
0.298238
0.159272
0.165373
0.038269
0.061910
0.048790
0.088294
0.150766
0.130341
0.157698
0.417359
0.102085
0.056239
0.035126
0.195022
0.075682
0.066963
0.213452
0.265527
0.248943
0.145832
0.105206
0.100000
0.000000
0.000000
0.000000
0.000000
0.101341
0.029624
0.027325
0.243676
0.116835
0.130627
0.128864
0.154666
0.142865
0.041331
0.130538
0.262788
0.119261
0.144344
0.073416
0.265699
0.192657
0.113990
0.083532
0.279747
0.061666
0.157070
0.375529
0.100000
0.000000
0.000000
0.000000
0.000000
0.053976
0.068807
0.053609
0.099104
0.084660
0.026506
0.067958
0.034367
0.093126
0.259953
0.065634
0.049479
0.305804
0.183962
0.278854
0.133345
0.224039
0.245369
0.354719
0.196683
0.100019
0.193019
0.100000
0.100000
0.000000
0.000000
0.000000
0.000000
0.107213
0.060118
0.037579
0.076805
0.017320
0.072412
0.202883
0.197886
0.025819
0.115416
0.198046
0.329524
0.314374
0.069064
0.056763
0.322659
0.176391
0.154546
0.232109
0.026279
0.092899
0.143195
0.168417
0.100000
0.000000
0.000000
0.000000
0.000000
0.089367
0.109970
0.092355
0.186455
0.113757
0.077355
0.287709
0.046098
0.095129
0.093760
0.218689
0.223864
0.254626
0.278135
0.262759
0.186744
0.074833
0.110534
0.103238
0.201293
0.284437
0.152989
0.484571
0.100000
0.000000
0.000000
0.000000
0.000000
0.096360
0.097404
0.164347
0.081765
0.065152
0.107989
0.018069
0.017265
0.022529
0.172468
0.063311
0.305390
0.060078
0.147521
0.103814
0.146540
0.054015
0.119445
0.082401
0.128011
0.118056
0.261197
0.614560
0.100000
0.000000
0.000000
0.000000
0.000000
0.114285
0.177445
0.140661
0.241116
0.265716
0.071158
0.162226
0.333587
0.101119
0.299737
0.158467
0.095767
0.087938
0.097684
0.273026
0.108229
0.263531
0.123860
0.013605
0.049431
0.081182
0.174405
0.112185
0.100000
0.000000
0.000000
0.000000
0.000000
0.161460
0.120030
0.161596
0.143135
0.201969
0.293702
0.082270
0.171438
0.093883
0.111803
0.029551
0.109773
0.255877
0.064812
0.212739
0.133823
0.159922
0.146109
0.153843
0.088078
0.387096
0.166253
0.777605
0.100000
0.000000
0.000000
0.000000
0.000000
0.051214
0.044722
0.233975
0.073006
0.084164
0.139856
0.136013
0.064041
0.099239
0.111988
0.146861
0.073813
0.147009
0.158877
0.091952
0.188580
0.267126
0.218062
0.179371
0.215586
0.192133
0.064549
0.100000
0.100000
0.000000
0.000000
0.000000
0.000000
0.093633
0.204327
0.223240
0.351076
0.155707
0.181050
0.122505
0.160089
0.035489
0.252361
0.043309
0.104972
0.177102
0.058010
0.125926
0.187403
0.231047
0.281102
0.305227
0.393015
0.269905
0.272679
0.553130
0.100000
0.000000
0.000000
0.000000
0.000000
0.115493
0.256157
0.089061
0.174747
0.057865
0.032047
0.317552
0.287180
0.197203
0.090246
0.050612
0.088169
0.086823
0.099239
0.093191
0.140424
0.184028
0.087826
0.005934
0.093327
0.172806
0.404571
0.278834
0.100000
0.000000
0.000000
0.000000
0.000000
0.187381
0.040269
0.268795
0.064619
0.099641
0.210959
0.235253
0.170074
0.372022
0.143941
0.222190
0.064645
0.146104
0.275434
0.311682
0.226879
0.149115
0.098330
0.113635
0.413086
0.056001
0.547650
0.100000
0.100000
0.000000
0.000000
0.000000
0.000000
0.099796
0.053957
0.113999
0.198686
0.045427
0.234014
0.237604
0.169874
0.265625
0.079830
0.038761
0.072330
0.184696
0.032818
0.203112
0.146877
0.061334
0.049116
0.283563
0.139088
0.617824
0.322038
0.319276
0.100000
0.000000
0.000000
0.000000
0.000000
0.031441
0.044727
0.253790
0.023377
0.153344
0.314056
0.172046
0.191317
0.378149
0.203110
0.212573
0.334715
0.122331
0.234317
0.048638
0.151652
0.066814
0.035461
0.388744
0.192517
0.354113
0.520080
0.218528
0.100000
0.000000
0.000000
0.000000
0.000000
0.116527
0.126567
0.050927
0.098046
0.077475
0.378297
0.107969
0.121336
0.219250
0.178558
0.218365
0.065478
0.191598
0.048558
0.173384
0.093541
0.104178
0.220636
0.029190
0.494736
0.275017
0.224343
0.131357
0.100000
0.000000
0.000000
0.000000
0.000000
0.069690
0.141686
0.081257
0.152046
0.116937
0.174169
0.182497
0.144174
0.346785
0.018812
0.261683
0.483072
0.209252
0.212082
0.021548
0.024560
0.277322
0.201678
0.188156
0.409783
0.217724
0.614358
0.449959
0.100000
0.000000
0.000000
0.000000
0.000000
0.048243
0.199311
0.257207
0.433110
0.018817
0.284908
0.042679
0.083439
0.099277
0.167965
0.223195
0.095733
0.044695
0.100015
0.231123
0.040849
0.177174
0.191242
0.012166
0.082801
0.131989
0.132600
0.245709
0.100000
0.000000
0.000000
0.000000
0.000000
0.082168
0.142798
0.117656
0.094086
0.086847
0.079414
0.108556
0.082915
0.266711
0.120870
0.152679
0.195550
0.103671
0.339493
0.387475
0.123403
0.213140
0.096997
0.177819
0.114785
0.126317
0.191824
0.268560
0.100000
0.000000
0.000000
0.000000
0.000000
0.192914
0.384121
0.208114
0.226653
0.150111
0.074669
0.115108
0.209478
0.206366
0.323103
0.250513
0.279062
0.212980
0.107205
0.298617
0.085050
0.196518
0.211936
0.362937
0.209826
0.342943
0.175449
0.382873
0.100000
0.000000
0.000000
0.000000
0.000000
0.127420
0.084662
0.180859
0.080630
0.062160
0.102988
0.091492
0.235986
0.114349
0.152134
0.192795
0.130453
0.192172
0.185693
0.173283
0.136405
0.142450
0.368714
0.175272
0.398310
0.206582
0.096004
0.102620
0.100000
0.000000
0.000000
0.000000
0.000000
0.140278
0.113366
0.268504
0.235752
0.041202
0.094584
0.045193
0.048875
0.131187
0.369842
0.038282
0.354253
0.140864
0.195653
0.132928
0.078873
0.414283
0.122721
0.050369
0.384657
0.182787
0.136384
0.298718
0.100000
0.000000
0.000000
0.000000
0.000000
0.124663
0.020760
0.106549
0.282523
0.164271
0.187552
0.051150
0.138054
0.167586
0.169696
0.139186
0.095405
0.131529
0.287927
0.352187
0.291171
0.182398
0.177006
0.191124
0.318692
0.252649
0.527254
0.248369
0.100000
0.000000
0.000000
0.000000
0.000000
0.096427
0.125481
0.181715
0.077478
0.028344
0.012174
0.019811
0.086333
0.139405
0.082028
0.117156
0.053722
0.085401
0.151121
0.254070
0.332833
0.150241
0.262377
0.154455
0.349237
0.501895
0.268888
0.426253
0.100000
0.000000
0.000000
0.000000
0.000000
0.000000
0.000000
0.000000
0.000000
0.000000
0.000000
0.000000
0.000000
0.000000
0.000000
0.000000
0.000000
0.000000
0.000000
0.000000
0.000000
0.000000
0.000000
0.000000
0.000000
0.000000
0.000000
0.000000
0.000000
0.000000
0.000000
0.000000
0.000000
0.000000
0.000000
0.000000
0.000000
0.000000
0.000000
0.000000
0.000000
0.000000
0.000000
0.000000
0.000000
0.000000
0.000000
0.000000
0.000000
0.000000
0.000000
0.000000
0.000000
0.000000
0.000000
0.000000
0.000000
0.000000
0.000000
0.000000
0.000000
0.000000
0.000000
0.000000
0.000000
0.000000
0.000000
0.000000
0.000000
0.000000
0.000000
0.000000
0.000000
0.000000
0.000000
0.000000
0.000000
0.000000
0.000000
0.000000
0.000000
0.000000
0.000000
0.000000
0.000000
0.000000
0.000000
0.000000
0.000000
0.000000
0.000000
0.000000
0.000000
0.000000
0.000000
0.000000
0.000000
0.000000
0.000000
0.000000
0.000000
0.000000
0.000000
0.000000
0.000000
0.000000
0.000000
0.000000
0.000000
0.000000
0.000000
0.000000
0.000000
</DataArray>
<DataArray NumberOfComponents='1' type='Float32' Name='pressure' format='ascii'>
0.000000
0.000000
0.000000
0.000000
0.000000
0.000000
0.000000
0.000000
0.000000
0.000000
0.000000
0.000000
0.000000
0.000000
0.000000
0.000000
0.000000
0.000000
0.000000
0.000000
0.000000
0.000000
0.000000
0.000000
0.000000
0.000000
0.000000
0.000000
0.000000
0.000000
0.000000
0.000000
0.000000
0.000000
0.000000
0.000000
0.000000
0.000000
0.000000
0.000000
0.000000
0.000000
0.000000
0.000000
0.000000
0.000000
0.000000
0.000000
0.000000
0.000000
0.000000
0.000000
0.000000
0.000000
0.000000
0.000000
0.000000
0.000000
57106.957031
57132.011719
57322.574219
57771.171875
57405.078125
56087.878906
56281.152344
55940.261719
56164.460938
54805.273438
55267.113281
54410.867188
54584.363281
53604.105469
52651.566406
52518.265625
52431.308594
52622.800781
52021.734375
51675.128906
49379.531250
48992.980469
45945.816406
40374.996094
31284.251953
0.000000
0.000000
0.000000
57050.191406
57399.433594
56974.246094
56517.492188
55916.746094
54455.558594
56292.941406
56296.238281
56296.558594
54357.117188
54763.746094
53807.375000
53804.054688
52746.187500
52202.429688
52025.847656
52303.812500
52369.425781
51689.328125
52037.964844
49589.281250
50207.789062
47581.851562
43152.152344
39468.234375
0.000000
0.000000
0.000000
57062.875000
57042.804688
56709.652344
56308.851562
55968.195312
55956.621094
55584.281250
53362.812500
54134.785156
54319.496094
53137.476562
53816.136719
52461.914062
52017.585938
51369.781250
49263.519531
48833.062500
46792.183594
51053.996094
51106.816406
56081.863281
35388.359375
35945.746094
29211.216797
49302.562500
48518.261719
0.000000
0.000000
56714.433594
56538.308594
55729.785156
56420.933594
56500.957031
56020.011719
55673.128906
55051.000000
53346.777344
53823.402344
52206.871094
52095.707031
52859.472656
51916.375000
51735.734375
50982.277344
52077.574219
46778.628906
50784.507812
53703.976562
48941.832031
42063.480469
46398.785156
0.000000
52281.484375
45704.296875
0.000000
0.000000
57087.089844
57026.890625
55566.292969
56151.125000
57454.441406
55972.187500
54264.457031
55299.550781
52631.195312
54899.636719
52910.601562
53301.449219
51691.773438
53516.355469
51746.992188
52151.046875
51592.750000
50904.007812
52905.203125
51549.398438
49113.335938
49586.773438
57443.324219
48447.769531
42330.632812
38212.625000
0.000000
0.000000
57884.562500
57264.132812
54554.906250
55537.019531
55196.464844
55925.679688
54926.300781
55425.453125
53562.859375
53575.804688
53421.453125
51248.812500
51644.445312
51343.757812
51281.050781
52308.984375
53557.960938
54424.003906
50041.535156
52246.167969
50987.695312
48347.187500
51575.183594
56306.183594
40959.097656
33554.566406
0.000000
0.000000
57422.316406
56371.460938
55615.089844
55862.562500
55403.054688
52709.816406
53797.429688
53482.429688
51288.222656
51592.871094
51059.566406
51035.910156
51861.113281
51640.218750
52097.671875
54534.910156
52271.539062
55900.914062
54035.398438
54634.300781
51664.203125
45558.636719
48689.144531
48947.921875
32538.701172
24812.734375
0.000000
0.000000
56039.238281
55498.480469
55380.847656
54266.742188
56170.582031
55611.230469
54285.886719
54398.097656
52886.070312
51826.691406
52478.875000
52756.929688
51527.421875
51630.601562
51617.886719
51527.378906
49701.484375
50761.949219
51124.945312
50769.472656
49460.941406
46088.820312
44632.738281
41259.207031
0.000000
19635.564453
0.000000
0.000000
56421.839844
56225.871094
55636.394531
54687.816406
54395.953125
54925.988281
54772.546875
54770.714844
53083.941406
53998.218750
52518.234375
52594.675781
51235.250000
52652.328125
50068.550781
48693.812500
50248.066406
48863.707031
46559.464844
48765.222656
49703.042969
47611.664062
43434.046875
40511.832031
28727.423828
21046.501953
0.000000
0.000000
55250.441406
54746.191406
55431.753906
55690.281250
54011.121094
56212.410156
52356.417969
54424.734375
52782.054688
53943.597656
53021.175781
52413.265625
51042.511719
51581.238281
51962.574219
51466.960938
50089.023438
50448.949219
47881.406250
44411.039062
39515.312500
37484.988281
36638.562500
35204.398438
28371.376953
22247.083984
0.000000
0.000000
56124.335938
55998.179688
55619.484375
55186.597656
54576.863281
54104.476562
53982.460938
54295.378906
54653.023438
53386.929688
53024.488281
53376.484375
51659.230469
49417.839844
49877.390625
49622.968750
50544.968750
45934.023438
45835.339844
41826.425781
39929.234375
37846.617188
35944.292969
30621.027344
25571.939453
23562.958984
0.000000
0.000000
55433.007812
54587.835938
54797.398438
54365.011719
54168.894531
55044.917969
54854.355469
54713.746094
52587.667969
52798.613281
52192.039062
52164.230469
52595.617188
51277.941406
48712.214844
47873.105469
47401.992188
46542.027344
44296.191406
45025.375000
36805.710938
36316.835938
34163.605469
35533.968750
23136.732422
22860.876953
0.000000
0.000000
55376.578125
55230.988281
54849.066406
55584.976562
54622.332031
54971.371094
53606.382812
54829.105469
53437.964844
53015.082031
50950.074219