<?xml version='1.0' encoding='UTF-8'?>
<VTKFile xmlns='VTK' byte_order='LittleEndian' version='0.1' type='UnstructuredGrid'>
<UnstructuredGrid>
<Piece NumberOfCells='1344' NumberOfPoints='1344'>
<Points>
<DataArray NumberOfComponents='3' type='Float32' Name='Position' format='ascii'>
-0.075000 -0.075000 0.000000
-0.075000 -0.050000 0.000000
-0.075000 -0.025000 0.000000
-0.075000 0.000000 0.000000
-0.075000 0.025000 0.000000
-0.075000 0.050000 0.000000
-0.075000 0.075000 0.000000
-0.075000 0.100000 0.000000
-0.075000 0.125000 0.000000
-0.075000 0.150000 0.000000
-0.075000 0.175000 0.000000
-0.075000 0.200000 0.000000
-0.075000 0.225000 0.000000
-0.075000 0.250000 0.000000
-0.075000 0.275000 0.000000
-0.075000 0.300000 0.000000
-0.075000 0.325000 0.000000
-0.075000 0.350000 0.000000
-0.075000 0.375000 0.000000
-0.075000 0.400000 0.000000
-0.075000 0.425000 0.000000
-0.075000 0.450000 0.000000
-0.075000 0.475000 0.000000
-0.075000 0.500000 0.000000
-0.075000 0.525000 0.000000
-0.075000 0.550000 0.000000
-0.075000 0.575000 0.000000
-0.075000 0.600000 0.000000
-0.050000 -0.075000 0.000000
-0.050000 -0.050000 0.000000
-0.050000 -0.025000 0.000000
-0.050000 0.000000 0.000000
-0.050000 0.025000 0.000000
-0.050000 0.050000 0.000000
-0.050000 0.075000 0.000000
-0.050000 0.100000 0.000000
-0.050000 0.125000 0.000000
-0.050000 0.150000 0.000000
-0.050000 0.175000 0.000000
-0.050000 0.200000 0.000000
-0.050000 0.225000 0.000000
-0.050000 0.250000 0.000000
-0.050000 0.275000 0.000000
-0.050000 0.300000 0.000000
-0.050000 0.325000 0.000000
-0.050000 0.350000 0.000000
-0.050000 0.375000 0.000000
-0.050000 0.400000 0.000000
-0.050000 0.425000 0.000000
-0.050000 0.450000 0.000000
-0.050000 0.475000 0.000000
-0.050000 0.500000 0.000000
-0.050000 0.525000 0.000000
-0.050000 0.550000 0.000000
-0.050000 0.575000 0.000000
-0.050000 0.600000 0.000000
-0.025000 -0.075000 0.000000
-0.025000 -0.050000 0.000000
-0.025000 -0.025000 0.000000
-0.025000 0.000000 0.000000
-0.025000 0.025000 0.000000
-0.025000 0.050000 0.000000
-0.025000 0.075000 0.000000
-0.025000 0.100000 0.000000
-0.025000 0.125000 0.000000
-0.025000 0.150000 0.000000
-0.025000 0.175000 0.000000
-0.025000 0.200000 0.000000
-0.025000 0.225000 0.000000
-0.025000 0.250000 0.000000
-0.025000 0.275000 0.000000
-0.025000 0.300000 0.000000
-0.025000 0.325000 0.000000
-0.025000 0.350000 0.000000
-0.025000 0.375000 0.000000
-0.025000 0.400000 0.000000
-0.025000 0.425000 0.000000
-0.025000 0.450000 0.000000
-0.025000 0.475000 0.000000
-0.025000 0.500000 0.000000
-0.025000 0.525000 0.000000
-0.025000 0.550000 0.000000
-0.025000 0.575000 0.000000
-0.025000 0.600000 0.000000
0.000000 -0.075000 0.000000
0.000000 -0.050000 0.000000
0.000000 -0.025000 0.000000
0.000000 0.000000 0.000000
0.000000 0.025000 0.000000
0.000000 0.050000 0.000000
0.000000 0.075000 0.000000
0.000000 0.100000 0.000000
0.000000 0.125000 0.000000
0.000000 0.150000 0.000000
0.000000 0.175000 0.000000
0.000000 0.200000 0.000000
0.000000 0.225000 0.000000
0.000000 0.250000 0.000000
0.000000 0.275000 0.000000
0.000000 0.300000 0.000000
0.000000 0.325000 0.000000
0.000000 0.350000 0.000000
0.000000 0.375000 0.000000
0.000000 0.400000 0.000000
0.000000 0.425000 0.000000
0.000000 0.450000 0.000000
0.000000 0.475000 0.000000
0.000000 0.500000 0.000000
0.000000 0.525000 0.000000
0.000000 0.550000 0.000000
0.000000 0.575000 0.000000
0.000000 0.600000 0.000000
0.025000 -0.075000 0.000000
0.025000 -0.050000 0.000000
0.025000 -0.025000 0.000000
0.025000 0.000000 0.000000
0.023518 0.029056 0.000000
0.043453 0.057248 0.000000
0.022726 0.060195 0.000000
0.024063 0.114864 0.000000
0.025073 0.157984 0.000000
0.025169 0.183774 0.000000
0.026076 0.206624 0.000000
0.024050 0.233453 0.000000
0.023638 0.261344 0.000000
0.026047 0.283172 0.000000
0.025962 0.309654 0.000000
0.024040 0.332880 0.000000
0.026895 0.357808 0.000000
0.023091 0.381589 0.000000
0.023991 0.413444 0.000000
0.025132 0.437923 0.000000
0.024069 0.466232 0.000000
0.024343 0.491334 0.000000
0.022304 0.532649 0.000000
0.025664 0.558074 0.000000
0.028422 0.582845 0.000000
0.015340 0.600000 0.000000
0.079100 0.600000 0.000000
0.096433 0.600000 0.000000
0.050000 -0.075000 0.000000
0.050000 -0.050000 0.000000
0.050000 -0.025000 0.000000
0.050000 0.000000 0.000000
0.043070 0.023773 0.000000
0.066707 0.049216 0.000000
0.047111 0.081648 0.000000
0.023812 0.091233 0.000000
0.031400 0.139706 0.000000
0.057167 0.158569 0.000000
0.049433 0.184454 0.000000
0.043706 0.223426 0.000000
0.051860 0.252462 0.000000
0.052701 0.275289 0.000000
0.050622 0.299625 0.000000
0.050944 0.322928 0.000000
0.051461 0.349313 0.000000
0.052331 0.373106 0.000000
0.043636 0.395676 0.000000
0.048575 0.424200 0.000000
0.046924 0.449468 0.000000
0.050080 0.475242 0.000000
0.035342 0.508827 0.000000
0.045106 0.539815 0.000000
0.052447 0.571105 0.000000
0.041151 0.600000 0.000000
0.110084 0.581587 0.000000
0.119033 0.600000 0.000000
0.075000 -0.075000 0.000000
0.075000 -0.050000 0.000000
0.075000 -0.025000 0.000000
0.075000 0.000000 0.000000
0.069616 0.024577 0.000000
0.090672 0.050764 0.000000
0.071819 0.073975 0.000000
0.049138 0.122722 0.000000
0.071875 0.124852 0.000000
0.070752 0.178798 0.000000
0.062739 0.208352 0.000000
0.069023 0.236234 0.000000
0.077861 0.259904 0.000000
0.078949 0.283218 0.000000
0.076806 0.307467 0.000000
0.077012 0.332096 0.000000
0.075455 0.354324 0.000000
0.078781 0.380888 0.000000
0.067413 0.402875 0.000000
0.073750 0.426451 0.000000
0.068272 0.459089 0.000000
0.079600 0.483456 0.000000
0.058695 0.499143 0.000000
0.062316 0.521034 0.000000
0.067867 0.549530 0.000000
0.058740 0.598844 0.000000
0.137388 0.600000 0.000000
0.156595 0.600000 0.000000
0.100000 -0.075000 0.000000
0.100000 -0.050000 0.000000
0.100000 -0.025000 0.000000
0.100000 0.000000 0.000000
0.094135 0.024332 0.000000
0.102113 0.069160 0.000000
0.084574 0.094532 0.000000
0.059583 0.101794 0.000000
0.095576 0.134283 0.000000
0.076782 0.151312 0.000000
0.094032 0.181520 0.000000
0.085737 0.210829 0.000000
0.095520 0.236620 0.000000
0.105133 0.256880 0.000000
0.103701 0.287694 0.000000
0.102432 0.311381 0.000000
0.104641 0.335089 0.000000
0.101888 0.360529 0.000000
0.101128 0.387012 0.000000
0.095793 0.410821 0.000000
0.093677 0.436850 0.000000
0.094894 0.464563 0.000000
0.097716 0.495362 0.000000
0.103508 0.516886 0.000000
0.084164 0.530925 0.000000
0.078524 0.576385 0.000000
0.160633 0.579252 0.000000
0.177859 0.600000 0.000000
0.125000 -0.075000 0.000000
0.125000 -0.050000 0.000000
0.125000 -0.025000 0.000000
0.125000 0.000000 0.000000
0.115881 0.036766 0.000000
0.130280 0.057665 0.000000
0.115422 0.087540 0.000000
0.100646 0.111653 0.000000
0.121286 0.134557 0.000000
0.107530 0.158820 0.000000
0.116594 0.180907 0.000000
0.107694 0.208457 0.000000
0.121598 0.232524 0.000000
0.127651 0.263610 0.000000
0.125871 0.290986 0.000000
0.128580 0.316015 0.000000
0.127096 0.343347 0.000000
0.123910 0.370326 0.000000
0.124637 0.398447 0.000000
0.117795 0.426776 0.000000
0.114765 0.453558 0.000000
0.119916 0.481024 0.000000
0.124223 0.510417 0.000000
0.113538 0.547861 0.000000
0.133507 0.571893 0.000000
0.093537 0.555715 0.000000
0.188640 0.582383 0.000000
0.199707 0.600000 0.000000
0.150000 -0.075000 0.000000
0.150000 -0.050000 0.000000
0.150000 -0.025000 0.000000
0.150000 0.000000 0.000000
0.131701 0.023046 0.000000
0.151932 0.047027 0.000000
0.139466 0.079287 0.000000
0.128524 0.106819 0.000000
0.144598 0.130538 0.000000
0.134824 0.156345 0.000000
0.147742 0.178560 0.000000
0.133224 0.200944 0.000000
0.141970 0.221441 0.000000
0.143661 0.245810 0.000000
0.148843 0.277148 0.000000
0.153735 0.302323 0.000000
0.152552 0.326317 0.000000
0.148740 0.352423 0.000000
0.147851 0.378751 0.000000
0.142104 0.408569 0.000000
0.139179 0.437508 0.000000
0.139827 0.466014 0.000000
0.144991 0.492617 0.000000
0.149009 0.513916 0.000000
0.132857 0.539477 0.000000
0.150987 0.551450 0.000000
0.215112 0.584563 0.000000
0.226345 0.600000 0.000000
0.175000 -0.075000 0.000000
0.175000 -0.050000 0.000000
0.175000 -0.025000 0.000000
0.175000 0.000000 0.000000
0.159358 0.025458 0.000000
0.175762 0.050392 0.000000
0.163824 0.076351 0.000000
0.154631 0.101203 0.000000
0.166848 0.128469 0.000000
0.161144 0.156219 0.000000
0.178487 0.175958 0.000000
0.161973 0.196614 0.000000
0.175665 0.215712 0.000000
0.170080 0.240879 0.000000
0.169606 0.264727 0.000000
0.178899 0.287660 0.000000
0.176446 0.312687 0.000000
0.176077 0.338816 0.000000
0.172124 0.364236 0.000000
0.169348 0.390145 0.000000
0.168835 0.412079 0.000000
0.161898 0.436462 0.000000
0.161719 0.461565 0.000000
0.172421 0.482141 0.000000
0.175535 0.504262 0.000000
0.167615 0.531667 0.000000
0.240521 0.579028 0.000000
0.246587 0.600000 0.000000
0.200000 -0.075000 0.000000
0.200000 -0.050000 0.000000
0.200000 -0.025000 0.000000
0.200000 0.000000 0.000000
0.185539 0.023420 0.000000
0.199279 0.048292 0.000000
0.190184 0.073391 0.000000
0.177787 0.099359 0.000000
0.191780 0.126799 0.000000
0.185418 0.149253 0.000000
0.204833 0.172014 0.000000
0.192414 0.198067 0.000000
0.199627 0.221501 0.000000
0.191630 0.249661 0.000000
0.199099 0.274102 0.000000
0.202955 0.306382 0.000000
0.201279 0.330912 0.000000
0.197917 0.354894 0.000000
0.194247 0.378930 0.000000
0.196053 0.411275 0.000000
0.186232 0.433582 0.000000
0.196166 0.456070 0.000000
0.198594 0.475450 0.000000
0.197062 0.500786 0.000000
0.191629 0.533859 0.000000
0.176391 0.556037 0.000000
0.266994 0.578527 0.000000
0.266637 0.600000 0.000000
0.225000 -0.075000 0.000000
0.225000 -0.050000 0.000000
0.225000 -0.025000 0.000000
0.225000 0.000000 0.000000
0.211648 0.025266 0.000000
0.226176 0.047210 0.000000
0.214704 0.075163 0.000000
0.200879 0.099571 0.000000
0.220545 0.123004 0.000000
0.212164 0.145768 0.000000
0.229715 0.163618 0.000000
0.218460 0.190729 0.000000
0.225691 0.219068 0.000000
0.217045 0.240285 0.000000
0.221412 0.266591 0.000000
0.221025 0.292836 0.000000
0.226501 0.322350 0.000000
0.227458 0.347404 0.000000
0.219115 0.374072 0.000000
[...]
<PointData>
<DataArray NumberOfComponents='1' type='Int32' Name='ParticleType' format='ascii'>
3
3
3
3
3
3
3
3
3
3
3
3
3
3
3
3
3
3
3
3
3
3
3
3
3
3
3
3
3
3
3
3
3
3
3
3
3
3
3
3
3
3
3
3
3
3
3
3
3
3
3
3
3
3
3
3
3
3
2
2
2
2
2
2
2
2
2
2
2
2
2
2
2
2
2
2
2
2
2
2
2
2
2
2
3
3
2
2
2
2
2
2
2
2
2
2
2
2
2
2
2
2
2
2
2
2
2
2
2
2
2
2
3
3
2
2
0
0
0
0
0
0
0
0
0
0
0
0
0
0
0
0
0
0
0
0
0
0
0
0
3
3
2
2
0
0
0
0
0
0
0
0
0
0
0
0
0
0
0
0
0
0
0
0
0
0
0
0
3
3
2
2
0
0
0
0
0
0
0
0
0
0
0
0
0
0
0
0
0
0
0
0
0
0
0
0
3
3
2
2
0
0
0
0
0
0
0
0
0
0
0
0
0
0
0
0
0
0
0
0
0
0
0
0
3
3
2
2
0
0
0
0
0
0
0
0
0
0
0
0
0
0
0
0
0
0
0
0
0
0
0
0
3
3
2
2
0
0
0
0
0
0
0
0
0
0
0
0
0
0
0
0
0
0
0
0
0
0
0
0
3
3
2
2
0
0
0
0
0
0
0
0
0
0
0
0
0
0
0
0
0
0
0
0
0
0
0
0
3
3
2
2
0
0
0
0
0
0
0
0
0
0
0
0
0
0
0
0
0
0
0
0
0
0
0
0
3
3
2
2
0
0
0
0
0
0
0
0
0
0
0
0
0
0
0
0
0
0
0
0
0
0
0
0
3
3
2
2
0
0
0
0
0
0
0
0
0
0
0
0
0
0
0
0
0
0
0
0
0
0
0
0
3
3
2
2
0
0
0
0
0
0
0
0
0
0
0
0
0
0
0
0
0
0
0
0
0
0
0
0
3
3
2
2
0
0
0
0
0
0
0
0
0
0
0
0
0
0
0
0
0
0
0
0
0
0
0
0
3
3
2
2
0
0
0
0
0
0
0
0
0
0
0
0
0
0
0
0
0
0
0
0
0
0
0
0
3
3
2
2
0
0
0
0
0
0
0
0
0
0
0
0
0
0
0
0
0
0
0
0
0
0
0
0
3
3
2
2
0
0
0
0
0
0
0
0
0
0
0
0
0
0
0
0
0
0
0
0
0
0
0
0
3
3
2
2
0
0
0
0
0
0
0
0
0
0
0
0
0
0
0
0
0
0
0
0
0
0
0
0
3
3
2
2
0
0
0
0
0
0
0
0
0
0
0
0
0
0
0
0
0
0
0
0
0
0
0
0
3
3
2
2
0
0
0
0
0
0
0
0
0
0
0
0
0
0
0
0
0
0
0
0
0
0
0
0
3
3
2
2
0
0
0
0
0
0
0
0
0
0
0
0
0
0
0
0
0
0
0
0
0
0
0
0
3
3
2
2
0
0
0
0
0
0
0
0
0
0
0
0
0
0
0
0
0
0
0
0
0
0
0
0
3
3
2
2
0
0
0
0
0
0
0
0
0
0
0
0
0
0
0
0
0
0
0
0
0
0
0
0
3
3
2
2
0
0
0
0
0
0
0
0
0
0
0
0
0
0
0
0
0
0
0
0
0
0
0
0
3
3
2
2
0
0
0
0
0
0
0
0
0
0
0
0
0
0
0
0
0
0
0
0
0
0
0
0
3
3
2
2
0
0
0
0
0
0
0
0
0
0
0
0
0
0
0
0
0
0
0
0
0
0
0
0
3
3
2
2
0
0
0
0
0
0
0
0
0
0
0
0
0
0
0
0
0
0
0
0
0
0
0
0
3
3
2
2
0
0
0
0
0
0
0
0
0
0
0
0
0
0
0
0
0
0
0
0
0
0
0
0
3
3
2
2
0
0
0
0
0
0
0
0
0
0
0
0
0
0
0
0
0
0
0
0
0
0
0
0
3
3
2
2
0
0
0
0
0
0
0
0
0
0
0
0
0
0
0
0
0
0
0
0
0
0
0
0
3
3
2
2
0
0
0
0
0
0
0
0
0
0
0
0
0
0
0
0
0
0
0
0
0
0
0
0
3
3
2
2
0
0
0
0
0
0
0
0
0
0
0
0
0
0
0
0
0
0
0
0
0
0
0
0
3
3
2
2
0
0
0
0
0
0
0
0
0
0
0
0
0
0
0
0
0
0
0
0
0
0
0
0
3
3
2
2
0
0
0
0
0
0
0
0
0
0
0
0
0
0
0
0
0
0
0
0
0
0
0
0
3
3
2
2
0
0
0
0
0
0
0
0
0
0
0
0
0
0
0
0
0
0
0
0
0
0
0
0
3
3
2
2
0
0
0
0
0
0
0
0
0
0
0
0
0
0
0
0
0
0
0
0
0
0
0
0
3
3
2
2
0
0
0
0
0
0
0
0
0
0
0
0
0
0
0
0
0
0
0
0
0
0
0
0
3
3
2
2
0
0
0
0
0
0
0
0
0
0
0
0
0
0
0
0
0
0
0
0
0
0
0
0
3
3
2
2
0
0
0
0
0
0
0
0
0
0
0
0
0
0
0
0
0
0
0
0
0
0
0
0
3
3
2
2
0
0
0
0
0
0
0
0
0
0
0
0
0
0
0
0
0
0
0
0
0
0
0
0
3
3
2
2
0
0
0
0
0
0
0
0
0
0
0
0
0
0
0
0
0
0
0
0
0
0
0
0
3
3
2
2
0
0
0
0
0
0
0
0
0
0
0
0
0
0
0
0
0
0
0
0
0
0
0
0
3
3
2
2
2
2
2
2
2
2
2
2
2
2
2
2
2
2
2
2
2
2
2
2
2
2
2
2
3
3
2
2
2
2
2
2
2
2
2
2
2
2
2
2
2
2
2
2
2
2
2
2
2
2
2
2
3
3
3
3
3
3
3
3
3
3
3
3
3
3
3
3
3
3
3
3
3
3
3
3
3
3
3
3
3
3
3
3
3
3
3
3
3
3
3
3
3
3
3
3
3
3
3
3
3
3
3
3
3
3
3
3
</DataArray>
<DataArray NumberOfComponents='1' type='Float32' Name='Velocity' format='ascii'>
0.000000
0.000000
0.000000
0.000000
0.000000
0.000000
0.000000
0.000000
0.000000
0.000000
0.000000
0.000000
0.000000
0.000000
0.000000
0.000000
0.000000
0.000000
0.000000
0.000000
0.000000
0.000000
0.000000
0.000000
0.000000
0.000000
0.000000
0.000000
0.000000
0.000000
0.000000
0.000000
0.000000
0.000000
0.000000
0.000000
0.000000
0.000000
0.000000
0.000000
0.000000
0.000000
0.000000
0.000000
0.000000
0.000000
0.000000
0.000000
0.000000
0.000000
0.000000
0.000000
0.000000
0.000000
0.000000
0.000000
0.000000
0.000000
0.000000
0.000000
0.000000
0.000000
0.000000
0.000000
0.000000
0.000000
0.000000
0.000000
0.000000
0.000000
0.000000
0.000000
0.000000
0.000000
0.000000
0.000000
0.000000
0.000000
0.000000
0.000000
0.000000
0.000000
0.000000
0.000000
0.000000
0.000000
0.000000
0.000000
0.000000
0.000000
0.000000
0.000000
0.000000
0.000000
0.000000
0.000000
0.000000
0.000000
0.000000
0.000000
0.000000
0.000000
0.000000
0.000000
0.000000
0.000000
0.000000
0.000000
0.000000
0.000000
0.000000
0.000000
0.000000
0.000000
0.000000
0.000000
0.047562
0.136944
0.109483
0.145507
0.217411
0.234661
0.026241
0.154824
0.150411
0.170843
0.178994
0.236300
0.168103
0.204770
0.106342
0.205017
0.135263
0.094587
0.067304
0.253025
0.100000
0.100000
0.100000
0.100000
0.000000
0.000000
0.000000
0.000000
0.083867
0.097332
0.068594
0.133799
0.162991
0.249680
0.282276
0.070862
0.155706
0.124215
0.159600
0.110345
0.210269
0.187890
0.173815
0.300665
0.177334
0.165512
0.246132
0.119840
0.312513
0.100000
0.100000
0.100000
0.000000
0.000000
0.000000
0.000000
0.089416
0.056962
0.113675
0.178888
0.161883
0.162151
0.146848
0.202148
0.125915
0.098092
0.092065
0.023571
0.042973
0.042483
0.142343
0.018695
0.301431
0.364044
0.182801
0.091933
0.368586
0.100000
0.100000
0.100000
0.000000
0.000000
0.000000
0.000000
0.079556
0.075531
0.308783
0.252910
0.055688
0.143072
0.057591
0.161718
0.069970
0.052974
0.011536
0.087499
0.115090
0.227572
0.142183
0.051488
0.157856
0.050505
0.298190
0.237333
0.146803
0.100000
0.100000
0.100000
0.000000
0.000000
0.000000
0.000000
0.089081
0.184602
0.049649
0.314087
0.110050
0.107307
0.079919
0.070811
0.126031
0.097708
0.191920
0.033291
0.099236
0.080428
0.119739
0.106418
0.136735
0.061431
0.026524
0.097910
0.177112
0.190420
0.100000
0.100000
0.000000
0.000000
0.000000
0.000000
0.090187
0.169709
0.051241
0.063334
0.094498
0.155487
0.052554
0.161385
0.090512
0.135932
0.066985
0.234529
0.114637
0.119143
0.067318
0.116469
0.137217
0.131911
0.173104
0.057693
0.152622
0.140805
0.100000
0.100000
0.000000
0.000000
0.000000
0.000000
0.036508
0.136380
0.109517
0.019355
0.068303
0.026980
0.090539
0.152523
0.047236
0.089012
0.107744
0.064208
0.024058
0.051954
0.060066
0.106398
0.073903
0.031226
0.324185
0.103566
0.114129
0.171122
0.100000
0.100000
0.000000
0.000000
0.000000
0.000000
0.063319
0.108362
0.085010
0.032984
0.081536
0.165809
0.048255
0.140380
0.145085
0.079996
0.119077
0.022182
0.028641
0.079496
0.233185
0.069186
0.141134
0.167547
0.088824
0.130075
0.173063
0.034099
0.100000
0.100000
0.000000
0.000000
0.000000
0.000000
0.079283
0.113615
0.097698
0.080186
0.185236
0.013149
0.141546
0.134168
0.044848
0.105820
0.049514
0.140348
0.078626
0.102442
0.009405
0.244672
0.138331
0.165151
0.130805
0.058099
0.088130
0.221915
0.100000
0.100000
0.000000
0.000000
0.000000
0.000000
0.049247
0.146587
0.048422
0.029686
0.075110
0.059243
0.010191
0.149635
0.090782
0.119480
0.046773
0.070863
0.098245
0.079350
0.051212
0.095245
0.073140
0.102123
0.146495
0.352114
0.082605
0.112349
0.100000
0.100000
0.000000
0.000000
0.000000
0.000000
0.019373
0.125473
0.110252
0.066207
0.068513
0.019990
0.092441
0.099906
0.132552
0.063655
0.141851
0.088594
0.021808
0.053458
0.109043
0.143930
0.079373
0.099661
0.148091
0.021557
0.223874
0.090835
0.100000
0.100000
0.000000
0.000000
0.000000
0.000000
0.013946
0.175093
0.107960
0.036409
0.029135
0.110649
0.078593
0.125905
0.058484
0.087923
0.091517
0.151565
0.058866
0.064615
0.123008
0.111956
0.181434
0.329482
0.066797
0.209322
0.135292
0.035651
0.100000
0.100000
0.000000
0.000000
0.000000
0.000000
0.027418
0.138068
0.075101
0.088541
0.131246
0.014605
0.062866
0.155829
0.204459
0.058332
0.147699
0.111695
0.053043
0.128844
0.101862
0.038279
0.187470
0.078282
0.308154
0.079944
0.096572
0.275762
0.100000
0.100000
0.000000
0.000000
0.000000
0.000000
0.021490
0.116886
0.113035
0.075316
0.034162
0.045373
0.074772
0.090195
0.152813
0.045556
0.134887
0.250154
0.127386
0.083351
0.102391
0.164474
0.083329
0.197884
0.225013
0.088169
0.135785
0.223076
0.100000
0.100000
0.000000
0.000000
0.000000
0.000000
0.057311
0.074993
0.140339
0.112935
0.039944
0.039866
0.053769
0.121903
0.077631
0.023800
0.115971
0.196000
0.024175
0.164642
0.123073
0.069602
0.123160
0.116540
0.298981
0.270647
0.059277
0.055118
0.100000
0.100000
0.000000
0.000000
0.000000
0.000000
0.027495
0.184821
0.050051
0.125511
0.028350
0.087107
0.074484
0.107002
0.043290
0.109057
0.159755
0.113001
0.016661
0.121315
0.125530
0.162778
0.025472
0.148010
0.219236
0.270793
0.176594
0.093035
0.100000
0.100000
0.000000
0.000000
0.000000
0.000000
0.060126
0.046035
0.163527
0.110222
0.010993
0.109959
0.059842
0.015999
0.118845
0.066200
0.135058
0.055777
0.060944
0.100650
0.267782
0.042453
0.204517
0.249794
0.050008
0.052603
0.482267
0.147954
0.100000
0.100000
0.000000
0.000000
0.000000
0.000000
0.057743
0.118564
0.154150
0.095406
0.032557
0.048963
0.104018
0.102211
0.056971
0.089927
0.071854
0.041096
0.034743
0.101183
0.163564
0.170738
0.275863
0.123914
0.280365
0.488248
0.133251
0.232858
0.100000
0.100000
0.000000
0.000000
0.000000
0.000000
0.031763
0.088758
0.103139
0.129070
0.010630
0.092946
0.031250
0.054278
0.018747
0.135117
0.061676
0.039589
0.036354
0.108779
0.186735
0.103292
0.081826
0.136790
0.272134
0.212471
0.147411
0.139033
0.100000
0.100000
0.000000
0.000000
0.000000
0.000000
0.026400
0.111819
0.131997
0.135786
0.015438
0.045259
0.150600
0.068072
0.041587
0.055653
0.027222
0.068560
0.067739
0.041713
0.012772
0.214050
0.043295
0.032999
0.141656
0.302067
0.220702
0.255912
0.100000
0.100000
0.000000
0.000000
0.000000
0.000000
0.028702
0.070382
0.151789
0.104594
0.054300
0.104223
0.069320
0.088714
0.095567
0.052402
0.152674
0.065368
0.017837
0.129170
0.103585
0.047225
0.061763
0.113560
0.320046
0.201346
0.217105
0.117496
0.100000
0.100000
0.000000
0.000000
0.000000
0.000000
0.027685
0.114130
0.041712
0.147511
0.084118
0.043682
0.142449
0.104978
0.024467
0.056499
0.124539
0.057075
0.077744
0.039482
0.144113
0.237421
0.057224
0.181135
0.185777
0.108394
0.170211
0.063742
0.100000
0.100000
0.000000
0.000000
0.000000
0.000000
0.011580
0.116956
0.104123
0.173339
0.017665
0.069900
0.135442
0.086990
0.043907
0.033615
0.058456
0.136181
0.092660
0.174578
0.097876
0.064507
0.117679
0.122714
0.224309
0.023148
0.112618
0.176964
0.100000
0.100000
0.000000
0.000000
0.000000
0.000000
0.058202
0.112762
0.087858
0.111069
0.058479
0.086826
0.211786
0.104723
0.115509
0.174640
0.153896
0.212500
0.051526
0.041883
0.257283
0.247733
0.199118
0.098580
0.070432
0.152102
0.221379
0.182248
0.100000
0.100000
0.000000
0.000000
0.000000
0.000000
0.044201
0.140658
0.077904
0.208458
0.092701
0.117824
0.117146
0.019244
0.047461
0.084423
0.109441
0.097451
0.198801
0.065649
0.113176
0.037150
0.201400
0.076991
0.098302
0.252642
0.105981
0.423105
0.100000
0.100000
0.000000
0.000000
0.000000
0.000000
0.014257
0.186509
0.115422
0.109160
0.115527
0.129041
0.107810
0.078719
0.103739
0.143807
0.049762
0.056853
0.336483
0.103404
0.238991
0.106467
0.072678
0.057867
0.054942
0.166258
0.125087
0.400735
0.100000
0.100000
0.000000
0.000000
0.000000
0.000000
0.038501
0.159949
0.035765
0.215453
0.058532
0.034780
0.079511
0.125499
0.097887
0.152461
0.094047
0.058262
0.244402
0.162376
0.171487
0.220494
0.325736
0.395144
0.242827
0.310049
0.321216
0.218700
0.100000
0.100000
0.000000
0.000000
0.000000
0.000000
0.043100
0.054548
0.051151
0.072592
0.196406
0.155158
0.099055
0.144148
0.225924
0.056397
0.136928
0.197371
0.113070
0.111675
0.151489
0.150669
0.107463
0.325039
0.096109
0.266040
0.332806
0.159991
0.100000
0.100000
0.000000
0.000000
0.000000
0.000000
0.117050
0.075621
0.106764
0.133457
0.151340
0.092694
0.032284
0.063870
0.127631
0.113364
0.118848
0.160675
0.224590
0.092826
0.071693
0.190754
0.114147
0.251073
0.280757
0.301352
0.299584
0.170725
0.100000
0.100000
0.000000
0.000000
0.000000
0.000000
0.052935
0.036405
0.183014
0.075763
0.065967
0.078588
0.072377
0.127005
0.061990
0.089704
0.088637
0.188376
0.255939
0.049615
0.159694
0.096883
0.061494
0.229362
0.271671
0.281622
0.079895
0.184096
0.100000
0.100000
0.000000
0.000000
0.000000
0.000000
0.034762
0.105073
0.052222
0.011483
0.132203
0.173613
0.161749
0.250069
0.168545
0.193271
0.151779
0.061912
0.099963
0.159414
0.069940
0.210993
0.159270
0.034144
0.236783
0.302893
0.169320
0.113826
0.100000
0.100000
0.000000
0.000000
0.000000
0.000000
0.064411
0.003814
0.075624
0.101810
0.146308
0.148086
0.089775
0.137591
0.130508
0.125612
0.081770
0.072581
0.164358
0.081642
0.291887
0.300428
0.235398
0.264414
0.012747
0.274625
0.168718
0.092504
0.100000
0.100000
0.000000
0.000000
0.000000
0.000000
0.007154
0.135770
0.052845
0.049901
0.111245
0.081769
0.149358
0.112188
0.143780
0.172209
0.144028
0.117357
0.143126
0.203332
0.213901
0.327180
0.238199
0.163859
0.500001
0.251639
0.301167
0.384463
0.100000
0.100000
0.000000
0.000000
0.000000
0.000000
0.014085
0.037082
0.058453
0.121968
0.184237
0.184922
0.086656
0.206909
0.326427
0.137156
0.175799
0.181283
0.076535
0.132912
0.185203
0.250315
0.038061
0.179007
0.302261
0.236392
0.298999
0.249681
0.415014
0.100000
0.000000
0.000000
0.000000
0.000000
0.053466
0.145338
0.151616
0.086949
0.104206
0.258087
0.434051
0.181334
0.233730
0.049819
0.136328
0.304566
0.147410
0.174605
0.212929
0.087244
0.075744
0.135230
0.253681
0.091593
0.188129
0.362976
0.350462
0.100000
0.000000
0.000000
0.000000
0.000000
0.064589
0.101160
0.192368
0.258335
0.265782
0.059109
0.234071
0.097146
0.045773
0.126063
0.097964
0.139909
0.212873
0.159786
0.162275
0.013977
0.182502
0.034393
0.054331
0.139367
0.178757
0.191931
0.192608
0.100000
0.000000
0.000000
0.000000
0.000000
0.150495
0.145418
0.047756
0.206004
0.032255
0.168758
0.015740
0.152133
0.254325
0.195287
0.175393
0.128268
0.089377
0.131200
0.189008
0.235560
0.132444
0.280283
0.179225
0.152249
0.220886
0.040515
0.204553
0.100000
0.000000
0.000000
0.000000
0.000000
0.071698
0.076473
0.094891
0.260539
0.144741
0.345476
0.269232
0.116621
0.101418
0.054909
0.115571
0.283392
0.039238
0.195920
0.107148
0.164675
0.464215
0.110658
0.167706
0.220193
0.099949
0.142318
0.270759
0.100000
0.000000
0.000000
0.000000
0.000000
0.105561
0.071470
0.014652
0.003518
0.324550
0.097299
0.041380
0.176569
0.088756
0.174691
0.083126
0.197114
0.110016
0.142678
0.236765
0.087375
0.330646
0.108406
0.125481
0.308217
0.202281
0.128756
0.174024
0.100000
0.000000
0.000000
0.000000
0.000000
0.068086
0.038684
0.139069
0.325631
0.135782
0.162656
0.212862
0.140004
0.083144
0.058654
0.166537
0.161152
0.078366
0.143155
0.132880
0.154797
0.248059
0.130297
0.067247
0.123331
0.029352
0.174900
0.032406
0.100000
0.000000
0.000000
0.000000
0.000000
0.000000
0.000000
0.000000
0.000000
0.000000
0.000000
0.000000
0.000000
0.000000
0.000000
0.000000
0.000000
0.000000
0.000000
0.000000
0.000000
0.000000
0.000000
0.000000
0.000000
0.000000
0.000000
0.000000
0.000000
0.000000
0.000000
0.000000
0.000000
0.000000
0.000000
0.000000
0.000000
0.000000
0.000000
0.000000
0.000000
0.000000
0.000000
0.000000
0.000000
0.000000
0.000000
0.000000
0.000000
0.000000
0.000000
0.000000
0.000000
0.000000
0.000000
0.000000
0.000000
0.000000
0.000000
0.000000
0.000000
0.000000
0.000000
0.000000
0.000000
0.000000
0.000000
0.000000
0.000000
0.000000
0.000000
0.000000
0.000000
0.000000
0.000000
0.000000
0.000000
0.000000
0.000000
0.000000
0.000000
0.000000
0.000000
0.000000
0.000000
0.000000
0.000000
0.000000
0.000000
0.000000
0.000000
0.000000
0.000000
0.000000
0.000000
0.000000
0.000000
0.000000
0.000000
0.000000
0.000000
0.000000
0.000000
0.000000
0.000000
0.000000
0.000000
0.000000
0.000000
0.000000
0.000000
0.000000
0.000000
</DataArray>
<DataArray NumberOfComponents='1' type='Float32' Name='pressure' format='ascii'>
0.000000
0.000000
0.000000
0.000000
0.000000
0.000000
0.000000
0.000000
0.000000
0.000000
0.000000
0.000000
0.000000
0.000000
0.000000
0.000000
0.000000
0.000000
0.000000
0.000000
0.000000
0.000000
0.000000
0.000000
0.000000
0.000000
0.000000
0.000000
0.000000
0.000000
0.000000
0.000000
0.000000
0.000000
0.000000
0.000000
0.000000
0.000000
0.000000
0.000000
0.000000
0.000000
0.000000
0.000000
0.000000
0.000000
0.000000
0.000000
0.000000
0.000000
0.000000
0.000000
0.000000
0.000000
0.000000
0.000000
0.000000
0.000000
21206.816406
21336.923828
21878.062500
21776.726562
21467.740234
21231.910156
20166.964844
19463.158203
19138.519531
18880.664062
19340.693359
19187.656250
18568.753906
17484.033203
17934.462891
17178.265625
18117.923828
17425.621094
17156.638672
16595.019531
16886.328125
16457.527344
16656.929688
14428.955078
11050.342773
0.000000
0.000000
0.000000
21130.037109
21088.128906
21717.388672
21097.871094
20974.048828
20857.939453
20252.318359
19112.005859
19737.019531
19480.638672
20176.537109
18937.009766
18836.312500
17596.675781
18242.902344
17705.283203
18138.449219
17011.189453
16617.755859
16711.683594
16859.228516
15963.880859
17170.162109
15458.006836
15801.048828
0.000000
0.000000
0.000000
20588.705078
20788.689453
21209.931641
21145.707031
20679.673828
20054.052734
19611.546875
20385.210938
18829.605469
18857.529297
18279.869141
18140.308594
18150.279297
17999.781250
17835.828125
17821.431641
17202.267578
17738.027344
16809.179688
16720.416016
17062.421875
15905.750977
22190.494141
11673.888672
9636.834961
0.000000
0.000000
0.000000
21645.669922
22022.087891
21189.169922
21124.140625
20733.847656
19928.796875
20135.228516
19194.863281
19535.476562
19575.414062
18744.294922
18608.882812
18658.623047
17671.621094
18196.964844
16954.162109
18018.728516
16450.875000
17123.248047
16659.673828
16213.240234
17040.738281
16541.152344
11109.676758
19281.789062
11192.509766
0.000000
0.000000
21645.328125
21864.304688
21125.806641
21345.537109
20003.195312
20274.611328
19590.861328
19923.402344
18836.150391
19353.601562
18395.740234
18524.406250
18140.187500
17599.414062
18068.451172
17497.498047
17502.814453
17412.058594
16649.705078
16913.275391
15933.269531
16584.525391
15539.499023
11550.100586
12501.798828
14057.131836
0.000000
0.000000
21775.779297
21389.929688
20829.562500
20883.509766
20646.767578
20520.099609
20966.468750
19754.240234
20082.328125
18926.535156
19026.369141
18594.451172
18109.015625
18314.804688
18267.078125
16932.158203
18080.779297
16475.761719
16985.113281
16856.367188
16449.103516
17040.201172
16090.862305
18210.511719
22607.339844
11820.296875
0.000000
0.000000
22177.351562
21729.603516
21172.484375
20588.791016
20880.468750
20293.912109
20162.757812
18908.851562
19830.466797
18999.074219
18971.271484
19111.738281
18328.277344
17665.478516
17914.775391
17392.470703
17303.669922
16951.089844
17241.843750
15828.802734
15560.195312
15073.921875
17018.375000
16329.468750
23616.255859
0.000000
0.000000
0.000000
21602.935547
21492.367188
21350.832031
21155.421875
21040.251953
20224.253906
20420.542969
20005.695312
19770.125000
19348.181641
19092.423828
18722.263672
18589.351562
18330.378906
17947.542969
17835.027344
17082.808594
16438.656250
16927.218750
16330.738281
16615.605469
16773.455078
16595.703125
16065.685547
19363.238281
0.000000
0.000000
0.000000
21844.929688
21340.195312
21368.529297
21115.453125
20680.185547
20378.568359
20298.425781
19822.773438
19774.498047
19562.810547
19536.527344
18991.886719
18694.011719
18227.519531
18422.005859
17564.392578
17719.554688
17368.816406
17373.011719
17143.691406
15867.637695
16118.261719
15880.212891
16031.750000
16015.465820
0.000000
0.000000
0.000000
21908.148438
21984.521484
21604.732422
21355.746094
20647.515625
21200.472656
19759.250000
20208.203125
19772.958984
19341.166016
18885.294922
19064.083984
18448.890625
17975.269531
17877.642578
17609.914062
16915.449219
16526.142578
16196.388672
16044.863281
15677.768555
15220.960938
15015.655273
16660.371094
15608.789062
0.000000
0.000000
0.000000
21776.912109
22339.699219
21102.900391
21638.126953
21262.773438
20484.121094
20505.226562
20793.080078
19969.496094
19711.992188
19898.333984
19080.212891
18503.281250
18812.369141
17819.171875
17558.673828
17278.937500
16866.341797
16676.156250
16216.600586
15492.866211
15795.054688
14815.739258
14149.431641
17459.564453
8149.249023
0.000000
0.000000
22056.671875
21798.476562
21773.285156
21350.958984
20857.666016
21092.912109
20285.929688
20228.287109
19922.306641
19495.462891
18905.988281
18694.476562
18501.724609
18055.908203
17643.683594
17115.998047
16802.277344
16178.826172
15712.342773
15972.261719
15439.126953
14035.724609
14886.358398
12518.817383
21779.134766
10348.587891
0.000000
0.000000
21731.224609
22735.753906
21551.214844
21757.111328
21455.351562
21157.968750
20929.943359
20636.113281
19960.593750
20164.250000
19437.896484
19563.613281
19051.957031