<?xml version='1.0' encoding='UTF-8'?>
<VTKFile xmlns='VTK' byte_order='LittleEndian' version='0.1' type='UnstructuredGrid'>
<UnstructuredGrid>
<Piece NumberOfCells='1344' NumberOfPoints='1344'>
<Points>
<DataArray NumberOfComponents='3' type='Float32' Name='Position' format='ascii'>
-0.075000 -0.075000 0.000000
-0.075000 -0.050000 0.000000
-0.075000 -0.025000 0.000000
-0.075000 0.000000 0.000000
-0.075000 0.025000 0.000000
-0.075000 0.050000 0.000000
-0.075000 0.075000 0.000000
-0.075000 0.100000 0.000000
-0.075000 0.125000 0.000000
-0.075000 0.150000 0.000000
-0.075000 0.175000 0.000000
-0.075000 0.200000 0.000000
-0.075000 0.225000 0.000000
-0.075000 0.250000 0.000000
-0.075000 0.275000 0.000000
-0.075000 0.300000 0.000000
-0.075000 0.325000 0.000000
-0.075000 0.350000 0.000000
-0.075000 0.375000 0.000000
-0.075000 0.400000 0.000000
-0.075000 0.425000 0.000000
-0.075000 0.450000 0.000000
-0.075000 0.475000 0.000000
-0.075000 0.500000 0.000000
-0.075000 0.525000 0.000000
-0.075000 0.550000 0.000000
-0.075000 0.575000 0.000000
-0.075000 0.600000 0.000000
-0.050000 -0.075000 0.000000
-0.050000 -0.050000 0.000000
-0.050000 -0.025000 0.000000
-0.050000 0.000000 0.000000
-0.050000 0.025000 0.000000
-0.050000 0.050000 0.000000
-0.050000 0.075000 0.000000
-0.050000 0.100000 0.000000
-0.050000 0.125000 0.000000
-0.050000 0.150000 0.000000
-0.050000 0.175000 0.000000
-0.050000 0.200000 0.000000
-0.050000 0.225000 0.000000
-0.050000 0.250000 0.000000
-0.050000 0.275000 0.000000
-0.050000 0.300000 0.000000
-0.050000 0.325000 0.000000
-0.050000 0.350000 0.000000
-0.050000 0.375000 0.000000
-0.050000 0.400000 0.000000
-0.050000 0.425000 0.000000
-0.050000 0.450000 0.000000
-0.050000 0.475000 0.000000
-0.050000 0.500000 0.000000
-0.050000 0.525000 0.000000
-0.050000 0.550000 0.000000
-0.050000 0.575000 0.000000
-0.050000 0.600000 0.000000
-0.025000 -0.075000 0.000000
-0.025000 -0.050000 0.000000
-0.025000 -0.025000 0.000000
-0.025000 0.000000 0.000000
-0.025000 0.025000 0.000000
-0.025000 0.050000 0.000000
-0.025000 0.075000 0.000000
-0.025000 0.100000 0.000000
-0.025000 0.125000 0.000000
-0.025000 0.150000 0.000000
-0.025000 0.175000 0.000000
-0.025000 0.200000 0.000000
-0.025000 0.225000 0.000000
-0.025000 0.250000 0.000000
-0.025000 0.275000 0.000000
-0.025000 0.300000 0.000000
-0.025000 0.325000 0.000000
-0.025000 0.350000 0.000000
-0.025000 0.375000 0.000000
-0.025000 0.400000 0.000000
-0.025000 0.425000 0.000000
-0.025000 0.450000 0.000000
-0.025000 0.475000 0.000000
-0.025000 0.500000 0.000000
-0.025000 0.525000 0.000000
-0.025000 0.550000 0.000000
-0.025000 0.575000 0.000000
-0.025000 0.600000 0.000000
0.000000 -0.075000 0.000000
0.000000 -0.050000 0.000000
0.000000 -0.025000 0.000000
0.000000 0.000000 0.000000
0.000000 0.025000 0.000000
0.000000 0.050000 0.000000
0.000000 0.075000 0.000000
0.000000 0.100000 0.000000
0.000000 0.125000 0.000000
0.000000 0.150000 0.000000
0.000000 0.175000 0.000000
0.000000 0.200000 0.000000
0.000000 0.225000 0.000000
0.000000 0.250000 0.000000
0.000000 0.275000 0.000000
0.000000 0.300000 0.000000
0.000000 0.325000 0.000000
0.000000 0.350000 0.000000
0.000000 0.375000 0.000000
0.000000 0.400000 0.000000
0.000000 0.425000 0.000000
0.000000 0.450000 0.000000
0.000000 0.475000 0.000000
0.000000 0.500000 0.000000
0.000000 0.525000 0.000000
0.000000 0.550000 0.000000
0.000000 0.575000 0.000000
0.000000 0.600000 0.000000
0.025000 -0.075000 0.000000
0.025000 -0.050000 0.000000
0.025000 -0.025000 0.000000
0.025000 0.000000 0.000000
0.023871 0.026406 0.000000
0.025124 0.052625 0.000000
0.024644 0.076484 0.000000
0.023901 0.104746 0.000000
0.024524 0.131167 0.000000
0.024202 0.157263 0.000000
0.024442 0.184308 0.000000
0.024274 0.209945 0.000000
0.024578 0.237163 0.000000
0.024537 0.262712 0.000000
0.024463 0.289004 0.000000
0.024915 0.315148 0.000000
0.024600 0.340418 0.000000
0.025179 0.366757 0.000000
0.024727 0.391281 0.000000
0.025196 0.417469 0.000000
0.024733 0.442054 0.000000
0.025253 0.468149 0.000000
0.023896 0.493127 0.000000
0.024394 0.521327 0.000000
0.028348 0.545946 0.000000
0.020068 0.570538 0.000000
0.062269 0.577700 0.000000
0.062774 0.600000 0.000000
0.050000 -0.075000 0.000000
0.050000 -0.050000 0.000000
0.050000 -0.025000 0.000000
0.050000 0.000000 0.000000
0.047438 0.024168 0.000000
0.051111 0.050181 0.000000
0.048865 0.073269 0.000000
0.046841 0.099915 0.000000
0.049230 0.123272 0.000000
0.048224 0.148600 0.000000
0.048062 0.172842 0.000000
0.049101 0.198164 0.000000
0.047616 0.222520 0.000000
0.048766 0.248024 0.000000
0.048759 0.272828 0.000000
0.048023 0.298224 0.000000
0.049303 0.323442 0.000000
0.048079 0.349347 0.000000
0.049719 0.374085 0.000000
0.048457 0.401358 0.000000
0.049639 0.425679 0.000000
0.047962 0.453904 0.000000
0.050227 0.477996 0.000000
0.046211 0.504018 0.000000
0.048764 0.528228 0.000000
0.039932 0.575479 0.000000
0.087657 0.576989 0.000000
0.087868 0.600000 0.000000
0.075000 -0.075000 0.000000
0.075000 -0.050000 0.000000
0.075000 -0.025000 0.000000
0.075000 0.000000 0.000000
0.072062 0.026541 0.000000
0.076162 0.052826 0.000000
0.074088 0.077272 0.000000
0.072755 0.103460 0.000000
0.074133 0.129273 0.000000
0.073899 0.154704 0.000000
0.073503 0.180292 0.000000
0.074266 0.205458 0.000000
0.073379 0.230800 0.000000
0.074374 0.255438 0.000000
0.073878 0.280318 0.000000
0.073883 0.304852 0.000000
0.074190 0.328899 0.000000
0.074223 0.353455 0.000000
0.073784 0.377562 0.000000
0.073626 0.402577 0.000000
0.073280 0.427332 0.000000
0.073117 0.453128 0.000000
0.074893 0.476990 0.000000
0.072653 0.503104 0.000000
0.073836 0.527261 0.000000
0.054337 0.556114 0.000000
0.112945 0.576852 0.000000
0.113009 0.600000 0.000000
0.100000 -0.075000 0.000000
0.100000 -0.050000 0.000000
0.100000 -0.025000 0.000000
0.100000 0.000000 0.000000
0.094714 0.024543 0.000000
0.101962 0.050225 0.000000
0.097841 0.073697 0.000000
0.095927 0.100116 0.000000
0.098712 0.123986 0.000000
0.097886 0.149125 0.000000
0.097867 0.173716 0.000000
0.098824 0.198640 0.000000
0.097982 0.223229 0.000000
0.099188 0.248034 0.000000
0.098862 0.273014 0.000000
0.099486 0.297814 0.000000
0.099736 0.322688 0.000000
0.099449 0.348069 0.000000
0.099469 0.373003 0.000000
0.098618 0.399223 0.000000
0.098902 0.423584 0.000000
0.097590 0.449488 0.000000
0.101343 0.474709 0.000000
0.095603 0.498627 0.000000
0.099439 0.529509 0.000000
0.081608 0.549287 0.000000
0.137888 0.576912 0.000000
0.137957 0.600000 0.000000
0.125000 -0.075000 0.000000
0.125000 -0.050000 0.000000
0.125000 -0.025000 0.000000
0.125000 0.000000 0.000000
0.120381 0.025626 0.000000
0.126804 0.051837 0.000000
0.123804 0.076332 0.000000
0.122243 0.101681 0.000000
0.124250 0.126491 0.000000
0.123529 0.152051 0.000000
0.123889 0.176628 0.000000
0.124275 0.201689 0.000000
0.123958 0.226504 0.000000
0.124460 0.251007 0.000000
0.124347 0.275862 0.000000
0.124099 0.300805 0.000000
0.124626 0.325365 0.000000
0.123490 0.351143 0.000000
0.123774 0.375862 0.000000
0.122744 0.401374 0.000000
0.123213 0.426473 0.000000
0.121690 0.451826 0.000000
0.126495 0.477558 0.000000
0.118412 0.503144 0.000000
0.125049 0.528569 0.000000
0.106218 0.551470 0.000000
0.162948 0.576774 0.000000
0.162995 0.600000 0.000000
0.150000 -0.075000 0.000000
0.150000 -0.050000 0.000000
0.150000 -0.025000 0.000000
0.150000 0.000000 0.000000
0.143080 0.024910 0.000000
0.152373 0.050484 0.000000
0.147688 0.074053 0.000000
0.145953 0.100314 0.000000
0.148676 0.124249 0.000000
0.147852 0.149542 0.000000
0.148155 0.174366 0.000000
0.148985 0.199345 0.000000
0.148544 0.224191 0.000000
0.149630 0.249283 0.000000
0.149012 0.274243 0.000000
0.149902 0.299174 0.000000
0.149124 0.324463 0.000000
0.149331 0.349205 0.000000
0.148514 0.374132 0.000000
0.148262 0.399322 0.000000
0.148643 0.423469 0.000000
0.145594 0.448832 0.000000
0.151937 0.473941 0.000000
0.142034 0.499781 0.000000
0.150764 0.526590 0.000000
0.134108 0.550966 0.000000
0.187813 0.576813 0.000000
0.187946 0.600000 0.000000
0.175000 -0.075000 0.000000
0.175000 -0.050000 0.000000
0.175000 -0.025000 0.000000
0.175000 0.000000 0.000000
0.169008 0.025254 0.000000
0.177260 0.050935 0.000000
0.174086 0.075583 0.000000
0.172067 0.100137 0.000000
0.174738 0.124599 0.000000
0.173220 0.149717 0.000000
0.174253 0.174205 0.000000
0.174233 0.199053 0.000000
0.174055 0.224096 0.000000
0.174623 0.248615 0.000000
0.174067 0.274018 0.000000
0.174338 0.298921 0.000000
0.174203 0.324038 0.000000
0.173695 0.349873 0.000000
0.173826 0.374587 0.000000
0.172922 0.400347 0.000000
0.173932 0.425306 0.000000
0.170234 0.450062 0.000000
0.176544 0.476755 0.000000
0.165817 0.499875 0.000000
0.174065 0.529297 0.000000
0.158105 0.550464 0.000000
0.213024 0.576733 0.000000
0.213010 0.600000 0.000000
0.200000 -0.075000 0.000000
0.200000 -0.050000 0.000000
0.200000 -0.025000 0.000000
0.200000 0.000000 0.000000
0.192310 0.025078 0.000000
0.202788 0.050536 0.000000
0.198285 0.074276 0.000000
0.196448 0.100390 0.000000
0.199646 0.124535 0.000000
0.197847 0.149593 0.000000
0.199022 0.174746 0.000000
0.198938 0.199594 0.000000
0.199047 0.224824 0.000000
0.199400 0.249982 0.000000
0.199147 0.274977 0.000000
0.199299 0.300216 0.000000
0.198824 0.325414 0.000000
0.198644 0.350205 0.000000
0.198235 0.375581 0.000000
0.197715 0.400411 0.000000
0.198987 0.425402 0.000000
0.194177 0.450819 0.000000
0.202465 0.476102 0.000000
0.189430 0.502126 0.000000
0.202259 0.529117 0.000000
0.185707 0.550555 0.000000
0.237986 0.576804 0.000000
0.238002 0.600000 0.000000
0.225000 -0.075000 0.000000
0.225000 -0.050000 0.000000
0.225000 -0.025000 0.000000
0.225000 0.000000 0.000000
0.217887 0.024916 0.000000
0.227635 0.050304 0.000000
0.224365 0.075234 0.000000
0.222071 0.099530 0.000000
0.225160 0.124208 0.000000
0.223041 0.149370 0.000000
0.224463 0.173847 0.000000
0.223964 0.198916 0.000000
0.224017 0.223846 0.000000
0.224328 0.248544 0.000000
0.223764 0.274008 0.000000
0.224216 0.298666 0.000000
0.223630 0.323963 0.000000
0.223676 0.349345 0.000000
0.223528 0.373947 0.000000
[...]
<PointData>
<DataArray NumberOfComponents='1' type='Int32' Name='ParticleType' format='ascii'>
3
3
3
3
3
3
3
3
3
3
3
3
3
3
3
3
3
3
3
3
3
3
3
3
3
3
3
3
3
3
3
3
3
3
3
3
3
3
3
3
3
3
3
3
3
3
3
3
3
3
3
3
3
3
3
3
3
3
2
2
2
2
2
2
2
2
2
2
2
2
2
2
2
2
2
2
2
2
2
2
2
2
2
2
3
3
2
2
2
2
2
2
2
2
2
2
2
2
2
2
2
2
2
2
2
2
2
2
2
2
2
2
3
3
2
2
0
0
0
0
0
0
0
0
0
0
0
0
0
0
0
0
0
0
0
0
0
0
0
0
3
3
2
2
0
0
0
0
0
0
0
0
0
0
0
0
0
0
0
0
0
0
0
0
0
0
0
0
3
3
2
2
0
0
0
0
0
0
0
0
0
0
0
0
0
0
0
0
0
0
0
0
0
0
0
0
3
3
2
2
0
0
0
0
0
0
0
0
0
0
0
0
0
0
0
0
0
0
0
0
0
0
0
0
3
3
2
2
0
0
0
0
0
0
0
0
0
0
0
0
0
0
0
0
0
0
0
0
0
0
0
0
3
3
2
2
0
0
0
0
0
0
0
0
0
0
0
0
0
0
0
0
0
0
0
0
0
0
0
0
3
3
2
2
0
0
0
0
0
0
0
0
0
0
0
0
0
0
0
0
0
0
0
0
0
0
0
0
3
3
2
2
0
0
0
0
0
0
0
0
0
0
0
0
0
0
0
0
0
0
0
0
0
0
0
0
3
3
2
2
0
0
0
0
0
0
0
0
0
0
0
0
0
0
0
0
0
0
0
0
0
0
0
0
3
3
2
2
0
0
0
0
0
0
0
0
0
0
0
0
0
0
0
0
0
0
0
0
0
0
0
0
3
3
2
2
0
0
0
0
0
0
0
0
0
0
0
0
0
0
0
0
0
0
0
0
0
0
0
0
3
3
2
2
0
0
0
0
0
0
0
0
0
0
0
0
0
0
0
0
0
0
0
0
0
0
0
0
3
3
2
2
0
0
0
0
0
0
0
0
0
0
0
0
0
0
0
0
0
0
0
0
0
0
0
0
3
3
2
2
0
0
0
0
0
0
0
0
0
0
0
0
0
0
0
0
0
0
0
0
0
0
0
0
3
3
2
2
0
0
0
0
0
0
0
0
0
0
0
0
0
0
0
0
0
0
0
0
0
0
0
0
3
3
2
2
0
0
0
0
0
0
0
0
0
0
0
0
0
0
0
0
0
0
0
0
0
0
0
0
3
3
2
2
0
0
0
0
0
0
0
0
0
0
0
0
0
0
0
0
0
0
0
0
0
0
0
0
3
3
2
2
0
0
0
0
0
0
0
0
0
0
0
0
0
0
0
0
0
0
0
0
0
0
0
0
3
3
2
2
0
0
0
0
0
0
0
0
0
0
0
0
0
0
0
0
0
0
0
0
0
0
0
0
3
3
2
2
0
0
0
0
0
0
0
0
0
0
0
0
0
0
0
0
0
0
0
0
0
0
0
0
3
3
2
2
0
0
0
0
0
0
0
0
0
0
0
0
0
0
0
0
0
0
0
0
0
0
0
0
3
3
2
2
0
0
0
0
0
0
0
0
0
0
0
0
0
0
0
0
0
0
0
0
0
0
0
0
3
3
2
2
0
0
0
0
0
0
0
0
0
0
0
0
0
0
0
0
0
0
0
0
0
0
0
0
3
3
2
2
0
0
0
0
0
0
0
0
0
0
0
0
0
0
0
0
0
0
0
0
0
0
0
0
3
3
2
2
0
0
0
0
0
0
0
0
0
0
0
0
0
0
0
0
0
0
0
0
0
0
0
0
3
3
2
2
0
0
0
0
0
0
0
0
0
0
0
0
0
0
0
0
0
0
0
0
0
0
0
0
3
3
2
2
0
0
0
0
0
0
0
0
0
0
0
0
0
0
0
0
0
0
0
0
0
0
0
0
3
3
2
2
0
0
0
0
0
0
0
0
0
0
0
0
0
0
0
0
0
0
0
0
0
0
0
0
3
3
2
2
0
0
0
0
0
0
0
0
0
0
0
0
0
0
0
0
0
0
0
0
0
0
0
0
3
3
2
2
0
0
0
0
0
0
0
0
0
0
0
0
0
0
0
0
0
0
0
0
0
0
0
0
3
3
2
2
0
0
0
0
0
0
0
0
0
0
0
0
0
0
0
0
0
0
0
0
0
0
0
0
3
3
2
2
0
0
0
0
0
0
0
0
0
0
0
0
0
0
0
0
0
0
0
0
0
0
0
0
3
3
2
2
0
0
0
0
0
0
0
0
0
0
0
0
0
0
0
0
0
0
0
0
0
0
0
0
3
3
2
2
0
0
0
0
0
0
0
0
0
0
0
0
0
0
0
0
0
0
0
0
0
0
0
0
3
3
2
2
0
0
0
0
0
0
0
0
0
0
0
0
0
0
0
0
0
0
0
0
0
0
0
0
3
3
2
2
0
0
0
0
0
0
0
0
0
0
0
0
0
0
0
0
0
0
0
0
0
0
0
0
3
3
2
2
0
0
0
0
0
0
0
0
0
0
0
0
0
0
0
0
0
0
0
0
0
0
0
0
3
3
2
2
0
0
0
0
0
0
0
0
0
0
0
0
0
0
0
0
0
0
0
0
0
0
0
0
3
3
2
2
0
0
0
0
0
0
0
0
0
0
0
0
0
0
0
0
0
0
0
0
0
0
0
0
3
3
2
2
0
0
0
0
0
0
0
0
0
0
0
0
0
0
0
0
0
0
0
0
0
0
0
0
3
3
2
2
2
2
2
2
2
2
2
2
2
2
2
2
2
2
2
2
2
2
2
2
2
2
2
2
3
3
2
2
2
2
2
2
2
2
2
2
2
2
2
2
2
2
2
2
2
2
2
2
2
2
2
2
3
3
3
3
3
3
3
3
3
3
3
3
3
3
3
3
3
3
3
3
3
3
3
3
3
3
3
3
3
3
3
3
3
3
3
3
3
3
3
3
3
3
3
3
3
3
3
3
3
3
3
3
3
3
3
3
</DataArray>
<DataArray NumberOfComponents='1' type='Float32' Name='Velocity' format='ascii'>
0.000000
0.000000
0.000000
0.000000
0.000000
0.000000
0.000000
0.000000
0.000000
0.000000
0.000000
0.000000
0.000000
0.000000
0.000000
0.000000
0.000000
0.000000
0.000000
0.000000
0.000000
0.000000
0.000000
0.000000
0.000000
0.000000
0.000000
0.000000
0.000000
0.000000
0.000000
0.000000
0.000000
0.000000
0.000000
0.000000
0.000000
0.000000
0.000000
0.000000
0.000000
0.000000
0.000000
0.000000
0.000000
0.000000
0.000000
0.000000
0.000000
0.000000
0.000000
0.000000
0.000000
0.000000
0.000000
0.000000
0.000000
0.000000
0.000000
0.000000
0.000000
0.000000
0.000000
0.000000
0.000000
0.000000
0.000000
0.000000
0.000000
0.000000
0.000000
0.000000
0.000000
0.000000
0.000000
0.000000
0.000000
0.000000
0.000000
0.000000
0.000000
0.000000
0.000000
0.000000
0.000000
0.000000
0.000000
0.000000
0.000000
0.000000
0.000000
0.000000
0.000000
0.000000
0.000000
0.000000
0.000000
0.000000
0.000000
0.000000
0.000000
0.000000
0.000000
0.000000
0.000000
0.000000
0.000000
0.000000
0.000000
0.000000
0.000000
0.000000
0.000000
0.000000
0.000000
0.000000
0.013463
0.025754
0.028397
0.067652
0.059472
0.087832
0.091249
0.087941
0.106122
0.103165
0.084387
0.095213
0.070519
0.071842
0.049117
0.048437
0.026235
0.062195
0.012300
0.050685
0.203385
0.197664
0.100000
0.100000
0.000000
0.000000
0.000000
0.000000
0.035743
0.058678
0.005634
0.084084
0.047123
0.027779
0.041980
0.029811
0.046241
0.016276
0.052853
0.039814
0.055758
0.053365
0.081213
0.068973
0.145723
0.082010
0.152531
0.144341
0.119760
0.100000
0.100000
0.100000
0.000000
0.000000
0.000000
0.000000
0.043962
0.047804
0.031315
0.073432
0.040851
0.077696
0.049043
0.067115
0.067058
0.063556
0.051637
0.053921
0.046477
0.056591
0.050881
0.073670
0.041891
0.084350
0.045874
0.071623
0.071188
0.208191
0.100000
0.100000
0.000000
0.000000
0.000000
0.000000
0.064533
0.070954
0.027156
0.088147
0.024565
0.023089
0.020635
0.006909
0.013285
0.022134
0.007792
0.020224
0.025771
0.029238
0.029099
0.037789
0.021802
0.075109
0.036591
0.059768
0.073026
0.024415
0.100000
0.100000
0.000000
0.000000
0.000000
0.000000
0.066416
0.042104
0.031252
0.058833
0.003995
0.029644
0.008345
0.014455
0.011248
0.015386
0.004820
0.020095
0.017476
0.019806
0.029937
0.019894
0.020245
0.042110
0.039899
0.065188
0.014211
0.038900
0.100000
0.100000
0.000000
0.000000
0.000000
0.000000
0.074768
0.060117
0.028435
0.076944
0.022067
0.025373
0.009889
0.008628
0.004778
0.024713
0.008850
0.021269
0.013369
0.010488
0.030689
0.012708
0.018177
0.029593
0.045537
0.034502
0.062079
0.039868
0.100000
0.100000
0.000000
0.000000
0.000000
0.000000
0.080428
0.031088
0.017268
0.055003
0.025665
0.031834
0.028566
0.035466
0.021250
0.038889
0.028042
0.019573
0.021599
0.011362
0.013819
0.005390
0.025408
0.042612
0.024603
0.012630
0.052392
0.049903
0.100000
0.100000
0.000000
0.000000
0.000000
0.000000
0.077803
0.048931
0.018542
0.059544
0.031712
0.022487
0.011177
0.004144
0.008006
0.010750
0.006204
0.011523
0.015644
0.008468
0.016246
0.003736
0.012103
0.035716
0.043647
0.028505
0.036721
0.058338
0.100000
0.100000
0.000000
0.000000
0.000000
0.000000
0.089768
0.033242
0.011140
0.055092
0.028549
0.035629
0.028507
0.032368
0.019244
0.043022
0.018075
0.031389
0.022380
0.021847
0.019767
0.026454
0.015383
0.074821
0.019633
0.048950
0.021173
0.046559
0.100000
0.100000
0.000000
0.000000
0.000000
0.000000
0.078914
0.048298
0.012625
0.047431
0.040673
0.026165
0.016344
0.014636
0.008189
0.003644
0.005709
0.014438
0.005152
0.019187
0.012870
0.021621
0.015489
0.059001
0.024535
0.037923
0.052023
0.059788
0.100000
0.100000
0.000000
0.000000
0.000000
0.000000
0.094441
0.040413
0.005029
0.042931
0.022760
0.030691
0.024774
0.023643
0.023709
0.031411
0.016768
0.025182
0.016280
0.021918
0.014155
0.039595
0.010045
0.079538
0.031016
0.052006
0.028911
0.056004
0.100000
0.100000
0.000000
0.000000
0.000000
0.000000
0.082901
0.058616
0.008303
0.035103
0.049867
0.026691
0.025588
0.016481
0.008510
0.013084
0.008708
0.023776
0.008230
0.024445
0.021542
0.030251
0.025521
0.080236
0.024076
0.057234
0.040500
0.055027
0.100000
0.100000
0.000000
0.000000
0.000000
0.000000
0.093789
0.037768
0.006484
0.044739
0.030234
0.033132
0.019760
0.028926
0.021110
0.030324
0.024070
0.017283
0.024575
0.019906
0.015787
0.045461
0.015409
0.085196
0.011345
0.066904
0.018618
0.066620
0.100000
0.100000
0.000000
0.000000
0.000000
0.000000
0.084664
0.070185
0.004029
0.021058
0.043313
0.013525
0.028877
0.015555
0.018124
0.008918
0.009472
0.017798
0.004961
0.024805
0.014973
0.030652
0.015386
0.098148
0.023036
0.069493
0.038404
0.037179
0.100000
0.100000
0.000000
0.000000
0.000000
0.000000
0.106397
0.052219
0.009558
0.043305
0.047306
0.029408
0.027269
0.015669
0.013422
0.026647
0.009705
0.023393
0.011692
0.017373
0.012858
0.039366
0.020431
0.086684
0.013423
0.076552
0.013298
0.069256
0.100000
0.100000
0.000000
0.000000
0.000000
0.000000
0.073493
0.052297
0.018066
0.026764
0.048343
0.017789
0.030217
0.022110
0.018081
0.015660
0.018835
0.008336
0.017895
0.011665
0.014376
0.044035
0.021612
0.115789
0.032075
0.081368
0.031985
0.028578
0.100000
0.100000
0.000000
0.000000
0.000000
0.000000
0.110648
0.078858
0.014622
0.033502
0.046382
0.020043
0.029196
0.009879
0.023086
0.009632
0.012466
0.014034
0.008385
0.014594
0.006952
0.052983
0.008942
0.106867
0.009556
0.087284
0.032850
0.069654
0.100000
0.100000
0.000000
0.000000
0.000000
0.000000
0.079390
0.035862
0.017709
0.028778
0.051386
0.023935
0.033097
0.012005
0.009731
0.012268
0.005193
0.005423
0.009967
0.007861
0.006783
0.041010
0.010327
0.112578
0.027938
0.082069
0.036179
0.027741
0.100000
0.100000
0.000000
0.000000
0.000000
0.000000
0.088408
0.063313
0.007803
0.045328
0.056092
0.020532
0.027036
0.015190
0.024419
0.012016
0.015502
0.017363
0.013791
0.017119
0.026427
0.064601
0.012081
0.116151
0.019645
0.100754
0.053448
0.062748
0.100000
0.100000
0.000000
0.000000
0.000000
0.000000
0.082870
0.054926
0.002749
0.028786
0.037757
0.021547
0.027967
0.004101
0.013834
0.007493
0.014534
0.003407
0.012842
0.009996
0.006623
0.052258
0.028399
0.111748
0.014509
0.093163
0.055524
0.037805
0.100000
0.100000
0.000000
0.000000
0.000000
0.000000
0.084136
0.051049
0.023267
0.044931
0.062041
0.020231
0.020449
0.015173
0.009538
0.008775
0.005143
0.013053
0.009359
0.009497
0.031638
0.064060
0.027881
0.120783
0.015613
0.098505
0.047540
0.045155
0.100000
0.100000
0.000000
0.000000
0.000000
0.000000
0.078373
0.057764
0.008880
0.044889
0.049438
0.033069
0.040219
0.020272
0.030498
0.016709
0.012862
0.013303
0.005495
0.015257
0.001118
0.037900
0.040234
0.111668
0.024456
0.118571
0.032255
0.061608
0.100000
0.100000
0.000000
0.000000
0.000000
0.000000
0.079234
0.058142
0.037201
0.041960
0.058097
0.019321
0.013553
0.015391
0.008012
0.017193
0.014743
0.020089
0.019492
0.034310
0.025728
0.076262
0.046671
0.118985
0.052255
0.115662
0.014803
0.054028
0.100000
0.100000
0.000000
0.000000
0.000000
0.000000
0.088913
0.072320
0.004399
0.042079
0.059316
0.031803
0.034256
0.018133
0.008192
0.004702
0.009867
0.016056
0.007820
0.041972
0.025883
0.059931
0.072828
0.130469
0.076140
0.172991
0.020074
0.055173
0.100000
0.100000
0.000000
0.000000
0.000000
0.000000
0.088352
0.074508
0.043951
0.041013
0.062084
0.027105
0.028703
0.039026
0.020231
0.048454
0.015499
0.025014
0.023475
0.053166
0.040525
0.080841
0.052233
0.088019
0.061967
0.117356
0.062082
0.048172
0.100000
0.100000
0.000000
0.000000
0.000000
0.000000
0.082776
0.084372
0.020681
0.042222
0.067413
0.018113
0.017380
0.006652
0.010582
0.023888
0.011440
0.042671
0.035612
0.050483
0.056544
0.063446
0.070231
0.115782
0.072698
0.189467
0.030576
0.024315
0.100000
0.100000
0.000000
0.000000
0.000000
0.000000
0.095890
0.096256
0.036801
0.034924
0.058242
0.042547
0.037987
0.043899
0.015937
0.036987
0.033105
0.028836
0.032760
0.071058
0.019575
0.074586
0.027147
0.073982
0.037515
0.115477
0.100263
0.034863
0.100000
0.100000
0.000000
0.000000
0.000000
0.000000
0.071791
0.081926
0.030539
0.026959
0.042256
0.001247
0.014894
0.010952
0.024486
0.036782
0.030122
0.040175
0.023707
0.031821
0.033358
0.055091
0.037624
0.098990
0.051200
0.120411
0.048354
0.073335
0.100000
0.100000
0.000000
0.000000
0.000000
0.000000
0.090521
0.114196
0.043027
0.041417
0.059654
0.039480
0.026341
0.038549
0.028204
0.043366
0.035110
0.083229
0.035342
0.114209
0.044047
0.091350
0.066644
0.086756
0.060595
0.056032
0.161788
0.041708
0.100000
0.100000
0.000000
0.000000
0.000000
0.000000
0.065537
0.085418
0.030934
0.019228
0.036541
0.006063
0.018887
0.017929
0.027080
0.029154
0.029739
0.035265
0.004908
0.083093
0.007059
0.082080
0.051273
0.104338
0.051094
0.069189
0.102353
0.113564
0.100000
0.100000
0.000000
0.000000
0.000000
0.000000
0.073485
0.120231
0.042685
0.036519
0.062244
0.057392
0.029100
0.061368
0.048606
0.049196
0.064725
0.053851
0.048795
0.054504
0.059373
0.055620
0.058328
0.033885
0.063570
0.121191
0.199625
0.107922
0.100000
0.100000
0.000000
0.000000
0.000000
0.000000
0.060239
0.085206
0.029352
0.011075
0.030053
0.004392
0.019561
0.007528
0.030280
0.022408
0.045707
0.032940
0.017431
0.090885
0.018766
0.074234
0.025784
0.070659
0.060161
0.040136
0.094528
0.089432
0.100000
0.100000
0.000000
0.000000
0.000000
0.000000
0.051501
0.114553
0.041812
0.021903
0.052744
0.039117
0.033214
0.045250
0.072293
0.030471
0.090280
0.056702
0.044724
0.073099
0.038383
0.052598
0.063449
0.039225
0.053849
0.087772
0.093599
0.109410
0.100000
0.100000
0.000000
0.000000
0.000000
0.000000
0.046553
0.078850
0.052711
0.009443
0.052377
0.012569
0.028966
0.014774
0.009581
0.018960
0.033077
0.009976
0.035214
0.061898
0.025270
0.085772
0.069857
0.078252
0.035128
0.057214
0.063551
0.082145
0.100000
0.100000
0.000000
0.000000
0.000000
0.000000
0.042298
0.087230
0.052726
0.021866
0.052420
0.022781
0.028506
0.035638
0.036862
0.029553
0.068030
0.079376
0.054452
0.082869
0.052047
0.048252
0.067293
0.068127
0.075059
0.028857
0.139418
0.137895
0.100000
0.100000
0.000000
0.000000
0.000000
0.000000
0.031076
0.073681
0.037076
0.008058
0.036277
0.026195
0.028559
0.032299
0.014402
0.009297
0.014045
0.031118
0.010110
0.089462
0.021601
0.122644
0.050669
0.053218
0.079133
0.048532
0.087037
0.146354
0.100000
0.100000
0.000000
0.000000
0.000000
0.000000
0.027231
0.070527
0.028028
0.035595
0.036949
0.030484
0.048387
0.044708
0.061795
0.085813
0.073585
0.080739
0.059933
0.081911
0.072019
0.065758
0.093019
0.104085
0.094598
0.019173
0.118391
0.079989
0.100000
0.100000
0.000000
0.000000
0.000000
0.000000
0.019192
0.040796
0.024530
0.017814
0.038419
0.001909
0.018336
0.033121
0.055511
0.054473
0.040981
0.049453
0.066365
0.043271
0.038957
0.029378
0.032749
0.024420
0.070164
0.065156
0.040571
0.068119
0.157215
0.100000
0.000000
0.000000
0.000000
0.000000
0.004329
0.027497
0.061179
0.081355
0.098919
0.083542
0.119813
0.092055
0.075480
0.083430
0.100488
0.034129
0.100547
0.042445
0.090998
0.095754
0.080632
0.011762
0.015976
0.068049
0.022193
0.088205
0.214418
0.100000
0.000000
0.000000
0.000000
0.000000
0.003582
0.010705
0.026449
0.006637
0.022390
0.016647
0.020761
0.025211
0.034152
0.028473
0.031558
0.014131
0.049208
0.006068
0.051617
0.025506
0.088640
0.047119
0.071743
0.044805
0.064265
0.029233
0.153400
0.100000
0.000000
0.000000
0.000000
0.000000
0.000000
0.000000
0.000000
0.000000
0.000000
0.000000
0.000000
0.000000
0.000000
0.000000
0.000000
0.000000
0.000000
0.000000
0.000000
0.000000
0.000000
0.000000
0.000000
0.000000
0.000000
0.000000
0.000000
0.000000
0.000000
0.000000
0.000000
0.000000
0.000000
0.000000
0.000000
0.000000
0.000000
0.000000
0.000000
0.000000
0.000000
0.000000
0.000000
0.000000
0.000000
0.000000
0.000000
0.000000
0.000000
0.000000
0.000000
0.000000
0.000000
0.000000
0.000000
0.000000
0.000000
0.000000
0.000000
0.000000
0.000000
0.000000
0.000000
0.000000
0.000000
0.000000
0.000000
0.000000
0.000000
0.000000
0.000000
0.000000
0.000000
0.000000
0.000000
0.000000
0.000000
0.000000
0.000000
0.000000
0.000000
0.000000
0.000000
0.000000
0.000000
0.000000
0.000000
0.000000
0.000000
0.000000
0.000000
0.000000
0.000000
0.000000
0.000000
0.000000
0.000000
0.000000
0.000000
0.000000
0.000000
0.000000
0.000000
0.000000
0.000000
0.000000
0.000000
0.000000
0.000000
0.000000
0.000000
0.000000
</DataArray>
<DataArray NumberOfComponents='1' type='Float32' Name='pressure' format='ascii'>
0.000000
0.000000
0.000000
0.000000
0.000000
0.000000
0.000000
0.000000
0.000000
0.000000
0.000000
0.000000
0.000000
0.000000
0.000000
0.000000
0.000000
0.000000
0.000000
0.000000
0.000000
0.000000
0.000000
0.000000
0.000000
0.000000
0.000000
0.000000
0.000000
0.000000
0.000000
0.000000
0.000000
0.000000
0.000000
0.000000
0.000000
0.000000
0.000000
0.000000
0.000000
0.000000
0.000000
0.000000
0.000000
0.000000
0.000000
0.000000
0.000000
0.000000
0.000000
0.000000
0.000000
0.000000
0.000000
0.000000
0.000000
0.000000
6363.523438
6473.945801
6891.730957
6349.507812
6298.887207
6212.342773
5657.373535
5386.806641
4954.981445
4793.182617
4372.013184
4142.916504
3806.541748
3369.698975
3025.372559
2657.578369
2302.966309
2109.295654
1788.793823
1736.263306
1578.881226
1816.680176
1623.598877
1470.177002
1950.867188
0.000000
0.000000
0.000000
6275.993164
6279.331543
7251.460449
6316.873535
6257.638184
6029.737305
5515.680176
5393.352539
5015.574219
4705.676270
4445.588867
4212.038086
3883.639893
3692.627197
3161.149414
3056.517822
2540.201172
2523.158447
2006.852905
2150.638428
1296.662476
1930.249146
1107.648560
1604.849487
678.038147
0.000000
0.000000
0.000000
5793.640137
5716.916504
6353.105469
5422.466309
5782.486816
5145.446289
5175.813965
4699.961426
4694.187988
4310.571289
4082.665527
3808.395996
3578.259766
3335.528564
3209.773682
2934.003662
2678.935059
2565.208496
2107.980469
1983.362183
1834.421997
343.108612
1357.505493
0.000000
1250.201660
0.000000
0.000000
0.000000
6489.208984
6912.515625
7193.722656
6303.965332
6342.200684
5849.109863
5651.933594
5332.012695
5077.740723
4617.697754
4538.910156
4095.080811
3939.617676
3586.977295
3249.425049
2980.886963
2586.696045
2484.404053
1925.949219
2091.710693
1246.794434
2146.834473
702.256836
0.000000
1433.540649
0.000000
0.000000
0.000000
5747.292969
5834.182129
6192.460449
5546.090820
5647.949707
5269.559570
5122.878906
4809.199219
4667.973633
4425.036621
4172.372070
3943.604492
3700.423584
3497.240723
3243.234619
3198.561279
2758.707275
2763.910400
2260.795654
2289.847656
1678.460449
1730.677368
1184.615234
2080.192627
1100.587769
0.000000
0.000000
0.000000
6309.055664
6754.161621
6994.103516
6205.415527
6209.078125
5767.984375
5470.242676
5210.077148
4944.721680
4599.406250
4403.445801
4062.697510
3858.027588
3570.090576
3288.845459
2991.584961
2713.260986
2448.689209
2185.956787
1906.767578
1692.412476
1490.462036
1297.603027
671.539612
1324.623535
0.000000
0.000000
0.000000
5993.253418
6283.877441
6040.459473
5754.651367
5577.757324
5359.315918
5169.867676
4875.708984
4700.146973
4455.462891
4227.082520
4016.581055
3722.078613
3530.161621
3225.973389
3062.664307
2741.610596
2609.661133
2232.685791
2158.058838
1771.623657
1564.509766
1298.029663
945.429138
1079.565063
0.000000
0.000000
0.000000
6119.123047
6522.464844
6754.176270
6046.958496
5985.670898
5614.965332
5284.021973
5165.597656
4782.098145
4588.658691
4279.823242
4026.849609
3804.543945
3516.479980
3309.997803
3059.611572
2760.743652
2561.720215
2201.641113
2037.747803
1597.629272
1524.566772
1109.858887
1012.573364
1245.666748
0.000000
0.000000
0.000000
6039.039062
6411.040527
6016.533691
5913.045898
5598.228516
5449.455566
5192.672852
4991.317383
4677.029785
4561.666992
4224.518555
4060.904297
3731.107666
3556.424805
3171.481201
3027.043701
2646.563477
2584.770264
2168.415771
2172.800049
1754.867310
1645.696411
1401.879028
900.891663
1324.379028
0.000000
0.000000
0.000000
6025.626465
6479.609863
6526.739258
5995.062500
5791.510254
5576.214355
5168.607422
5162.659180
4672.857910
4590.063477
4180.235840
4076.031982
3687.814697
3566.077393
3267.599365
3087.354004
2789.023438
2527.021729
2292.739502
1982.192749
1790.924561
1306.207031
1242.318115
829.293762
1074.780273
0.000000
0.000000
0.000000
6110.118164
6583.612793
6062.991699
6026.074219
5637.053223
5520.970703
5232.449707
4985.757324
4717.634277
4571.000488
4236.704590
4016.323975
3799.316650
3461.999756
3256.488525
2914.584961
2717.736572
2511.323242
2141.724121
2034.950928
1648.600464
1564.831055
1315.208740
843.220886
1121.059082
0.000000
0.000000
0.000000
5999.519043
6448.762207
6354.011230
6021.560547
5718.126953
5534.217285
5142.372070
5144.263184
4669.992676
4530.454590
4222.896484
4028.150635
3733.961670
3534.627441
3308.237061
3063.498047
2808.986328
2541.296387
2370.447998
2016.940186
1853.227539
1356.284180
1227.178345
822.810303
1052.708618
0.000000
0.000000
0.000000
6108.377441
6628.332031
6160.969727
6068.178711
5671.738281
5605.293945
5209.498535
5016.958008
4702.098145
4592.368652
4210.202148
4027.778809
3749.218750
3465.398193
3221.882812
2919.268066
2731.105957
2388.502441
2216.221924
1909.865723
1732.596802
1456.863403
1463.874023
824.616211
1095.841309
0.000000
0.000000
0.000000
5999.630859
6453.772461
6286.571777
6015.723145
5715.743164
5526.500000
5216.214355
5097.979980
4687.229004
4512.956543
4215.798340
4016.525635
3748.178955
3539.233887