<?xml version='1.0' encoding='UTF-8'?>
<VTKFile xmlns='VTK' byte_order='LittleEndian' version='0.1' type='UnstructuredGrid'>
<UnstructuredGrid>
<Piece NumberOfCells='1344' NumberOfPoints='1344'>
<Points>
<DataArray NumberOfComponents='3' type='Float32' Name='Position' format='ascii'>
-0.075000 -0.075000 0.000000
-0.075000 -0.050000 0.000000
-0.075000 -0.025000 0.000000
-0.075000 0.000000 0.000000
-0.075000 0.025000 0.000000
-0.075000 0.050000 0.000000
-0.075000 0.075000 0.000000
-0.075000 0.100000 0.000000
-0.075000 0.125000 0.000000
-0.075000 0.150000 0.000000
-0.075000 0.175000 0.000000
-0.075000 0.200000 0.000000
-0.075000 0.225000 0.000000
-0.075000 0.250000 0.000000
-0.075000 0.275000 0.000000
-0.075000 0.300000 0.000000
-0.075000 0.325000 0.000000
-0.075000 0.350000 0.000000
-0.075000 0.375000 0.000000
-0.075000 0.400000 0.000000
-0.075000 0.425000 0.000000
-0.075000 0.450000 0.000000
-0.075000 0.475000 0.000000
-0.075000 0.500000 0.000000
-0.075000 0.525000 0.000000
-0.075000 0.550000 0.000000
-0.075000 0.575000 0.000000
-0.075000 0.600000 0.000000
-0.050000 -0.075000 0.000000
-0.050000 -0.050000 0.000000
-0.050000 -0.025000 0.000000
-0.050000 0.000000 0.000000
-0.050000 0.025000 0.000000
-0.050000 0.050000 0.000000
-0.050000 0.075000 0.000000
-0.050000 0.100000 0.000000
-0.050000 0.125000 0.000000
-0.050000 0.150000 0.000000
-0.050000 0.175000 0.000000
-0.050000 0.200000 0.000000
-0.050000 0.225000 0.000000
-0.050000 0.250000 0.000000
-0.050000 0.275000 0.000000
-0.050000 0.300000 0.000000
-0.050000 0.325000 0.000000
-0.050000 0.350000 0.000000
-0.050000 0.375000 0.000000
-0.050000 0.400000 0.000000
-0.050000 0.425000 0.000000
-0.050000 0.450000 0.000000
-0.050000 0.475000 0.000000
-0.050000 0.500000 0.000000
-0.050000 0.525000 0.000000
-0.050000 0.550000 0.000000
-0.050000 0.575000 0.000000
-0.050000 0.600000 0.000000
-0.025000 -0.075000 0.000000
-0.025000 -0.050000 0.000000
-0.025000 -0.025000 0.000000
-0.025000 0.000000 0.000000
-0.025000 0.025000 0.000000
-0.025000 0.050000 0.000000
-0.025000 0.075000 0.000000
-0.025000 0.100000 0.000000
-0.025000 0.125000 0.000000
-0.025000 0.150000 0.000000
-0.025000 0.175000 0.000000
-0.025000 0.200000 0.000000
-0.025000 0.225000 0.000000
-0.025000 0.250000 0.000000
-0.025000 0.275000 0.000000
-0.025000 0.300000 0.000000
-0.025000 0.325000 0.000000
-0.025000 0.350000 0.000000
-0.025000 0.375000 0.000000
-0.025000 0.400000 0.000000
-0.025000 0.425000 0.000000
-0.025000 0.450000 0.000000
-0.025000 0.475000 0.000000
-0.025000 0.500000 0.000000
-0.025000 0.525000 0.000000
-0.025000 0.550000 0.000000
-0.025000 0.575000 0.000000
-0.025000 0.600000 0.000000
0.000000 -0.075000 0.000000
0.000000 -0.050000 0.000000
0.000000 -0.025000 0.000000
0.000000 0.000000 0.000000
0.000000 0.025000 0.000000
0.000000 0.050000 0.000000
0.000000 0.075000 0.000000
0.000000 0.100000 0.000000
0.000000 0.125000 0.000000
0.000000 0.150000 0.000000
0.000000 0.175000 0.000000
0.000000 0.200000 0.000000
0.000000 0.225000 0.000000
0.000000 0.250000 0.000000
0.000000 0.275000 0.000000
0.000000 0.300000 0.000000
0.000000 0.325000 0.000000
0.000000 0.350000 0.000000
0.000000 0.375000 0.000000
0.000000 0.400000 0.000000
0.000000 0.425000 0.000000
0.000000 0.450000 0.000000
0.000000 0.475000 0.000000
0.000000 0.500000 0.000000
0.000000 0.525000 0.000000
0.000000 0.550000 0.000000
0.000000 0.575000 0.000000
0.000000 0.600000 0.000000
0.025000 -0.075000 0.000000
0.025000 -0.050000 0.000000
0.025000 -0.025000 0.000000
0.025000 0.000000 0.000000
0.024119 0.024953 0.000000
0.040917 0.049174 0.000000
0.022885 0.060187 0.000000
0.022084 0.114618 0.000000
0.023712 0.151118 0.000000
0.025761 0.176777 0.000000
0.024377 0.204032 0.000000
0.025708 0.227297 0.000000
0.024608 0.251426 0.000000
0.025447 0.276029 0.000000
0.024850 0.299322 0.000000
0.025160 0.323737 0.000000
0.025590 0.347364 0.000000
0.024982 0.373263 0.000000
0.024142 0.400129 0.000000
0.025942 0.430305 0.000000
0.022685 0.455868 0.000000
0.022877 0.491443 0.000000
0.023968 0.517591 0.000000
0.021932 0.551674 0.000000
0.023339 0.583257 0.000000
0.026290 0.600000 0.000000
0.073301 0.600000 0.000000
0.091032 0.600000 0.000000
0.050000 -0.075000 0.000000
0.050000 -0.050000 0.000000
0.050000 -0.025000 0.000000
0.050000 0.000000 0.000000
0.047702 0.025853 0.000000
0.065092 0.055418 0.000000
0.047181 0.085771 0.000000
0.025370 0.085991 0.000000
0.040925 0.133746 0.000000
0.047818 0.157753 0.000000
0.045796 0.189685 0.000000
0.052244 0.217704 0.000000
0.052428 0.242914 0.000000
0.050899 0.266403 0.000000
0.053095 0.291906 0.000000
0.052249 0.315337 0.000000
0.050404 0.340154 0.000000
0.049790 0.364278 0.000000
0.046215 0.388924 0.000000
0.043713 0.415065 0.000000
0.047322 0.443485 0.000000
0.040019 0.476729 0.000000
0.047655 0.508675 0.000000
0.042460 0.535606 0.000000
0.045074 0.559882 0.000000
0.045610 0.600000 0.000000
0.104134 0.581288 0.000000
0.113933 0.600000 0.000000
0.075000 -0.075000 0.000000
0.075000 -0.050000 0.000000
0.075000 -0.025000 0.000000
0.075000 0.000000 0.000000
0.072170 0.024434 0.000000
0.087230 0.049374 0.000000
0.070207 0.077495 0.000000
0.046842 0.109572 0.000000
0.068577 0.124233 0.000000
0.069084 0.171793 0.000000
0.068250 0.199511 0.000000
0.076693 0.227373 0.000000
0.075379 0.253363 0.000000
0.075641 0.280055 0.000000
0.078054 0.305277 0.000000
0.076714 0.329608 0.000000
0.077317 0.353380 0.000000
0.075559 0.377293 0.000000
0.074174 0.400294 0.000000
0.072105 0.421223 0.000000
0.070308 0.446339 0.000000
0.059245 0.467127 0.000000
0.067457 0.494786 0.000000
0.072398 0.516596 0.000000
0.064578 0.542627 0.000000
0.054548 0.583938 0.000000
0.129396 0.586584 0.000000
0.141002 0.600000 0.000000
0.100000 -0.075000 0.000000
0.100000 -0.050000 0.000000
0.100000 -0.025000 0.000000
0.100000 0.000000 0.000000
0.096570 0.025393 0.000000
0.106342 0.061161 0.000000
0.095383 0.085814 0.000000
0.078020 0.100206 0.000000
0.090835 0.131691 0.000000
0.071753 0.149629 0.000000
0.095201 0.176920 0.000000
0.092906 0.201081 0.000000
0.100069 0.228387 0.000000
0.100114 0.256261 0.000000
0.100852 0.278405 0.000000
0.103422 0.303888 0.000000
0.102537 0.327981 0.000000
0.102477 0.353952 0.000000
0.100326 0.377952 0.000000
0.099411 0.407071 0.000000
0.096756 0.433887 0.000000
0.096472 0.458775 0.000000
0.088131 0.481392 0.000000
0.096552 0.502874 0.000000
0.090625 0.535938 0.000000
0.077368 0.575627 0.000000
0.156707 0.583268 0.000000
0.165232 0.600000 0.000000
0.125000 -0.075000 0.000000
0.125000 -0.050000 0.000000
0.125000 -0.025000 0.000000
0.125000 0.000000 0.000000
0.118816 0.032331 0.000000
0.130503 0.055546 0.000000
0.122280 0.085010 0.000000
0.106082 0.110964 0.000000
0.115820 0.133256 0.000000
0.105512 0.157803 0.000000
0.120101 0.177337 0.000000
0.116812 0.209183 0.000000
0.123655 0.234578 0.000000
0.125853 0.264139 0.000000
0.127479 0.288994 0.000000
0.127135 0.317835 0.000000
0.127934 0.340760 0.000000
0.125149 0.369478 0.000000
0.123067 0.393728 0.000000
0.119223 0.421130 0.000000
0.118907 0.449292 0.000000
0.117827 0.476537 0.000000
0.121163 0.498881 0.000000
0.114112 0.524053 0.000000
0.118888 0.547963 0.000000
0.091922 0.556942 0.000000
0.182843 0.581428 0.000000
0.186396 0.600000 0.000000
0.150000 -0.075000 0.000000
0.150000 -0.050000 0.000000
0.150000 -0.025000 0.000000
0.150000 0.000000 0.000000
0.138228 0.022264 0.000000
0.155809 0.053852 0.000000
0.141401 0.078632 0.000000
0.131088 0.112341 0.000000
0.148082 0.130815 0.000000
0.133945 0.154240 0.000000
0.146912 0.174058 0.000000
0.137469 0.199212 0.000000
0.149922 0.219336 0.000000
0.144171 0.245507 0.000000
0.150397 0.270581 0.000000
0.150066 0.294857 0.000000
0.151069 0.321796 0.000000
0.150265 0.349823 0.000000
0.147364 0.378537 0.000000
0.144886 0.407832 0.000000
0.143108 0.431661 0.000000
0.141243 0.460820 0.000000
0.148792 0.481263 0.000000
0.148673 0.502874 0.000000
0.137224 0.527449 0.000000
0.137416 0.559774 0.000000
0.208961 0.584049 0.000000
0.209666 0.600000 0.000000
0.175000 -0.075000 0.000000
0.175000 -0.050000 0.000000
0.175000 -0.025000 0.000000
0.175000 0.000000 0.000000
0.162711 0.029449 0.000000
0.179023 0.050004 0.000000
0.168819 0.077728 0.000000
0.155290 0.105310 0.000000
0.172901 0.128617 0.000000
0.162709 0.153454 0.000000
0.182024 0.175476 0.000000
0.166011 0.191840 0.000000
0.172217 0.217362 0.000000
0.171990 0.241914 0.000000
0.175703 0.267019 0.000000
0.176390 0.291287 0.000000
0.175449 0.316054 0.000000
0.174486 0.340368 0.000000
0.170878 0.364213 0.000000
0.166782 0.391964 0.000000
0.166584 0.425414 0.000000
0.165746 0.447831 0.000000
0.176367 0.470905 0.000000
0.173433 0.497542 0.000000
0.170211 0.524594 0.000000
0.156004 0.543905 0.000000
0.234424 0.583790 0.000000
0.236054 0.600000 0.000000
0.200000 -0.075000 0.000000
0.200000 -0.050000 0.000000
0.200000 -0.025000 0.000000
0.200000 0.000000 0.000000
0.185873 0.023516 0.000000
0.205112 0.051239 0.000000
0.192652 0.075756 0.000000
0.177488 0.102856 0.000000
0.202967 0.125283 0.000000
0.186149 0.151508 0.000000
0.206873 0.171813 0.000000
0.194571 0.201788 0.000000
0.198412 0.224613 0.000000
0.196057 0.251606 0.000000
0.200144 0.277607 0.000000
0.199796 0.307233 0.000000
0.200765 0.331881 0.000000
0.198934 0.357854 0.000000
0.193017 0.382934 0.000000
0.187217 0.407254 0.000000
0.193739 0.431023 0.000000
0.195318 0.455767 0.000000
0.198104 0.482930 0.000000
0.192768 0.511637 0.000000
0.193731 0.538536 0.000000
0.175875 0.554541 0.000000
0.259688 0.583242 0.000000
0.259489 0.600000 0.000000
0.225000 -0.075000 0.000000
0.225000 -0.050000 0.000000
0.225000 -0.025000 0.000000
0.225000 0.000000 0.000000
0.211342 0.025772 0.000000
0.231290 0.051103 0.000000
0.216299 0.073791 0.000000
0.201204 0.100992 0.000000
0.226099 0.123844 0.000000
0.213125 0.146695 0.000000
0.232585 0.173832 0.000000
0.218648 0.193483 0.000000
0.224348 0.217601 0.000000
0.219538 0.241333 0.000000
0.224901 0.267632 0.000000
0.221891 0.291507 0.000000
0.226039 0.317242 0.000000
0.223007 0.342747 0.000000
0.220542 0.369828 0.000000
[...]
<PointData>
<DataArray NumberOfComponents='1' type='Int32' Name='ParticleType' format='ascii'>
3
3
3
3
3
3
3
3
3
3
3
3
3
3
3
3
3
3
3
3
3
3
3
3
3
3
3
3
3
3
3
3
3
3
3
3
3
3
3
3
3
3
3
3
3
3
3
3
3
3
3
3
3
3
3
3
3
3
2
2
2
2
2
2
2
2
2
2
2
2
2
2
2
2
2
2
2
2
2
2
2
2
2
2
3
3
2
2
2
2
2
2
2
2
2
2
2
2
2
2
2
2
2
2
2
2
2
2
2
2
2
2
3
3
2
2
0
0
0
0
0
0
0
0
0
0
0
0
0
0
0
0
0
0
0
0
0
0
0
0
3
3
2
2
0
0
0
0
0
0
0
0
0
0
0
0
0
0
0
0
0
0
0
0
0
0
0
0
3
3
2
2
0
0
0
0
0
0
0
0
0
0
0
0
0
0
0
0
0
0
0
0
0
0
0
0
3
3
2
2
0
0
0
0
0
0
0
0
0
0
0
0
0
0
0
0
0
0
0
0
0
0
0
0
3
3
2
2
0
0
0
0
0
0
0
0
0
0
0
0
0
0
0
0
0
0
0
0
0
0
0
0
3
3
2
2
0
0
0
0
0
0
0
0
0
0
0
0
0
0
0
0
0
0
0
0
0
0
0
0
3
3
2
2
0
0
0
0
0
0
0
0
0
0
0
0
0
0
0
0
0
0
0
0
0
0
0
0
3
3
2
2
0
0
0
0
0
0
0
0
0
0
0
0
0
0
0
0
0
0
0
0
0
0
0
0
3
3
2
2
0
0
0
0
0
0
0
0
0
0
0
0
0
0
0
0
0
0
0
0
0
0
0
0
3
3
2
2
0
0
0
0
0
0
0
0
0
0
0
0
0
0
0
0
0
0
0
0
0
0
0
0
3
3
2
2
0
0
0
0
0
0
0
0
0
0
0
0
0
0
0
0
0
0
0
0
0
0
0
0
3
3
2
2
0
0
0
0
0
0
0
0
0
0
0
0
0
0
0
0
0
0
0
0
0
0
0
0
3
3
2
2
0
0
0
0
0
0
0
0
0
0
0
0
0
0
0
0
0
0
0
0
0
0
0
0
3
3
2
2
0
0
0
0
0
0
0
0
0
0
0
0
0
0
0
0
0
0
0
0
0
0
0
0
3
3
2
2
0
0
0
0
0
0
0
0
0
0
0
0
0
0
0
0
0
0
0
0
0
0
0
0
3
3
2
2
0
0
0
0
0
0
0
0
0
0
0
0
0
0
0
0
0
0
0
0
0
0
0
0
3
3
2
2
0
0
0
0
0
0
0
0
0
0
0
0
0
0
0
0
0
0
0
0
0
0
0
0
3
3
2
2
0
0
0
0
0
0
0
0
0
0
0
0
0
0
0
0
0
0
0
0
0
0
0
0
3
3
2
2
0
0
0
0
0
0
0
0
0
0
0
0
0
0
0
0
0
0
0
0
0
0
0
0
3
3
2
2
0
0
0
0
0
0
0
0
0
0
0
0
0
0
0
0
0
0
0
0
0
0
0
0
3
3
2
2
0
0
0
0
0
0
0
0
0
0
0
0
0
0
0
0
0
0
0
0
0
0
0
0
3
3
2
2
0
0
0
0
0
0
0
0
0
0
0
0
0
0
0
0
0
0
0
0
0
0
0
0
3
3
2
2
0
0
0
0
0
0
0
0
0
0
0
0
0
0
0
0
0
0
0
0
0
0
0
0
3
3
2
2
0
0
0
0
0
0
0
0
0
0
0
0
0
0
0
0
0
0
0
0
0
0
0
0
3
3
2
2
0
0
0
0
0
0
0
0
0
0
0
0
0
0
0
0
0
0
0
0
0
0
0
0
3
3
2
2
0
0
0
0
0
0
0
0
0
0
0
0
0
0
0
0
0
0
0
0
0
0
0
0
3
3
2
2
0
0
0
0
0
0
0
0
0
0
0
0
0
0
0
0
0
0
0
0
0
0
0
0
3
3
2
2
0
0
0
0
0
0
0
0
0
0
0
0
0
0
0
0
0
0
0
0
0
0
0
0
3
3
2
2
0
0
0
0
0
0
0
0
0
0
0
0
0
0
0
0
0
0
0
0
0
0
0
0
3
3
2
2
0
0
0
0
0
0
0
0
0
0
0
0
0
0
0
0
0
0
0
0
0
0
0
0
3
3
2
2
0
0
0
0
0
0
0
0
0
0
0
0
0
0
0
0
0
0
0
0
0
0
0
0
3
3
2
2
0
0
0
0
0
0
0
0
0
0
0
0
0
0
0
0
0
0
0
0
0
0
0
0
3
3
2
2
0
0
0
0
0
0
0
0
0
0
0
0
0
0
0
0
0
0
0
0
0
0
0
0
3
3
2
2
0
0
0
0
0
0
0
0
0
0
0
0
0
0
0
0
0
0
0
0
0
0
0
0
3
3
2
2
0
0
0
0
0
0
0
0
0
0
0
0
0
0
0
0
0
0
0
0
0
0
0
0
3
3
2
2
0
0
0
0
0
0
0
0
0
0
0
0
0
0
0
0
0
0
0
0
0
0
0
0
3
3
2
2
0
0
0
0
0
0
0
0
0
0
0
0
0
0
0
0
0
0
0
0
0
0
0
0
3
3
2
2
0
0
0
0
0
0
0
0
0
0
0
0
0
0
0
0
0
0
0
0
0
0
0
0
3
3
2
2
0
0
0
0
0
0
0
0
0
0
0
0
0
0
0
0
0
0
0
0
0
0
0
0
3
3
2
2
0
0
0
0
0
0
0
0
0
0
0
0
0
0
0
0
0
0
0
0
0
0
0
0
3
3
2
2
2
2
2
2
2
2
2
2
2
2
2
2
2
2
2
2
2
2
2
2
2
2
2
2
3
3
2
2
2
2
2
2
2
2
2
2
2
2
2
2
2
2
2
2
2
2
2
2
2
2
2
2
3
3
3
3
3
3
3
3
3
3
3
3
3
3
3
3
3
3
3
3
3
3
3
3
3
3
3
3
3
3
3
3
3
3
3
3
3
3
3
3
3
3
3
3
3
3
3
3
3
3
3
3
3
3
3
3
</DataArray>
<DataArray NumberOfComponents='1' type='Float32' Name='Velocity' format='ascii'>
0.000000
0.000000
0.000000
0.000000
0.000000
0.000000
0.000000
0.000000
0.000000
0.000000
0.000000
0.000000
0.000000
0.000000
0.000000
0.000000
0.000000
0.000000
0.000000
0.000000
0.000000
0.000000
0.000000
0.000000
0.000000
0.000000
0.000000
0.000000
0.000000
0.000000
0.000000
0.000000
0.000000
0.000000
0.000000
0.000000
0.000000
0.000000
0.000000
0.000000
0.000000
0.000000
0.000000
0.000000
0.000000
0.000000
0.000000
0.000000
0.000000
0.000000
0.000000
0.000000
0.000000
0.000000
0.000000
0.000000
0.000000
0.000000
0.000000
0.000000
0.000000
0.000000
0.000000
0.000000
0.000000
0.000000
0.000000
0.000000
0.000000
0.000000
0.000000
0.000000
0.000000
0.000000
0.000000
0.000000
0.000000
0.000000
0.000000
0.000000
0.000000
0.000000
0.000000
0.000000
0.000000
0.000000
0.000000
0.000000
0.000000
0.000000
0.000000
0.000000
0.000000
0.000000
0.000000
0.000000
0.000000
0.000000
0.000000
0.000000
0.000000
0.000000
0.000000
0.000000
0.000000
0.000000
0.000000
0.000000
0.000000
0.000000
0.000000
0.000000
0.000000
0.000000
0.000000
0.000000
0.074306
0.018357
0.058997
0.145311
0.086547
0.053684
0.105804
0.045363
0.127368
0.049397
0.152870
0.047770
0.133534
0.056422
0.180540
0.104383
0.029899
0.100196
0.123785
0.052564
0.100000
0.100000
0.100000
0.100000
0.000000
0.000000
0.000000
0.000000
0.065805
0.082436
0.083958
0.016877
0.294027
0.167295
0.086784
0.023125
0.214544
0.028625
0.086751
0.021264
0.125809
0.060588
0.060442
0.059885
0.032928
0.142531
0.208786
0.187094
0.131336
0.100000
0.100000
0.100000
0.000000
0.000000
0.000000
0.000000
0.135868
0.108384
0.094604
0.198810
0.082847
0.129814
0.156517
0.164512
0.147846
0.097606
0.167181
0.024474
0.159016
0.027604
0.163709
0.093803
0.118696
0.161955
0.254602
0.053007
0.231975
0.100000
0.100000
0.100000
0.000000
0.000000
0.000000
0.000000
0.043732
0.153714
0.112443
0.189726
0.074932
0.133715
0.053735
0.088689
0.077782
0.154356
0.113867
0.109388
0.140408
0.106024
0.162305
0.052325
0.285171
0.047621
0.083549
0.103261
0.161914
0.100000
0.100000
0.100000
0.000000
0.000000
0.000000
0.000000
0.075119
0.015485
0.108374
0.143028
0.119134
0.137981
0.081333
0.112924
0.080372
0.012789
0.032454
0.045106
0.054932
0.051752
0.194506
0.055748
0.231274
0.194335
0.478586
0.088348
0.351491
0.441814
0.100000
0.100000
0.000000
0.000000
0.000000
0.000000
0.073331
0.033634
0.084006
0.055035
0.111578
0.048330
0.086594
0.052592
0.056694
0.056691
0.081359
0.046903
0.006606
0.055469
0.059080
0.053543
0.091830
0.084408
0.162318
0.085363
0.252254
0.382720
0.100000
0.100000
0.000000
0.000000
0.000000
0.000000
0.102972
0.058758
0.043953
0.029069
0.100952
0.056031
0.018324
0.089327
0.122546
0.083566
0.126114
0.076318
0.059401
0.008751
0.089930
0.083309
0.038434
0.238617
0.208049
0.204104
0.228284
0.349345
0.100000
0.100000
0.000000
0.000000
0.000000
0.000000
0.098928
0.040314
0.043751
0.091540
0.148000
0.051055
0.056700
0.097215
0.047888
0.031305
0.056373
0.035292
0.055424
0.026036
0.085891
0.243959
0.107190
0.156470
0.056249
0.091779
0.186784
0.220509
0.100000
0.100000
0.000000
0.000000
0.000000
0.000000
0.095203
0.061538
0.039398
0.063673
0.134321
0.018928
0.074115
0.043951
0.033537
0.102157
0.068455
0.008770
0.170405
0.081990
0.056735
0.059275
0.010346
0.056038
0.056869
0.084443
0.097857
0.152702
0.100000
0.100000
0.000000
0.000000
0.000000
0.000000
0.035867
0.096409
0.072834
0.049417
0.048071
0.020577
0.089305
0.115485
0.056054
0.066229
0.154759
0.096675
0.012243
0.134558
0.128210
0.068365
0.235923
0.219438
0.210972
0.111848
0.054076
0.143890
0.100000
0.100000
0.000000
0.000000
0.000000
0.000000
0.013249
0.028571
0.084132
0.063436
0.051369
0.042612
0.151783
0.053921
0.058839
0.114628
0.048488
0.066794
0.109679
0.144793
0.189733
0.069234
0.106699
0.091538
0.266537
0.343183
0.124412
0.085242
0.100000
0.100000
0.000000
0.000000
0.000000
0.000000
0.030450
0.084329
0.051341
0.095500
0.038238
0.039950
0.031389
0.164475
0.101410
0.152439
0.070438
0.050398
0.050533
0.035731
0.018758
0.071918
0.086280
0.127409
0.038196
0.221911
0.133788
0.287897
0.100000
0.100000
0.000000
0.000000
0.000000
0.000000
0.050089
0.032521
0.073344
0.075159
0.112555
0.093087
0.146025
0.122814
0.058690
0.065224
0.098796
0.122437
0.071144
0.020185
0.039780
0.013152
0.171881
0.051086
0.089136
0.277982
0.152553
0.300766
0.100000
0.100000
0.000000
0.000000
0.000000
0.000000
0.028478
0.098542
0.050324
0.140993
0.069351
0.076640
0.033722
0.164888
0.079624
0.151076
0.038668
0.061049
0.035910
0.052003
0.064297
0.079436
0.123677
0.115241
0.109739
0.572694
0.296647
0.301172
0.100000
0.100000
0.000000
0.000000
0.000000
0.000000
0.084384
0.011011
0.062290
0.098105
0.062028
0.107127
0.084620
0.148995
0.091954
0.059424
0.092615
0.050044
0.119983
0.131690
0.122730
0.182143
0.067972
0.141013
0.190736
0.112382
0.230346
0.233494
0.100000
0.100000
0.000000
0.000000
0.000000
0.000000
0.044220
0.085383
0.042309
0.101192
0.071545
0.077826
0.009907
0.021876
0.041931
0.072616
0.013171
0.091533
0.136929
0.066054
0.079416
0.069709
0.115435
0.005006
0.176879
0.275563
0.144414
0.043807
0.100000
0.100000
0.000000
0.000000
0.000000
0.000000
0.089831
0.046831
0.079138
0.105406
0.025905
0.041420
0.085162
0.082402
0.043770
0.049842
0.035185
0.012548
0.050603
0.060685
0.095505
0.034464
0.141233
0.254316
0.138427
0.503907
0.180788
0.095963
0.100000
0.100000
0.000000
0.000000
0.000000
0.000000
0.059775
0.064965
0.046110
0.051766
0.072704
0.064006
0.029428
0.060644
0.041127
0.045855
0.118154
0.061853
0.049733
0.061423
0.095305
0.102377
0.035598
0.246789
0.036930
0.315755
0.336460
0.090584
0.100000
0.100000
0.000000
0.000000
0.000000
0.000000
0.085640
0.043610
0.100650
0.101232
0.037128
0.036301
0.049977
0.121591
0.010864
0.012198
0.023892
0.086368
0.020739
0.061004
0.076126
0.110284
0.037794
0.056526
0.073139
0.069950
0.413713
0.174324
0.100000
0.100000
0.000000
0.000000
0.000000
0.000000
0.073306
0.064009
0.062939
0.072361
0.095294
0.051910
0.015907
0.088163
0.045095
0.048399
0.128821
0.033700
0.043660
0.141627
0.074707
0.101186
0.053890
0.128883
0.146976
0.180210
0.199586
0.275173
0.100000
0.100000
0.000000
0.000000
0.000000
0.000000
0.084579
0.021761
0.110672
0.067239
0.028904
0.033456
0.051742
0.173177
0.024928
0.002095
0.025824
0.038031
0.048107
0.063640
0.009302
0.062069
0.064781
0.110824
0.030687
0.184415
0.322590
0.368110
0.100000
0.100000
0.000000
0.000000
0.000000
0.000000
0.081513
0.011431
0.059037
0.150393
0.070642
0.047775
0.074537
0.064615
0.067034
0.044793
0.179460
0.015618
0.054689
0.138997
0.062624
0.190383
0.063131
0.095102
0.031681
0.061192
0.281837
0.286351
0.100000
0.100000
0.000000
0.000000
0.000000
0.000000
0.083875
0.012024
0.113959
0.079962
0.056063
0.036441
0.168926
0.097970
0.095114
0.083182
0.051707
0.028691
0.119258
0.049800
0.012266
0.142568
0.168732
0.025284
0.064746
0.136159
0.295934
0.152164
0.100000
0.100000
0.000000
0.000000
0.000000
0.000000
0.106623
0.086574
0.066345
0.181365
0.078711
0.060286
0.080471
0.070602
0.068580
0.134610
0.149609
0.050729
0.059548
0.182499
0.109093
0.180070
0.033507
0.079684
0.065526
0.144572
0.112007
0.253389
0.100000
0.100000
0.000000
0.000000
0.000000
0.000000
0.029190
0.052435
0.099851
0.040594
0.041576
0.084210
0.175414
0.155634
0.133612
0.136329
0.066558
0.075736
0.082970
0.076437
0.053685
0.105244
0.099368
0.123975
0.049257
0.242031
0.108870
0.215052
0.100000
0.100000
0.000000
0.000000
0.000000
0.000000
0.072324
0.051306
0.084534
0.057239
0.122714
0.085685
0.103813
0.027099
0.097178
0.032318
0.152502
0.025669
0.130598
0.056705
0.132734
0.139370
0.075581
0.100007
0.094720
0.272608
0.177859
0.207004
0.100000
0.100000
0.000000
0.000000
0.000000
0.000000
0.040642
0.015672
0.058242
0.048682
0.060905
0.089380
0.164349
0.170618
0.180285
0.097842
0.103453
0.049861
0.079837
0.073814
0.076160
0.154999
0.201942
0.111412
0.138848
0.047939
0.283289
0.267590
0.100000
0.100000
0.000000
0.000000
0.000000
0.000000
0.037860
0.043487
0.033659
0.051302
0.104422
0.059118
0.231236
0.112067
0.045635
0.028047
0.062967
0.092512
0.042026
0.089394
0.036609
0.173862
0.056348
0.089536
0.065206
0.144505
0.062187
0.159387
0.100000
0.100000
0.000000
0.000000
0.000000
0.000000
0.035200
0.073166
0.113919
0.044715
0.061298
0.092235
0.117896
0.117820
0.053557
0.087166
0.107556
0.074390
0.061907
0.083907
0.063605
0.049791
0.116163
0.072756
0.076305
0.106076
0.384327
0.335134
0.100000
0.100000
0.000000
0.000000
0.000000
0.000000
0.020218
0.074195
0.044663
0.036284
0.063437
0.062812
0.241624
0.097162
0.082222
0.159621
0.042244
0.187210
0.015855
0.058084
0.128418
0.089339
0.044312
0.188781
0.236790
0.295308
0.221639
0.328262
0.100000
0.100000
0.000000
0.000000
0.000000
0.000000
0.072488
0.086383
0.055688
0.038540
0.127695
0.193880
0.126636
0.154758
0.115019
0.160876
0.230648
0.095725
0.102106
0.076060
0.079181
0.109989
0.179588
0.194166
0.177508
0.181421
0.434057
0.371602
0.100000
0.100000
0.000000
0.000000
0.000000
0.000000
0.147486
0.127591
0.028238
0.126620
0.053780
0.031883
0.232928
0.047190
0.194221
0.136171
0.094185
0.112204
0.152288
0.114891
0.021427
0.097210
0.016358
0.199393
0.123217
0.106034
0.248280
0.211422
0.100000
0.100000
0.000000
0.000000
0.000000
0.000000
0.109498
0.114722
0.064393
0.067383
0.115879
0.078469
0.227404
0.073402
0.202139
0.171308
0.066736
0.073091
0.083684
0.119743
0.054116
0.144436
0.258420
0.210670
0.162569
0.202374
0.220993
0.561467
0.100000
0.100000
0.000000
0.000000
0.000000
0.000000
0.107080
0.157970
0.119025
0.082662
0.183049
0.104944
0.255211
0.117121
0.062540
0.118147
0.114383
0.119571
0.054212
0.067377
0.118590
0.089162
0.127684
0.124680
0.045793
0.158522
0.154940
0.251437
0.100000
0.100000
0.000000
0.000000
0.000000
0.000000
0.089484
0.043521
0.092389
0.140799
0.165760
0.060952
0.102070
0.052160
0.158726
0.187410
0.073949
0.024418
0.027580
0.136085
0.085221
0.113126
0.167198
0.171744
0.074634
0.031079
0.249481
0.301910
0.445030
0.100000
0.000000
0.000000
0.000000
0.000000
0.114104
0.143573
0.126239
0.349944
0.287235
0.376902
0.029974
0.073867
0.184614
0.122938
0.119622
0.222647
0.058076
0.047734
0.104836
0.056876
0.112502
0.094777
0.092136
0.202693
0.321669
0.240054
0.380202
0.100000
0.000000
0.000000
0.000000
0.000000
0.062098
0.130609
0.244919
0.149432
0.212308
0.259129
0.133128
0.068181
0.077212
0.105852
0.024152
0.058839
0.179946
0.182074
0.237344
0.373028
0.218982
0.175524
0.180062
0.153062
0.135084
0.172533
0.245232
0.100000
0.000000
0.000000
0.000000
0.000000
0.056083
0.098164
0.014732
0.125665
0.063573
0.074684
0.209303
0.137051
0.171622
0.184494
0.130941
0.149031
0.015618
0.051965
0.045121
0.065158
0.067798
0.196408
0.158130
0.147600
0.040554
0.334161
0.228124
0.100000
0.000000
0.000000
0.000000
0.000000
0.065325
0.019306
0.080671
0.104934
0.108512
0.062316
0.163021
0.076662
0.077321
0.118908
0.146352
0.051809
0.078404
0.035385
0.078474
0.067568
0.037015
0.060601
0.237986
0.343540
0.413490
0.201055
0.159101
0.100000
0.000000
0.000000
0.000000
0.000000
0.088862
0.194119
0.115821
0.123805
0.080824
0.096203
0.107662
0.160279
0.092146
0.141004
0.045762
0.156821
0.084319
0.228499
0.080426
0.245256
0.122502
0.224015
0.136371
0.100709
0.054482
0.630369
0.271447
0.100000
0.000000
0.000000
0.000000
0.000000
0.000000
0.000000
0.000000
0.000000
0.000000
0.000000
0.000000
0.000000
0.000000
0.000000
0.000000
0.000000
0.000000
0.000000
0.000000
0.000000
0.000000
0.000000
0.000000
0.000000
0.000000
0.000000
0.000000
0.000000
0.000000
0.000000
0.000000
0.000000
0.000000
0.000000
0.000000
0.000000
0.000000
0.000000
0.000000
0.000000
0.000000
0.000000
0.000000
0.000000
0.000000
0.000000
0.000000
0.000000
0.000000
0.000000
0.000000
0.000000
0.000000
0.000000
0.000000
0.000000
0.000000
0.000000
0.000000
0.000000
0.000000
0.000000
0.000000
0.000000
0.000000
0.000000
0.000000
0.000000
0.000000
0.000000
0.000000
0.000000
0.000000
0.000000
0.000000
0.000000
0.000000
0.000000
0.000000
0.000000
0.000000
0.000000
0.000000
0.000000
0.000000
0.000000
0.000000
0.000000
0.000000
0.000000
0.000000
0.000000
0.000000
0.000000
0.000000
0.000000
0.000000
0.000000
0.000000
0.000000
0.000000
0.000000
0.000000
0.000000
0.000000
0.000000
0.000000
0.000000
0.000000
0.000000
0.000000
0.000000
</DataArray>
<DataArray NumberOfComponents='1' type='Float32' Name='pressure' format='ascii'>
0.000000
0.000000
0.000000
0.000000
0.000000
0.000000
0.000000
0.000000
0.000000
0.000000
0.000000
0.000000
0.000000
0.000000
0.000000
0.000000
0.000000
0.000000
0.000000
0.000000
0.000000
0.000000
0.000000
0.000000
0.000000
0.000000
0.000000
0.000000
0.000000
0.000000
0.000000
0.000000
0.000000
0.000000
0.000000
0.000000
0.000000
0.000000
0.000000
0.000000
0.000000
0.000000
0.000000
0.000000
0.000000
0.000000
0.000000
0.000000
0.000000
0.000000
0.000000
0.000000
0.000000
0.000000
0.000000
0.000000
0.000000
0.000000
18190.957031
18188.720703
18396.724609
18337.363281
18125.869141
18013.638672
18118.076172
17695.232422
16691.302734
16774.652344
16131.833984
16261.568359
15829.890625
15798.208008
15458.735352
15194.166992
15477.122070
15874.841797
15302.514648
16470.414062
16152.884766
16737.916016
15984.463867
15229.626953
10472.892578
0.000000
0.000000
0.000000
18148.851562
18437.246094
17955.146484
17414.113281
18033.595703
17281.087891
16949.535156
17517.839844
16649.533203
16998.511719
16363.010742
16076.502930
16104.082031
15926.686523
15339.243164
14775.416992
15454.949219
16060.727539
15062.310547
15996.958984
14889.631836
16816.103516
16291.431641
16800.521484
14426.038086
0.000000
0.000000
0.000000
18081.175781
18145.236328
17487.783203
17627.955078
17636.767578
16986.183594
16485.751953
16527.111328
16303.252930
16126.664062
16064.348633
16228.190430
15744.937500
16066.049805
15849.500977
15894.770508
15286.755859
15720.264648
15166.273438
15791.753906
15694.217773
15291.960938
22751.996094
11779.185547
0.000000
10318.929688
0.000000
0.000000
17735.578125
18054.070312
18381.832031
17236.781250
17772.615234
17136.966797
17206.228516
17192.306641
16650.062500
16567.074219
16440.109375
16059.065430
15888.446289
15518.559570
15652.844727
15014.820312
15423.861328
15313.070312
14897.104492
16063.201172
15181.538086
16388.107422
16447.281250
12483.790039
21299.033203
0.000000
0.000000
0.000000
18148.388672
18179.814453
17638.025391
17619.113281
17439.164062
16871.082031
17249.216797
16462.007812
16431.166016
16094.560547
15905.958008
16025.202148
15760.519531
15834.541016
15751.604492
15737.178711
15604.299805
15451.437500
15855.134766
15217.531250
15807.072266
16060.841797
14537.666016
24266.017578
20182.482422
0.000000
0.000000
0.000000
17878.603516
17620.939453
18430.251953
17391.937500
17509.015625
16743.066406
16943.935547
16541.152344
16888.892578
16560.183594
16387.236328
16157.670898
15802.320312
15779.870117
15447.185547
15266.404297
15091.385742
14906.134766
15203.792969
15067.023438
15198.813477
14664.828125
15257.111328
20226.093750
17402.527344
0.000000
0.000000
0.000000
18453.814453
17815.640625
17713.656250
17568.216797
17110.281250
17402.275391
16874.576172
16930.476562
16489.455078
16341.863281
16118.907227
16003.760742
15760.421875
15818.912109
15295.099609
15507.256836
15250.192383
15260.149414
15268.119141
14333.453125
14466.508789
16611.195312
12777.829102
16349.875000
17851.460938
0.000000
0.000000
0.000000
18696.316406
18108.468750
18405.611328
17777.751953
17706.841797
17199.128906
17195.341797
16504.773438
17022.589844
16695.732422
16134.551758
16318.476562
15873.299805
15453.099609
15429.762695
15229.804688
14992.278320
14728.374023
14512.991211
14793.002930
14907.537109
14287.819336
14758.709961
12822.712891
19656.162109
0.000000
0.000000
0.000000
18388.236328
18191.406250
17818.400391
17648.984375
17303.263672
17035.679688
16944.037109
16746.035156
16892.800781
16013.541016
17049.419922
15619.306641
16215.012695
16095.610352
15353.380859
15579.239258
14948.389648
14764.952148
15108.717773
13821.636719
14287.228516
13915.412109
13129.505859
14115.669922
18633.390625
0.000000
0.000000
0.000000
18215.523438
18456.826172
18200.529297
17791.363281
17701.394531
17436.070312
17146.861328
16627.775391
16555.083984
16256.642578
15738.110352
16484.390625
15115.191406
15448.529297
15338.960938
14718.188477
14977.310547
14349.161133
14174.394531
14149.877930
13595.990234
13465.555664
14018.425781
10870.142578
19753.626953
0.000000
0.000000
0.000000
17854.119141
18378.492188
18097.103516
17966.007812
17463.585938
17184.720703
16975.371094
17160.890625
16740.039062
16717.871094
16484.458984
16242.213867
15896.889648
15980.466797
15309.643555
15053.421875
14597.686523
14536.809570
13778.269531
14121.980469
13094.436523
13635.911133
13645.110352
10889.038086
20680.261719
0.000000
0.000000
0.000000
18042.736328
18541.142578
18126.816406
17865.287109
17729.425781
17651.357422
17087.882812
16815.775391
16672.386719
16341.929688
16018.322266
16167.005859
15405.613281
15454.248047
15105.083984
15027.264648
14283.878906
14370.620117
13806.628906
13153.097656
13017.156250
12694.276367
13860.831055
11688.122070
19963.763672
0.000000
0.000000
0.000000
18223.476562
18505.001953
18332.662109
18109.810547
17766.134766
17208.375000
17128.273438
17227.017578
16563.253906
16532.744141
16418.884766
16137.074219
15750.462891
16117.537109