<?xml version='1.0' encoding='UTF-8'?>
<VTKFile xmlns='VTK' byte_order='LittleEndian' version='0.1' type='UnstructuredGrid'>
<UnstructuredGrid>
<Piece NumberOfCells='1344' NumberOfPoints='1344'>
<Points>
<DataArray NumberOfComponents='3' type='Float32' Name='Position' format='ascii'>
-0.075000 -0.075000 0.000000
-0.075000 -0.050000 0.000000
-0.075000 -0.025000 0.000000
-0.075000 0.000000 0.000000
-0.075000 0.025000 0.000000
-0.075000 0.050000 0.000000
-0.075000 0.075000 0.000000
-0.075000 0.100000 0.000000
-0.075000 0.125000 0.000000
-0.075000 0.150000 0.000000
-0.075000 0.175000 0.000000
-0.075000 0.200000 0.000000
-0.075000 0.225000 0.000000
-0.075000 0.250000 0.000000
-0.075000 0.275000 0.000000
-0.075000 0.300000 0.000000
-0.075000 0.325000 0.000000
-0.075000 0.350000 0.000000
-0.075000 0.375000 0.000000
-0.075000 0.400000 0.000000
-0.075000 0.425000 0.000000
-0.075000 0.450000 0.000000
-0.075000 0.475000 0.000000
-0.075000 0.500000 0.000000
-0.075000 0.525000 0.000000
-0.075000 0.550000 0.000000
-0.075000 0.575000 0.000000
-0.075000 0.600000 0.000000
-0.050000 -0.075000 0.000000
-0.050000 -0.050000 0.000000
-0.050000 -0.025000 0.000000
-0.050000 0.000000 0.000000
-0.050000 0.025000 0.000000
-0.050000 0.050000 0.000000
-0.050000 0.075000 0.000000
-0.050000 0.100000 0.000000
-0.050000 0.125000 0.000000
-0.050000 0.150000 0.000000
-0.050000 0.175000 0.000000
-0.050000 0.200000 0.000000
-0.050000 0.225000 0.000000
-0.050000 0.250000 0.000000
-0.050000 0.275000 0.000000
-0.050000 0.300000 0.000000
-0.050000 0.325000 0.000000
-0.050000 0.350000 0.000000
-0.050000 0.375000 0.000000
-0.050000 0.400000 0.000000
-0.050000 0.425000 0.000000
-0.050000 0.450000 0.000000
-0.050000 0.475000 0.000000
-0.050000 0.500000 0.000000
-0.050000 0.525000 0.000000
-0.050000 0.550000 0.000000
-0.050000 0.575000 0.000000
-0.050000 0.600000 0.000000
-0.025000 -0.075000 0.000000
-0.025000 -0.050000 0.000000
-0.025000 -0.025000 0.000000
-0.025000 0.000000 0.000000
-0.025000 0.025000 0.000000
-0.025000 0.050000 0.000000
-0.025000 0.075000 0.000000
-0.025000 0.100000 0.000000
-0.025000 0.125000 0.000000
-0.025000 0.150000 0.000000
-0.025000 0.175000 0.000000
-0.025000 0.200000 0.000000
-0.025000 0.225000 0.000000
-0.025000 0.250000 0.000000
-0.025000 0.275000 0.000000
-0.025000 0.300000 0.000000
-0.025000 0.325000 0.000000
-0.025000 0.350000 0.000000
-0.025000 0.375000 0.000000
-0.025000 0.400000 0.000000
-0.025000 0.425000 0.000000
-0.025000 0.450000 0.000000
-0.025000 0.475000 0.000000
-0.025000 0.500000 0.000000
-0.025000 0.525000 0.000000
-0.025000 0.550000 0.000000
-0.025000 0.575000 0.000000
-0.025000 0.600000 0.000000
0.000000 -0.075000 0.000000
0.000000 -0.050000 0.000000
0.000000 -0.025000 0.000000
0.000000 0.000000 0.000000
0.000000 0.025000 0.000000
0.000000 0.050000 0.000000
0.000000 0.075000 0.000000
0.000000 0.100000 0.000000
0.000000 0.125000 0.000000
0.000000 0.150000 0.000000
0.000000 0.175000 0.000000
0.000000 0.200000 0.000000
0.000000 0.225000 0.000000
0.000000 0.250000 0.000000
0.000000 0.275000 0.000000
0.000000 0.300000 0.000000
0.000000 0.325000 0.000000
0.000000 0.350000 0.000000
0.000000 0.375000 0.000000
0.000000 0.400000 0.000000
0.000000 0.425000 0.000000
0.000000 0.450000 0.000000
0.000000 0.475000 0.000000
0.000000 0.500000 0.000000
0.000000 0.525000 0.000000
0.000000 0.550000 0.000000
0.000000 0.575000 0.000000
0.000000 0.600000 0.000000
0.025000 -0.075000 0.000000
0.025000 -0.050000 0.000000
0.025000 -0.025000 0.000000
0.025000 0.000000 0.000000
0.035059 0.020852 0.000000
0.059229 0.033386 0.000000
0.022774 0.039805 0.000000
0.024734 0.117958 0.000000
0.047405 0.195052 0.000000
0.074665 0.279885 0.000000
0.025654 0.201692 0.000000
0.055992 0.242899 0.000000
0.025565 0.250849 0.000000
0.027428 0.273673 0.000000
0.022070 0.360233 0.000000
0.022444 0.402225 0.000000
0.021383 0.439255 0.000000
0.023421 0.473278 0.000000
0.025614 0.499946 0.000000
0.019313 0.542758 0.000000
0.039378 0.559195 0.000000
0.065390 0.566308 0.000000
0.088273 0.580630 0.000000
0.049933 0.586329 0.000000
0.036281 0.600000 0.000000
0.016105 0.600000 0.000000
0.144010 0.600000 0.000000
0.163691 0.600000 0.000000
0.050000 -0.075000 0.000000
0.050000 -0.050000 0.000000
0.050000 -0.025000 0.000000
0.050000 0.000000 0.000000
0.078349 0.023969 0.000000
0.072314 0.056318 0.000000
0.026922 0.064140 0.000000
0.022658 0.089114 0.000000
0.023562 0.152017 0.000000
0.025899 0.176436 0.000000
0.085234 0.257649 0.000000
0.054017 0.264207 0.000000
0.024401 0.300405 0.000000
0.041063 0.343963 0.000000
0.023061 0.326353 0.000000
0.034889 0.379851 0.000000
0.038626 0.425856 0.000000
0.041097 0.460166 0.000000
0.046682 0.491342 0.000000
0.032914 0.521346 0.000000
0.051223 0.537157 0.000000
0.090254 0.519490 0.000000
0.023966 0.577865 0.000000
0.082164 0.600000 0.000000
0.103306 0.600000 0.000000
0.062821 0.600000 0.000000
0.175162 0.578577 0.000000
0.183813 0.600000 0.000000
0.075000 -0.075000 0.000000
0.075000 -0.050000 0.000000
0.075000 -0.025000 0.000000
0.075000 0.000000 0.000000
0.112645 0.047951 0.000000
0.049470 0.057867 0.000000
0.053930 0.083494 0.000000
0.041691 0.132596 0.000000
0.081090 0.231089 0.000000
0.050165 0.221922 0.000000
0.101519 0.233619 0.000000
0.024149 0.227119 0.000000
0.047408 0.290103 0.000000
0.049009 0.313097 0.000000
0.086894 0.343657 0.000000
0.061966 0.342112 0.000000
0.057195 0.372702 0.000000
0.047245 0.404138 0.000000
0.060574 0.448031 0.000000
0.066117 0.472934 0.000000
0.120326 0.518074 0.000000
0.107057 0.537705 0.000000
0.074261 0.542860 0.000000
0.094519 0.557735 0.000000
0.116798 0.580244 0.000000
0.124179 0.600000 0.000000
0.203257 0.600000 0.000000
0.222724 0.600000 0.000000
0.100000 -0.075000 0.000000
0.100000 -0.050000 0.000000
0.100000 -0.025000 0.000000
0.100000 0.000000 0.000000
0.128312 0.067035 0.000000
0.066061 0.127973 0.000000
0.064165 0.168415 0.000000
0.044861 0.103198 0.000000
0.069165 0.200874 0.000000
0.047054 0.158769 0.000000
0.111533 0.296138 0.000000
0.122102 0.261378 0.000000
0.102135 0.273203 0.000000
0.072165 0.318963 0.000000
0.101668 0.372935 0.000000
0.079699 0.367606 0.000000
0.069213 0.425376 0.000000
0.091939 0.424563 0.000000
0.086756 0.450931 0.000000
0.091868 0.477775 0.000000
0.062743 0.515089 0.000000
0.077093 0.497090 0.000000
0.138653 0.538203 0.000000
0.171324 0.538370 0.000000
0.124337 0.557736 0.000000
0.146559 0.578503 0.000000
0.233479 0.577820 0.000000
0.241482 0.600000 0.000000
0.125000 -0.075000 0.000000
0.125000 -0.050000 0.000000
0.125000 -0.025000 0.000000
0.125000 0.000000 0.000000
0.112990 0.082149 0.000000
0.092413 0.061190 0.000000
0.086945 0.155233 0.000000
0.121759 0.214337 0.000000
0.089355 0.206213 0.000000
0.148183 0.213101 0.000000
0.126075 0.241282 0.000000
0.104394 0.321328 0.000000
0.083622 0.300860 0.000000
0.112507 0.344716 0.000000
0.093231 0.398538 0.000000
0.069637 0.397769 0.000000
0.129461 0.423261 0.000000
0.109709 0.441223 0.000000
0.132932 0.450672 0.000000
0.113735 0.470044 0.000000
0.107605 0.497568 0.000000
0.137604 0.501284 0.000000
0.155542 0.517573 0.000000
0.187235 0.557194 0.000000
0.205059 0.577990 0.000000
0.155448 0.556633 0.000000
0.261923 0.575950 0.000000
0.261389 0.600000 0.000000
0.150000 -0.075000 0.000000
0.150000 -0.050000 0.000000
0.150000 -0.025000 0.000000
0.150000 0.000000 0.000000
0.101917 0.026216 0.000000
0.141910 0.091272 0.000000
0.104349 0.104152 0.000000
0.082077 0.085566 0.000000
0.088974 0.175097 0.000000
0.109197 0.191478 0.000000
0.133361 0.193472 0.000000
0.149431 0.237289 0.000000
0.146167 0.276519 0.000000
0.132967 0.295624 0.000000
0.134172 0.357266 0.000000
0.116344 0.403453 0.000000
0.123253 0.380978 0.000000
0.150400 0.405699 0.000000
0.171928 0.395084 0.000000
0.151120 0.432729 0.000000
0.157382 0.463580 0.000000
0.136896 0.478311 0.000000
0.180229 0.514304 0.000000
0.207633 0.511383 0.000000
0.200666 0.535399 0.000000
0.217093 0.555826 0.000000
0.280569 0.600000 0.000000
0.299970 0.600000 0.000000
0.175000 -0.075000 0.000000
0.175000 -0.050000 0.000000
0.175000 -0.025000 0.000000
0.175000 0.000000 0.000000
0.128915 0.024000 0.000000
0.158606 0.063717 0.000000
0.129461 0.111359 0.000000
0.087233 0.129072 0.000000
0.114409 0.129743 0.000000
0.111660 0.154827 0.000000
0.151972 0.174461 0.000000
0.156511 0.147097 0.000000
0.169274 0.195233 0.000000
0.177779 0.216656 0.000000
0.162339 0.256531 0.000000
0.128473 0.329178 0.000000
0.155594 0.353584 0.000000
0.192630 0.384099 0.000000
0.177037 0.422831 0.000000
0.175695 0.445390 0.000000
0.207513 0.462696 0.000000
0.183319 0.469412 0.000000
0.162966 0.490037 0.000000
0.188797 0.491045 0.000000
0.233850 0.509815 0.000000
0.228296 0.533548 0.000000
0.317598 0.575799 0.000000
0.319728 0.600000 0.000000
0.200000 -0.075000 0.000000
0.200000 -0.050000 0.000000
0.200000 -0.025000 0.000000
0.200000 0.000000 0.000000
0.159766 0.023426 0.000000
0.140305 0.042414 0.000000
0.162079 0.092784 0.000000
0.074725 0.105500 0.000000
0.178921 0.139675 0.000000
0.130217 0.166214 0.000000
0.228726 0.114774 0.000000
0.256745 0.113980 0.000000
0.177459 0.168332 0.000000
0.180288 0.238991 0.000000
0.167168 0.285406 0.000000
0.171749 0.310378 0.000000
0.146559 0.314904 0.000000
0.170303 0.332918 0.000000
0.148565 0.382970 0.000000
0.198665 0.410975 0.000000
0.202651 0.436595 0.000000
0.217753 0.487980 0.000000
0.247845 0.489414 0.000000
0.264167 0.509878 0.000000
0.255795 0.531581 0.000000
0.245597 0.554488 0.000000
0.345607 0.576411 0.000000
0.338692 0.600000 0.000000
0.225000 -0.075000 0.000000
0.225000 -0.050000 0.000000
0.225000 -0.025000 0.000000
0.225000 0.000000 0.000000
0.188465 0.023192 0.000000
0.171311 0.044939 0.000000
0.164250 0.117421 0.000000
0.138521 0.135254 0.000000
0.204882 0.068380 0.000000
0.194247 0.092758 0.000000
0.247198 0.152610 0.000000
0.210418 0.129574 0.000000
0.197962 0.154093 0.000000
0.192103 0.188666 0.000000
0.188295 0.265574 0.000000
0.208619 0.307914 0.000000
0.190949 0.327591 0.000000
0.196890 0.355960 0.000000
0.175428 0.366069 0.000000
[...]
<PointData>
<DataArray NumberOfComponents='1' type='Int32' Name='ParticleType' format='ascii'>
3
3
3
3
3
3
3
3
3
3
3
3
3
3
3
3
3
3
3
3
3
3
3
3
3
3
3
3
3
3
3
3
3
3
3
3
3
3
3
3
3
3
3
3
3
3
3
3
3
3
3
3
3
3
3
3
3
3
2
2
2
2
2
2
2
2
2
2
2
2
2
2
2
2
2
2
2
2
2
2
2
2
2
2
3
3
2
2
2
2
2
2
2
2
2
2
2
2
2
2
2
2
2
2
2
2
2
2
2
2
2
2
3
3
2
2
0
0
0
0
0
0
0
0
0
0
0
0
0
0
0
0
0
0
0
0
0
0
0
0
3
3
2
2
0
0
0
0
0
0
0
0
0
0
0
0
0
0
0
0
0
0
0
0
0
0
0
0
3
3
2
2
0
0
0
0
0
0
0
0
0
0
0
0
0
0
0
0
0
0
0
0
0
0
0
0
3
3
2
2
0
0
0
0
0
0
0
0
0
0
0
0
0
0
0
0
0
0
0
0
0
0
0
0
3
3
2
2
0
0
0
0
0
0
0
0
0
0
0
0
0
0
0
0
0
0
0
0
0
0
0
0
3
3
2
2
0
0
0
0
0
0
0
0
0
0
0
0
0
0
0
0
0
0
0
0
0
0
0
0
3
3
2
2
0
0
0
0
0
0
0
0
0
0
0
0
0
0
0
0
0
0
0
0
0
0
0
0
3
3
2
2
0
0
0
0
0
0
0
0
0
0
0
0
0
0
0
0
0
0
0
0
0
0
0
0
3
3
2
2
0
0
0
0
0
0
0
0
0
0
0
0
0
0
0
0
0
0
0
0
0
0
0
0
3
3
2
2
0
0
0
0
0
0
0
0
0
0
0
0
0
0
0
0
0
0
0
0
0
0
0
0
3
3
2
2
0
0
0
0
0
0
0
0
0
0
0
0
0
0
0
0
0
0
0
0
0
0
0
0
3
3
2
2
0
0
0
0
0
0
0
0
0
0
0
0
0
0
0
0
0
0
0
0
0
0
0
0
3
3
2
2
0
0
0
0
0
0
0
0
0
0
0
0
0
0
0
0
0
0
0
0
0
0
0
0
3
3
2
2
0
0
0
0
0
0
0
0
0
0
0
0
0
0
0
0
0
0
0
0
0
0
0
0
3
3
2
2
0
0
0
0
0
0
0
0
0
0
0
0
0
0
0
0
0
0
0
0
0
0
0
0
3
3
2
2
0
0
0
0
0
0
0
0
0
0
0
0
0
0
0
0
0
0
0
0
0
0
0
0
3
3
2
2
0
0
0
0
0
0
0
0
0
0
0
0
0
0
0
0
0
0
0
0
0
0
0
0
3
3
2
2
0
0
0
0
0
0
0
0
0
0
0
0
0
0
0
0
0
0
0
0
0
0
0
0
3
3
2
2
0
0
0
0
0
0
0
0
0
0
0
0
0
0
0
0
0
0
0
0
0
0
0
0
3
3
2
2
0
0
0
0
0
0
0
0
0
0
0
0
0
0
0
0
0
0
0
0
0
0
0
0
3
3
2
2
0
0
0
0
0
0
0
0
0
0
0
0
0
0
0
0
0
0
0
0
0
0
0
0
3
3
2
2
0
0
0
0
0
0
0
0
0
0
0
0
0
0
0
0
0
0
0
0
0
0
0
0
3
3
2
2
0
0
0
0
0
0
0
0
0
0
0
0
0
0
0
0
0
0
0
0
0
0
0
0
3
3
2
2
0
0
0
0
0
0
0
0
0
0
0
0
0
0
0
0
0
0
0
0
0
0
0
0
3
3
2
2
0
0
0
0
0
0
0
0
0
0
0
0
0
0
0
0
0
0
0
0
0
0
0
0
3
3
2
2
0
0
0
0
0
0
0
0
0
0
0
0
0
0
0
0
0
0
0
0
0
0
0
0
3
3
2
2
0
0
0
0
0
0
0
0
0
0
0
0
0
0
0
0
0
0
0
0
0
0
0
0
3
3
2
2
0
0
0
0
0
0
0
0
0
0
0
0
0
0
0
0
0
0
0
0
0
0
0
0
3
3
2
2
0
0
0
0
0
0
0
0
0
0
0
0
0
0
0
0
0
0
0
0
0
0
0
0
3
3
2
2
0
0
0
0
0
0
0
0
0
0
0
0
0
0
0
0
0
0
0
0
0
0
0
0
3
3
2
2
0
0
0
0
0
0
0
0
0
0
0
0
0
0
0
0
0
0
0
0
0
0
0
0
3
3
2
2
0
0
0
0
0
0
0
0
0
0
0
0
0
0
0
0
0
0
0
0
0
0
0
0
3
3
2
2
0
0
0
0
0
0
0
0
0
0
0
0
0
0
0
0
0
0
0
0
0
0
0
0
3
3
2
2
0
0
0
0
0
0
0
0
0
0
0
0
0
0
0
0
0
0
0
0
0
0
0
0
3
3
2
2
0
0
0
0
0
0
0
0
0
0
0
0
0
0
0
0
0
0
0
0
0
0
0
0
3
3
2
2
0
0
0
0
0
0
0
0
0
0
0
0
0
0
0
0
0
0
0
0
0
0
0
0
3
3
2
2
0
0
0
0
0
0
0
0
0
0
0
0
0
0
0
0
0
0
0
0
0
0
0
0
3
3
2
2
0
0
0
0
0
0
0
0
0
0
0
0
0
0
0
0
0
0
0
0
0
0
0
0
3
3
2
2
0
0
0
0
0
0
0
0
0
0
0
0
0
0
0
0
0
0
0
0
0
0
0
0
3
3
2
2
0
0
0
0
0
0
0
0
0
0
0
0
0
0
0
0
0
0
0
0
0
0
0
0
3
3
2
2
2
2
2
2
2
2
2
2
2
2
2
2
2
2
2
2
2
2
2
2
2
2
2
2
3
3
2
2
2
2
2
2
2
2
2
2
2
2
2
2
2
2
2
2
2
2
2
2
2
2
2
2
3
3
3
3
3
3
3
3
3
3
3
3
3
3
3
3
3
3
3
3
3
3
3
3
3
3
3
3
3
3
3
3
3
3
3
3
3
3
3
3
3
3
3
3
3
3
3
3
3
3
3
3
3
3
3
3
</DataArray>
<DataArray NumberOfComponents='1' type='Float32' Name='Velocity' format='ascii'>
0.000000
0.000000
0.000000
0.000000
0.000000
0.000000
0.000000
0.000000
0.000000
0.000000
0.000000
0.000000
0.000000
0.000000
0.000000
0.000000
0.000000
0.000000
0.000000
0.000000
0.000000
0.000000
0.000000
0.000000
0.000000
0.000000
0.000000
0.000000
0.000000
0.000000
0.000000
0.000000
0.000000
0.000000
0.000000
0.000000
0.000000
0.000000
0.000000
0.000000
0.000000
0.000000
0.000000
0.000000
0.000000
0.000000
0.000000
0.000000
0.000000
0.000000
0.000000
0.000000
0.000000
0.000000
0.000000
0.000000
0.000000
0.000000
0.000000
0.000000
0.000000
0.000000
0.000000
0.000000
0.000000
0.000000
0.000000
0.000000
0.000000
0.000000
0.000000
0.000000
0.000000
0.000000
0.000000
0.000000
0.000000
0.000000
0.000000
0.000000
0.000000
0.000000
0.000000
0.000000
0.000000
0.000000
0.000000
0.000000
0.000000
0.000000
0.000000
0.000000
0.000000
0.000000
0.000000
0.000000
0.000000
0.000000
0.000000
0.000000
0.000000
0.000000
0.000000
0.000000
0.000000
0.000000
0.000000
0.000000
0.000000
0.000000
0.000000
0.000000
0.000000
0.000000
0.000000
0.000000
0.074056
0.138384
0.095110
0.218771
0.093567
0.259761
0.041938
0.073373
0.052000
0.113744
0.579438
0.355382
0.183470
0.357978
0.188033
0.206257
0.208613
0.147709
0.100000
0.100000
0.100000
0.100000
0.100000
0.100000
0.000000
0.000000
0.000000
0.000000
0.020792
0.314764
0.144620
0.039059
0.173573
0.208555
0.100461
0.102526
0.303561
0.075169
0.567336
0.099566
0.289654
0.022044
0.144925
0.174647
0.169735
0.145558
0.100000
0.100000
0.100000
0.100000
0.100000
0.100000
0.000000
0.000000
0.000000
0.000000
0.163508
0.163739
0.157160
0.135060
0.233987
0.098077
0.237587
0.214709
0.056947
0.326392
0.147167
0.189650
0.290195
0.027814
0.135850
0.244696
0.526092
0.442816
0.305989
0.273036
0.100000
0.100000
0.100000
0.100000
0.000000
0.000000
0.000000
0.000000
0.224452
0.184353
0.030063
0.148426
0.202553
0.156914
0.158420
0.138029
0.231498
0.348873
0.146016
0.097540
0.158103
0.516051
0.515565
0.459299
0.540625
0.240782
0.174512
0.090507
0.350900
0.100000
0.100000
0.100000
0.000000
0.000000
0.000000
0.000000
0.268225
0.190732
0.017150
0.218647
0.140087
0.277967
0.045909
0.275879
0.244680
0.192691
0.357191
0.164367
0.475861
0.421122
0.399455
0.200575
0.313040
0.064770
0.118310
0.370273
0.100000
0.369218
0.100000
0.100000
0.000000
0.000000
0.000000
0.000000
0.180858
0.262856
0.199916
0.056354
0.166278
0.089393
0.109866
0.021980
0.048694
0.407409
0.464323
0.416126
0.441421
0.214654
0.076303
0.174194
0.457069
0.168206
0.288418
0.279285
0.269483
0.387349
0.100000
0.100000
0.000000
0.000000
0.000000
0.000000
0.131411
0.119830
0.188158
0.034917
0.258958
0.289864
0.136249
0.165200
0.087318
0.226689
0.108459
0.567752
0.199758
0.229635
0.454935
0.357465
0.199704
0.306037
0.098949
0.416966
0.255247
0.274591
0.100000
0.100000
0.000000
0.000000
0.000000
0.000000
0.075938
0.049265
0.224222
0.113439
0.186056
0.300323
0.253728
0.294776
0.201825
0.153803
0.046429
0.439139
0.332881
0.447478
0.504838
0.387327
0.051633
0.158531
0.170132
0.187067
0.194923
0.310098
0.100000
0.100000
0.000000
0.000000
0.000000
0.000000
0.165812
0.076020
0.265917
0.100328
0.110547
0.218927
0.158027
0.233383
0.152580
0.069761
0.370936
0.071052
0.203663
0.145818
0.246868
0.248225
0.119300
0.268874
0.276695
0.126424
0.149473
0.355742
0.100000
0.100000
0.000000
0.000000
0.000000
0.000000
0.132478
0.092201
0.076009
0.076032
0.150547
0.190794
0.081945
0.119710
0.122492
0.048183
0.256623
0.230149
0.106538
0.009315
0.162090
0.206426
0.142988
0.306560
0.354417
0.169895
0.010074
0.110869
0.100000
0.100000
0.000000
0.000000
0.000000
0.000000
0.173805
0.240889
0.144962
0.180487
0.288790
0.172415
0.085198
0.049021
0.193407
0.197220
0.196015
0.063083
0.345776
0.161324
0.021223
0.217758
0.345794
0.156370
0.477258
0.041436
0.182258
0.100000
0.100000
0.100000
0.000000
0.000000
0.000000
0.000000
0.128071
0.055797
0.226833
0.171197
0.096873
0.137365
0.148547
0.149672
0.192253
0.266562
0.243627
0.134263
0.389880
0.277860
0.178180
0.036780
0.198156
0.277958
0.341328
0.262895
0.190887
0.213057
0.100000
0.100000
0.000000
0.000000
0.000000
0.000000
0.195430
0.193729
0.166371
0.364130
0.109532
0.107313
0.071812
0.174132
0.273217
0.139998
0.191195
0.217253
0.094161
0.160722
0.144484
0.154382
0.138676
0.508397
0.187599
0.138782
0.041604
0.045001
0.100000
0.100000
0.000000
0.000000
0.000000
0.000000
0.040755
0.151800
0.172930
0.081818
0.103464
0.123837
0.032317
0.129565
0.137113
0.107075
0.107402
0.300893
0.076967
0.076959
0.197941
0.098473
0.260620
0.153583
0.140276
0.100152
0.211723
0.100000
0.186444
0.100000
0.000000
0.000000
0.000000
0.000000
0.032664
0.039459
0.105197
0.076057
0.041654
0.062411
0.132425
0.218646
0.235897
0.144206
0.241091
0.140076
0.303959
0.345015
0.171002
0.194172
0.155776
0.105773
0.038722
0.125456
0.202168
0.169644
0.100000
0.100000
0.000000
0.000000
0.000000
0.000000
0.088570
0.035704
0.097094
0.149727
0.027302
0.169571
0.199675
0.233398
0.014942
0.363300
0.052960
0.059452
0.103576
0.152677
0.233033
0.269421
0.251442
0.132368
0.106349
0.095818
0.116080
0.137482
0.100000
0.100000
0.000000
0.000000
0.000000
0.000000
0.106984
0.053598
0.108171
0.113284
0.043764
0.013464
0.030790
0.154440
0.234054
0.043681
0.279562
0.262762
0.110948
0.131515
0.051093
0.118240
0.158664
0.130217
0.099280
0.058307
0.151198
0.100000
0.083909
0.100000
0.000000
0.000000
0.000000
0.000000
0.026584
0.151930
0.251490
0.067339
0.083102
0.071066
0.333551
0.076239
0.269450
0.246125
0.258682
0.106308
0.216596
0.156567
0.228601
0.136375
0.069404
0.110299
0.096410
0.207301
0.130628
0.103976
0.158387
0.100000
0.000000
0.000000
0.000000
0.000000
0.101139
0.102501
0.106372
0.094001
0.328959
0.057802
0.433000
0.395028
0.085031
0.186698
0.248447
0.203726
0.201268
0.040923
0.197923
0.115947
0.117669
0.041651
0.136798
0.185049
0.143023
0.170265
0.403170
0.100000
0.000000
0.000000
0.000000
0.000000
0.131220
0.098871
0.306277
0.092206
0.078100
0.237214
0.211243
0.084892
0.109243
0.126282
0.115521
0.178407
0.114059
0.162983
0.084511
0.090159
0.093357
0.124672
0.027531
0.223455
0.178024
0.100000
0.100000
0.100000
0.000000
0.000000
0.000000
0.000000
0.109751
0.058688
0.196079
0.141601
0.021824
0.211366
0.189434
0.093057
0.080100
0.092862
0.174498
0.067486
0.307179
0.209613
0.190294
0.063875
0.201195
0.040813
0.068554
0.216494
0.089129
0.167055
0.070259
0.100000
0.000000
0.000000
0.000000
0.000000
0.085895
0.089421
0.072529
0.126116
0.258116
0.052518
0.159854
0.110797
0.080950
0.025126
0.143748
0.114071
0.160205
0.054215
0.198955
0.054371
0.145759
0.111694
0.195110
0.145954
0.071854
0.166505
0.322737
0.100000
0.000000
0.000000
0.000000
0.000000
0.173781
0.270083
0.101834
0.326051
0.177819
0.167323
0.104883
0.053397
0.068726
0.072908
0.182155
0.064766
0.129625
0.123045
0.225023
0.139086
0.117181
0.115811
0.045937
0.059756
0.250562
0.275696
0.243643
0.100000
0.000000
0.000000
0.000000
0.000000
0.062872
0.073985
0.071754
0.092473
0.176729
0.099366
0.141356
0.088766
0.170184
0.258575
0.267401
0.144257
0.038390
0.240551
0.107095
0.308803
0.163203
0.169589
0.121384
0.101296
0.139989
0.153726
0.179933
0.100000
0.000000
0.000000
0.000000
0.000000
0.083891
0.107563
0.107275
0.205255
0.302055
0.123956
0.237051
0.018705
0.159182
0.110660
0.110125
0.075761
0.122708
0.090165
0.140077
0.030151
0.135670
0.068206
0.236633
0.214166
0.392511
0.447627
0.213888
0.100000
0.000000
0.000000
0.000000
0.000000
0.087975
0.299377
0.190182
0.223580
0.356618
0.096711
0.290405
0.160934
0.226121
0.067279
0.158742
0.126086
0.107317
0.104084
0.178776
0.238326
0.038409
0.231087
0.135125
0.335974
0.356103
0.614414
0.100000
0.100000
0.000000
0.000000
0.000000
0.000000
0.226603
0.139765
0.136912
0.175276
0.034145
0.174317
0.228933
0.051007
0.084233
0.191604
0.051718
0.176935
0.220196
0.106750
0.073166
0.118762
0.158357
0.183834
0.256472
0.096346
0.062362
0.130008
0.065353
0.100000
0.000000
0.000000
0.000000
0.000000
0.098506
0.072628
0.034704
0.211974
0.184492
0.038434
0.038059
0.112675
0.088726
0.086060
0.187032
0.051099
0.045055
0.060408
0.154070
0.122743
0.215801
0.129582
0.143371
0.036136
0.262084
0.286144
0.570537
0.100000
0.000000
0.000000
0.000000
0.000000
0.078166
0.052276
0.166876
0.266522
0.119230
0.104855
0.203022
0.136247
0.215856
0.219735
0.127070
0.207412
0.123014
0.067887
0.209405
0.172735
0.120373
0.065885
0.294806
0.221156
0.052864
0.275926
0.100000
0.100000
0.000000
0.000000
0.000000
0.000000
0.026904
0.048265
0.203849
0.082408
0.264615
0.131869
0.055222
0.156504
0.216411
0.031494
0.213138
0.120458
0.056940
0.106577
0.257688
0.045859
0.074502
0.153054
0.026828
0.280253
0.138471
0.114003
0.244121
0.100000
0.000000
0.000000
0.000000
0.000000
0.087052
0.141506
0.135697
0.168518
0.179066
0.211462
0.046224
0.247369
0.138190
0.050390
0.075682
0.118089
0.280420
0.285302
0.096092
0.068144
0.053990
0.071730
0.231195
0.300724
0.140779
0.141857
0.502911
0.100000
0.000000
0.000000
0.000000
0.000000
0.110928
0.145178
0.037803
0.123065
0.077943
0.023850
0.135990
0.200964
0.241150
0.132495
0.145193
0.197849
0.204325
0.104303
0.116765
0.203787
0.200388
0.178016
0.126411
0.082817
0.056572
0.337296
0.231599
0.100000
0.000000
0.000000
0.000000
0.000000
0.074421
0.195118
0.267662
0.165678
0.079529
0.148014
0.239598
0.228305
0.285780
0.010126
0.089680
0.301359
0.125885
0.059233
0.082925
0.150537
0.126424
0.190237
0.122085
0.184747
0.080859
0.096614
0.487697
0.100000
0.000000
0.000000
0.000000
0.000000
0.119248
0.190589
0.183116
0.120622
0.058157
0.258280
0.132528
0.081034
0.190397
0.148325
0.201353
0.278437
0.075691
0.089409
0.092823
0.154944
0.266511
0.068491
0.138331
0.219729
0.179701
0.166078
0.561504
0.100000
0.000000
0.000000
0.000000
0.000000
0.091722
0.236045
0.323728
0.148774
0.154408
0.186475
0.168310
0.145097
0.207727
0.176001
0.072145
0.111739
0.042591
0.081395
0.027678
0.085888
0.279072
0.156599
0.394086
0.021921
0.245131
0.238426
0.245191
0.100000
0.000000
0.000000
0.000000
0.000000
0.066297
0.240025
0.250535
0.291832
0.236320
0.378681
0.104343
0.161679
0.276164
0.279514
0.164319
0.223802
0.139019
0.146925
0.184241
0.140251
0.186936
0.119640
0.224384
0.175625
0.179633
0.469551
0.250546
0.100000
0.000000
0.000000
0.000000
0.000000
0.117950
0.096664
0.062670
0.065429
0.010811
0.243946
0.155311
0.125134
0.065603
0.043971
0.312961
0.064208
0.154527
0.144705
0.052270
0.134479
0.261325
0.310270
0.102474
0.151760
0.196778
0.141643
0.230901
0.100000
0.000000
0.000000
0.000000
0.000000
0.120815
0.074396
0.479692
0.099682
0.300893
0.085022
0.156008
0.099767
0.044322
0.018511
0.131858
0.170246
0.234459
0.183229
0.296555
0.094866
0.146613
0.190701
0.247711
0.354584
0.211418
0.784152
0.153630
0.100000
0.000000
0.000000
0.000000
0.000000
0.161739
0.164909
0.302894
0.137418
0.076832
0.088845
0.063274
0.250799
0.276261
0.039723
0.095057
0.035740
0.107071
0.210052
0.288394
0.334376
0.148718
0.143802
0.451748
0.322923
0.208741
0.351980
0.377024
0.100000
0.000000
0.000000
0.000000
0.000000
0.084668
0.134076
0.075355
0.126819
0.094329
0.010503
0.049727
0.177293
0.138941
0.155935
0.150796
0.018513
0.114168
0.223264
0.107766
0.171247
0.162885
0.244450
0.354721
0.133606
0.159258
0.371030
0.188531
0.100000
0.000000
0.000000
0.000000
0.000000
0.000000
0.000000
0.000000
0.000000
0.000000
0.000000
0.000000
0.000000
0.000000
0.000000
0.000000
0.000000
0.000000
0.000000
0.000000
0.000000
0.000000
0.000000
0.000000
0.000000
0.000000
0.000000
0.000000
0.000000
0.000000
0.000000
0.000000
0.000000
0.000000
0.000000
0.000000
0.000000
0.000000
0.000000
0.000000
0.000000
0.000000
0.000000
0.000000
0.000000
0.000000
0.000000
0.000000
0.000000
0.000000
0.000000
0.000000
0.000000
0.000000
0.000000
0.000000
0.000000
0.000000
0.000000
0.000000
0.000000
0.000000
0.000000
0.000000
0.000000
0.000000
0.000000
0.000000
0.000000
0.000000
0.000000
0.000000
0.000000
0.000000
0.000000
0.000000
0.000000
0.000000
0.000000
0.000000
0.000000
0.000000
0.000000
0.000000
0.000000
0.000000
0.000000
0.000000
0.000000
0.000000
0.000000
0.000000
0.000000
0.000000
0.000000
0.000000
0.000000
0.000000
0.000000
0.000000
0.000000
0.000000
0.000000
0.000000
0.000000
0.000000
0.000000
0.000000
0.000000
0.000000
0.000000
0.000000
0.000000
</DataArray>
<DataArray NumberOfComponents='1' type='Float32' Name='pressure' format='ascii'>
0.000000
0.000000
0.000000
0.000000
0.000000
0.000000
0.000000
0.000000
0.000000
0.000000
0.000000
0.000000
0.000000
0.000000
0.000000
0.000000
0.000000
0.000000
0.000000
0.000000
0.000000
0.000000
0.000000
0.000000
0.000000
0.000000
0.000000
0.000000
0.000000
0.000000
0.000000
0.000000
0.000000
0.000000
0.000000
0.000000
0.000000
0.000000
0.000000
0.000000
0.000000
0.000000
0.000000
0.000000
0.000000
0.000000
0.000000
0.000000
0.000000
0.000000
0.000000
0.000000
0.000000
0.000000
0.000000
0.000000
0.000000
0.000000
41572.273438
41444.687500
41409.203125
41892.371094
41538.699219
41586.097656
40887.179688
41230.187500
40192.324219
39920.398438
40001.656250
39117.972656
38550.664062
40253.808594
41637.605469
42180.726562
42315.140625
43831.660156
44510.582031
45750.593750
46049.511719
45621.000000
46416.101562
44927.148438
37626.187500
0.000000
0.000000
0.000000
41809.125000
40960.531250
40261.472656
42256.328125
41053.687500
41372.515625
39919.980469
41567.941406
40431.750000
39884.101562
40391.085938
38940.812500
37417.343750
40246.210938
42115.277344
41526.945312
40025.281250
43304.140625
42873.347656
45116.453125
46359.402344
45299.101562
45462.000000
48551.863281
47090.980469
32143.472656
0.000000
0.000000
43117.179688
42386.113281
42384.531250
40733.953125
41478.417969
40479.277344
40351.097656
39343.593750
40804.839844
40486.140625
39687.878906
39353.437500
40252.433594
41373.976562
43883.187500
44444.136719
45550.406250
48140.972656
47348.667969
46888.738281
48997.015625
49689.054688
0.000000
38755.437500
39804.589844
30344.164062
0.000000
0.000000
42645.863281
41244.398438
41530.507812
41397.023438
41625.375000
41411.277344
40931.773438
40346.238281
39134.953125
40021.273438
39451.101562
40445.851562
39064.527344
41184.101562
41260.457031
42317.351562
41470.644531
46114.734375
46231.625000
39196.992188
49746.886719
36654.425781
0.000000
37372.035156
37238.300781
0.000000
0.000000
0.000000
42092.621094
41982.769531
40490.347656
41896.921875
39800.027344
40278.023438
39920.957031
38933.414062
39288.816406
40325.683594
40271.164062
40048.593750
38935.265625
40718.101562
39174.378906
41760.449219
41154.875000
39502.199219
37060.371094
40646.519531
43507.976562
43054.976562
46349.910156
33422.566406
19660.044922
0.000000
0.000000
0.000000
41149.816406
40942.000000
41216.636719
40289.718750
39906.597656
41276.316406
40470.871094
41092.851562
39619.484375
38305.343750
39794.792969
40509.550781
38627.054688
39008.011719
39311.753906
37534.554688
37059.257812
40022.765625
41949.386719
40776.722656
34568.214844
32461.710938
39923.777344
46776.738281
37533.300781
26948.576172
0.000000
0.000000
41753.410156
41603.800781
40570.722656
41734.519531
40552.781250
39222.628906
39883.089844
38664.742188
39874.417969
38014.394531
39574.972656
39481.281250
38960.449219
39845.109375
35201.238281
36420.765625
32121.410156
34870.925781
36174.832031
31196.005859
29024.029297
33197.167969
34483.171875
36328.574219
45270.921875
35879.750000
0.000000
0.000000
41659.101562
41561.964844
40667.660156
40318.675781
39716.472656
40483.218750
40080.695312
39533.410156
40122.992188
39084.843750
39007.390625
38976.898438
37452.445312
37074.285156
38032.109375
35065.703125
35419.429688
32878.636719
27617.636719
30821.716797
28556.386719
30304.117188
31838.115234
33978.933594
40802.039062
41319.515625
0.000000
0.000000
41778.824219
40975.246094
41719.078125
39812.515625
40541.847656
40047.488281
40725.578125
40099.867188
39910.636719
40555.191406
39152.972656
39714.289062
39133.246094
38335.695312
37179.578125
36570.378906
33701.320312
31068.187500
29455.886719
28529.279297
0.000000
27966.359375
34567.890625
35307.425781
48922.234375
41752.847656
0.000000
0.000000
41139.109375
41065.769531
40700.257812
41189.929688
40266.664062
41385.859375
39909.109375
39214.085938
39165.808594
39346.464844
38135.519531
37874.195312
38274.246094
38175.546875
38022.113281
38083.617188
36083.433594
33292.542969
31584.503906
30975.453125
35512.437500
38356.273438
39130.597656
38137.269531
47193.140625
41700.640625
0.000000
0.000000
40562.886719
40612.066406
40557.714844
41032.210938
39215.109375
39949.222656
39548.574219
40188.121094
38951.425781
38668.160156
40265.175781
38869.929688
38434.609375
37135.734375
37385.667969
35382.304688
36914.843750
34295.621094
33990.742188
34855.597656
35785.339844
39457.769531
41826.269531
42395.859375
44567.386719
39944.984375
0.000000
0.000000
40354.757812
40809.906250
40312.281250
40592.027344
40670.566406
40279.667969
39818.046875
39840.187500
38080.144531
39076.417969
39314.679688
38595.687500
38204.492188
37824.277344
36804.484375
35215.003906
35337.750000
35531.050781
35260.996094
35511.425781
38563.183594
39220.437500
39655.761719
40393.023438
35967.980469
38279.542969
0.000000
0.000000
39421.968750
39642.832031
40528.109375
39761.050781
40259.035156
39722.121094
38925.289062
39481.230469
38215.445312
39404.886719
38373.703125
38577.917969