<?xml version='1.0' encoding='UTF-8'?>
<VTKFile xmlns='VTK' byte_order='LittleEndian' version='0.1' type='UnstructuredGrid'>
<UnstructuredGrid>
<Piece NumberOfCells='1344' NumberOfPoints='1344'>
<Points>
<DataArray NumberOfComponents='3' type='Float32' Name='Position' format='ascii'>
-0.075000 -0.075000 0.000000
-0.075000 -0.050000 0.000000
-0.075000 -0.025000 0.000000
-0.075000 0.000000 0.000000
-0.075000 0.025000 0.000000
-0.075000 0.050000 0.000000
-0.075000 0.075000 0.000000
-0.075000 0.100000 0.000000
-0.075000 0.125000 0.000000
-0.075000 0.150000 0.000000
-0.075000 0.175000 0.000000
-0.075000 0.200000 0.000000
-0.075000 0.225000 0.000000
-0.075000 0.250000 0.000000
-0.075000 0.275000 0.000000
-0.075000 0.300000 0.000000
-0.075000 0.325000 0.000000
-0.075000 0.350000 0.000000
-0.075000 0.375000 0.000000
-0.075000 0.400000 0.000000
-0.075000 0.425000 0.000000
-0.075000 0.450000 0.000000
-0.075000 0.475000 0.000000
-0.075000 0.500000 0.000000
-0.075000 0.525000 0.000000
-0.075000 0.550000 0.000000
-0.075000 0.575000 0.000000
-0.075000 0.600000 0.000000
-0.050000 -0.075000 0.000000
-0.050000 -0.050000 0.000000
-0.050000 -0.025000 0.000000
-0.050000 0.000000 0.000000
-0.050000 0.025000 0.000000
-0.050000 0.050000 0.000000
-0.050000 0.075000 0.000000
-0.050000 0.100000 0.000000
-0.050000 0.125000 0.000000
-0.050000 0.150000 0.000000
-0.050000 0.175000 0.000000
-0.050000 0.200000 0.000000
-0.050000 0.225000 0.000000
-0.050000 0.250000 0.000000
-0.050000 0.275000 0.000000
-0.050000 0.300000 0.000000
-0.050000 0.325000 0.000000
-0.050000 0.350000 0.000000
-0.050000 0.375000 0.000000
-0.050000 0.400000 0.000000
-0.050000 0.425000 0.000000
-0.050000 0.450000 0.000000
-0.050000 0.475000 0.000000
-0.050000 0.500000 0.000000
-0.050000 0.525000 0.000000
-0.050000 0.550000 0.000000
-0.050000 0.575000 0.000000
-0.050000 0.600000 0.000000
-0.025000 -0.075000 0.000000
-0.025000 -0.050000 0.000000
-0.025000 -0.025000 0.000000
-0.025000 0.000000 0.000000
-0.025000 0.025000 0.000000
-0.025000 0.050000 0.000000
-0.025000 0.075000 0.000000
-0.025000 0.100000 0.000000
-0.025000 0.125000 0.000000
-0.025000 0.150000 0.000000
-0.025000 0.175000 0.000000
-0.025000 0.200000 0.000000
-0.025000 0.225000 0.000000
-0.025000 0.250000 0.000000
-0.025000 0.275000 0.000000
-0.025000 0.300000 0.000000
-0.025000 0.325000 0.000000
-0.025000 0.350000 0.000000
-0.025000 0.375000 0.000000
-0.025000 0.400000 0.000000
-0.025000 0.425000 0.000000
-0.025000 0.450000 0.000000
-0.025000 0.475000 0.000000
-0.025000 0.500000 0.000000
-0.025000 0.525000 0.000000
-0.025000 0.550000 0.000000
-0.025000 0.575000 0.000000
-0.025000 0.600000 0.000000
0.000000 -0.075000 0.000000
0.000000 -0.050000 0.000000
0.000000 -0.025000 0.000000
0.000000 0.000000 0.000000
0.000000 0.025000 0.000000
0.000000 0.050000 0.000000
0.000000 0.075000 0.000000
0.000000 0.100000 0.000000
0.000000 0.125000 0.000000
0.000000 0.150000 0.000000
0.000000 0.175000 0.000000
0.000000 0.200000 0.000000
0.000000 0.225000 0.000000
0.000000 0.250000 0.000000
0.000000 0.275000 0.000000
0.000000 0.300000 0.000000
0.000000 0.325000 0.000000
0.000000 0.350000 0.000000
0.000000 0.375000 0.000000
0.000000 0.400000 0.000000
0.000000 0.425000 0.000000
0.000000 0.450000 0.000000
0.000000 0.475000 0.000000
0.000000 0.500000 0.000000
0.000000 0.525000 0.000000
0.000000 0.550000 0.000000
0.000000 0.575000 0.000000
0.000000 0.600000 0.000000
0.025000 -0.075000 0.000000
0.025000 -0.050000 0.000000
0.025000 -0.025000 0.000000
0.025000 0.000000 0.000000
0.022939 0.027305 0.000000
0.041100 0.051882 0.000000
0.021842 0.064016 0.000000
0.025832 0.115942 0.000000
0.024177 0.171026 0.000000
0.029849 0.193158 0.000000
0.022156 0.218075 0.000000
0.027132 0.242582 0.000000
0.026055 0.266913 0.000000
0.024566 0.291256 0.000000
0.023964 0.316381 0.000000
0.024620 0.342649 0.000000
0.026786 0.367033 0.000000
0.023176 0.389298 0.000000
0.025122 0.419385 0.000000
0.023411 0.446631 0.000000
0.025081 0.472060 0.000000
0.024264 0.496919 0.000000
0.021145 0.540277 0.000000
0.028770 0.562754 0.000000
0.031045 0.586754 0.000000
0.013913 0.600000 0.000000
0.081971 0.600000 0.000000
0.101550 0.600000 0.000000
0.050000 -0.075000 0.000000
0.050000 -0.050000 0.000000
0.050000 -0.025000 0.000000
0.050000 0.000000 0.000000
0.044540 0.025346 0.000000
0.063847 0.053388 0.000000
0.048533 0.079599 0.000000
0.026535 0.090877 0.000000
0.022617 0.140068 0.000000
0.043213 0.154147 0.000000
0.049941 0.184177 0.000000
0.047920 0.224537 0.000000
0.048322 0.258950 0.000000
0.052683 0.284825 0.000000
0.049582 0.307062 0.000000
0.049628 0.332605 0.000000
0.051761 0.354137 0.000000
0.053867 0.379651 0.000000
0.045789 0.403449 0.000000
0.045714 0.430533 0.000000
0.051064 0.455341 0.000000
0.051769 0.476773 0.000000
0.031928 0.517987 0.000000
0.050398 0.544859 0.000000
0.056330 0.575331 0.000000
0.044866 0.600000 0.000000
0.111570 0.581573 0.000000
0.124229 0.600000 0.000000
0.075000 -0.075000 0.000000
0.075000 -0.050000 0.000000
0.075000 -0.025000 0.000000
0.075000 0.000000 0.000000
0.069019 0.025428 0.000000
0.091228 0.050301 0.000000
0.075697 0.074072 0.000000
0.052462 0.130769 0.000000
0.075155 0.127167 0.000000
0.074107 0.173090 0.000000
0.061579 0.203820 0.000000
0.066177 0.237712 0.000000
0.074888 0.258487 0.000000
0.078490 0.282923 0.000000
0.075387 0.306221 0.000000
0.076740 0.331778 0.000000
0.079173 0.355775 0.000000
0.076148 0.381169 0.000000
0.070172 0.406019 0.000000
0.072113 0.433355 0.000000
0.076659 0.459744 0.000000
0.076422 0.497079 0.000000
0.053201 0.499704 0.000000
0.059551 0.525039 0.000000
0.072106 0.552538 0.000000
0.062434 0.600000 0.000000
0.143496 0.600000 0.000000
0.162823 0.600000 0.000000
0.100000 -0.075000 0.000000
0.100000 -0.050000 0.000000
0.100000 -0.025000 0.000000
0.100000 0.000000 0.000000
0.093139 0.022830 0.000000
0.098760 0.073336 0.000000
0.073528 0.100022 0.000000
0.048906 0.103677 0.000000
0.097397 0.139678 0.000000
0.069133 0.152803 0.000000
0.095316 0.185940 0.000000
0.081616 0.212160 0.000000
0.095570 0.238062 0.000000
0.103640 0.262334 0.000000
0.104263 0.286126 0.000000
0.100398 0.312021 0.000000
0.100260 0.334621 0.000000
0.100586 0.367447 0.000000
0.104276 0.391021 0.000000
0.092117 0.413805 0.000000
0.094540 0.443004 0.000000
0.094004 0.474275 0.000000
0.097246 0.503386 0.000000
0.110137 0.530758 0.000000
0.086208 0.525277 0.000000
0.083419 0.577516 0.000000
0.165076 0.576648 0.000000
0.182648 0.600000 0.000000
0.125000 -0.075000 0.000000
0.125000 -0.050000 0.000000
0.125000 -0.025000 0.000000
0.125000 0.000000 0.000000
0.110285 0.039286 0.000000
0.124890 0.062215 0.000000
0.111395 0.095166 0.000000
0.095139 0.109038 0.000000
0.121000 0.133281 0.000000
0.103729 0.160320 0.000000
0.117206 0.177352 0.000000
0.105807 0.208834 0.000000
0.115811 0.232310 0.000000
0.126399 0.262188 0.000000
0.126388 0.294209 0.000000
0.126243 0.321657 0.000000
0.125231 0.344121 0.000000
0.124134 0.369779 0.000000
0.127219 0.399310 0.000000
0.114861 0.422312 0.000000
0.117609 0.453441 0.000000
0.115742 0.483432 0.000000
0.125399 0.504884 0.000000
0.120611 0.556674 0.000000
0.139071 0.575363 0.000000
0.095472 0.551673 0.000000
0.192541 0.581072 0.000000
0.204565 0.600000 0.000000
0.150000 -0.075000 0.000000
0.150000 -0.050000 0.000000
0.150000 -0.025000 0.000000
0.150000 0.000000 0.000000
0.132834 0.023020 0.000000
0.141019 0.044465 0.000000
0.139601 0.077690 0.000000
0.127018 0.111140 0.000000
0.146228 0.127621 0.000000
0.136322 0.159981 0.000000
0.149351 0.182311 0.000000
0.128786 0.205181 0.000000
0.144075 0.225308 0.000000
0.143592 0.249403 0.000000
0.146641 0.283793 0.000000
0.151516 0.306333 0.000000
0.152428 0.332768 0.000000
0.147638 0.356519 0.000000
0.146186 0.384050 0.000000
0.146475 0.416918 0.000000
0.133256 0.438127 0.000000
0.137591 0.469654 0.000000
0.147546 0.488418 0.000000
0.150119 0.516506 0.000000
0.134024 0.535000 0.000000
0.151633 0.551676 0.000000
0.219476 0.586502 0.000000
0.232758 0.600000 0.000000
0.175000 -0.075000 0.000000
0.175000 -0.050000 0.000000
0.175000 -0.025000 0.000000
0.175000 0.000000 0.000000
0.159255 0.025601 0.000000
0.169957 0.048442 0.000000
0.160764 0.071707 0.000000
0.152543 0.099530 0.000000
0.168365 0.123980 0.000000
0.155793 0.151945 0.000000
0.174154 0.178185 0.000000
0.155737 0.202075 0.000000
0.177626 0.216028 0.000000
0.166596 0.237866 0.000000
0.166234 0.266782 0.000000
0.177333 0.288354 0.000000
0.176020 0.314352 0.000000
0.175943 0.338580 0.000000
0.174427 0.363970 0.000000
0.168973 0.386534 0.000000
0.171717 0.410105 0.000000
0.161737 0.433752 0.000000
0.163662 0.456361 0.000000
0.174051 0.478528 0.000000
0.168776 0.503377 0.000000
0.170061 0.537810 0.000000
0.244695 0.576835 0.000000
0.251185 0.600000 0.000000
0.200000 -0.075000 0.000000
0.200000 -0.050000 0.000000
0.200000 -0.025000 0.000000
0.200000 0.000000 0.000000
0.185593 0.023779 0.000000
0.194383 0.047638 0.000000
0.186741 0.075316 0.000000
0.176634 0.097275 0.000000
0.192651 0.122542 0.000000
0.180476 0.151217 0.000000
0.197841 0.167818 0.000000
0.191878 0.197299 0.000000
0.204379 0.218514 0.000000
0.189423 0.248017 0.000000
0.192878 0.269951 0.000000
0.198581 0.302435 0.000000
0.201470 0.333774 0.000000
0.199206 0.357062 0.000000
0.198501 0.384587 0.000000
0.196767 0.406524 0.000000
0.196185 0.430782 0.000000
0.187405 0.452381 0.000000
0.198873 0.478795 0.000000
0.192929 0.505578 0.000000
0.190987 0.529308 0.000000
0.185830 0.555576 0.000000
0.271987 0.577032 0.000000
0.271074 0.600000 0.000000
0.225000 -0.075000 0.000000
0.225000 -0.050000 0.000000
0.225000 -0.025000 0.000000
0.225000 0.000000 0.000000
0.210649 0.027035 0.000000
0.223367 0.047310 0.000000
0.209691 0.070939 0.000000
0.203430 0.099609 0.000000
0.218455 0.124282 0.000000
0.206994 0.146831 0.000000
0.230676 0.162507 0.000000
0.214899 0.187540 0.000000
0.226928 0.216724 0.000000
0.212404 0.244062 0.000000
0.223444 0.265982 0.000000
0.217211 0.291687 0.000000
0.221372 0.319490 0.000000
0.228551 0.348434 0.000000
0.219181 0.371375 0.000000
[...]
<PointData>
<DataArray NumberOfComponents='1' type='Int32' Name='ParticleType' format='ascii'>
3
3
3
3
3
3
3
3
3
3
3
3
3
3
3
3
3
3
3
3
3
3
3
3
3
3
3
3
3
3
3
3
3
3
3
3
3
3
3
3
3
3
3
3
3
3
3
3
3
3
3
3
3
3
3
3
3
3
2
2
2
2
2
2
2
2
2
2
2
2
2
2
2
2
2
2
2
2
2
2
2
2
2
2
3
3
2
2
2
2
2
2
2
2
2
2
2
2
2
2
2
2
2
2
2
2
2
2
2
2
2
2
3
3
2
2
0
0
0
0
0
0
0
0
0
0
0
0
0
0
0
0
0
0
0
0
0
0
0
0
3
3
2
2
0
0
0
0
0
0
0
0
0
0
0
0
0
0
0
0
0
0
0
0
0
0
0
0
3
3
2
2
0
0
0
0
0
0
0
0
0
0
0
0
0
0
0
0
0
0
0
0
0
0
0
0
3
3
2
2
0
0
0
0
0
0
0
0
0
0
0
0
0
0
0
0
0
0
0
0
0
0
0
0
3
3
2
2
0
0
0
0
0
0
0
0
0
0
0
0
0
0
0
0
0
0
0
0
0
0
0
0
3
3
2
2
0
0
0
0
0
0
0
0
0
0
0
0
0
0
0
0
0
0
0
0
0
0
0
0
3
3
2
2
0
0
0
0
0
0
0
0
0
0
0
0
0
0
0
0
0
0
0
0
0
0
0
0
3
3
2
2
0
0
0
0
0
0
0
0
0
0
0
0
0
0
0
0
0
0
0
0
0
0
0
0
3
3
2
2
0
0
0
0
0
0
0
0
0
0
0
0
0
0
0
0
0
0
0
0
0
0
0
0
3
3
2
2
0
0
0
0
0
0
0
0
0
0
0
0
0
0
0
0
0
0
0
0
0
0
0
0
3
3
2
2
0
0
0
0
0
0
0
0
0
0
0
0
0
0
0
0
0
0
0
0
0
0
0
0
3
3
2
2
0
0
0
0
0
0
0
0
0
0
0
0
0
0
0
0
0
0
0
0
0
0
0
0
3
3
2
2
0
0
0
0
0
0
0
0
0
0
0
0
0
0
0
0
0
0
0
0
0
0
0
0
3
3
2
2
0
0
0
0
0
0
0
0
0
0
0
0
0
0
0
0
0
0
0
0
0
0
0
0
3
3
2
2
0
0
0
0
0
0
0
0
0
0
0
0
0
0
0
0
0
0
0
0
0
0
0
0
3
3
2
2
0
0
0
0
0
0
0
0
0
0
0
0
0
0
0
0
0
0
0
0
0
0
0
0
3
3
2
2
0
0
0
0
0
0
0
0
0
0
0
0
0
0
0
0
0
0
0
0
0
0
0
0
3
3
2
2
0
0
0
0
0
0
0
0
0
0
0
0
0
0
0
0
0
0
0
0
0
0
0
0
3
3
2
2
0
0
0
0
0
0
0
0
0
0
0
0
0
0
0
0
0
0
0
0
0
0
0
0
3
3
2
2
0
0
0
0
0
0
0
0
0
0
0
0
0
0
0
0
0
0
0
0
0
0
0
0
3
3
2
2
0
0
0
0
0
0
0
0
0
0
0
0
0
0
0
0
0
0
0
0
0
0
0
0
3
3
2
2
0
0
0
0
0
0
0
0
0
0
0
0
0
0
0
0
0
0
0
0
0
0
0
0
3
3
2
2
0
0
0
0
0
0
0
0
0
0
0
0
0
0
0
0
0
0
0
0
0
0
0
0
3
3
2
2
0
0
0
0
0
0
0
0
0
0
0
0
0
0
0
0
0
0
0
0
0
0
0
0
3
3
2
2
0
0
0
0
0
0
0
0
0
0
0
0
0
0
0
0
0
0
0
0
0
0
0
0
3
3
2
2
0
0
0
0
0
0
0
0
0
0
0
0
0
0
0
0
0
0
0
0
0
0
0
0
3
3
2
2
0
0
0
0
0
0
0
0
0
0
0
0
0
0
0
0
0
0
0
0
0
0
0
0
3
3
2
2
0
0
0
0
0
0
0
0
0
0
0
0
0
0
0
0
0
0
0
0
0
0
0
0
3
3
2
2
0
0
0
0
0
0
0
0
0
0
0
0
0
0
0
0
0
0
0
0
0
0
0
0
3
3
2
2
0
0
0
0
0
0
0
0
0
0
0
0
0
0
0
0
0
0
0
0
0
0
0
0
3
3
2
2
0
0
0
0
0
0
0
0
0
0
0
0
0
0
0
0
0
0
0
0
0
0
0
0
3
3
2
2
0
0
0
0
0
0
0
0
0
0
0
0
0
0
0
0
0
0
0
0
0
0
0
0
3
3
2
2
0
0
0
0
0
0
0
0
0
0
0
0
0
0
0
0
0
0
0
0
0
0
0
0
3
3
2
2
0
0
0
0
0
0
0
0
0
0
0
0
0
0
0
0
0
0
0
0
0
0
0
0
3
3
2
2
0
0
0
0
0
0
0
0
0
0
0
0
0
0
0
0
0
0
0
0
0
0
0
0
3
3
2
2
0
0
0
0
0
0
0
0
0
0
0
0
0
0
0
0
0
0
0
0
0
0
0
0
3
3
2
2
0
0
0
0
0
0
0
0
0
0
0
0
0
0
0
0
0
0
0
0
0
0
0
0
3
3
2
2
0
0
0
0
0
0
0
0
0
0
0
0
0
0
0
0
0
0
0
0
0
0
0
0
3
3
2
2
0
0
0
0
0
0
0
0
0
0
0
0
0
0
0
0
0
0
0
0
0
0
0
0
3
3
2
2
0
0
0
0
0
0
0
0
0
0
0
0
0
0
0
0
0
0
0
0
0
0
0
0
3
3
2
2
2
2
2
2
2
2
2
2
2
2
2
2
2
2
2
2
2
2
2
2
2
2
2
2
3
3
2
2
2
2
2
2
2
2
2
2
2
2
2
2
2
2
2
2
2
2
2
2
2
2
2
2
3
3
3
3
3
3
3
3
3
3
3
3
3
3
3
3
3
3
3
3
3
3
3
3
3
3
3
3
3
3
3
3
3
3
3
3
3
3
3
3
3
3
3
3
3
3
3
3
3
3
3
3
3
3
3
3
</DataArray>
<DataArray NumberOfComponents='1' type='Float32' Name='Velocity' format='ascii'>
0.000000
0.000000
0.000000
0.000000
0.000000
0.000000
0.000000
0.000000
0.000000
0.000000
0.000000
0.000000
0.000000
0.000000
0.000000
0.000000
0.000000
0.000000
0.000000
0.000000
0.000000
0.000000
0.000000
0.000000
0.000000
0.000000
0.000000
0.000000
0.000000
0.000000
0.000000
0.000000
0.000000
0.000000
0.000000
0.000000
0.000000
0.000000
0.000000
0.000000
0.000000
0.000000
0.000000
0.000000
0.000000
0.000000
0.000000
0.000000
0.000000
0.000000
0.000000
0.000000
0.000000
0.000000
0.000000
0.000000
0.000000
0.000000
0.000000
0.000000
0.000000
0.000000
0.000000
0.000000
0.000000
0.000000
0.000000
0.000000
0.000000
0.000000
0.000000
0.000000
0.000000
0.000000
0.000000
0.000000
0.000000
0.000000
0.000000
0.000000
0.000000
0.000000
0.000000
0.000000
0.000000
0.000000
0.000000
0.000000
0.000000
0.000000
0.000000
0.000000
0.000000
0.000000
0.000000
0.000000
0.000000
0.000000
0.000000
0.000000
0.000000
0.000000
0.000000
0.000000
0.000000
0.000000
0.000000
0.000000
0.000000
0.000000
0.000000
0.000000
0.000000
0.000000
0.000000
0.000000
0.039363
0.175491
0.051001
0.022888
0.219808
0.240842
0.273626
0.296058
0.162370
0.139437
0.186031
0.142562
0.200660
0.116599
0.214455
0.220395
0.135266
0.119131
0.140075
0.197781
0.100000
0.100000
0.100000
0.100000
0.000000
0.000000
0.000000
0.000000
0.068569
0.180386
0.133530
0.130349
0.030615
0.227615
0.115865
0.085002
0.130301
0.145072
0.168206
0.137147
0.133171
0.118987
0.171427
0.082522
0.074135
0.093202
0.230857
0.336634
0.100000
0.100000
0.100000
0.100000
0.000000
0.000000
0.000000
0.000000
0.116640
0.137644
0.177114
0.117355
0.105841
0.214729
0.180599
0.072302
0.064075
0.110675
0.081526
0.078045
0.091111
0.117915
0.100693
0.304271
0.195642
0.327371
0.171590
0.396284
0.360818
0.100000
0.100000
0.100000
0.000000
0.000000
0.000000
0.000000
0.003166
0.057434
0.227418
0.217208
0.212719
0.112446
0.190929
0.152625
0.025931
0.128785
0.083994
0.044237
0.177851
0.110212
0.040109
0.055071
0.129807
0.384020
0.260117
0.088077
0.187948
0.100000
0.100000
0.100000
0.000000
0.000000
0.000000
0.000000
0.083093
0.142604
0.232599
0.053076
0.045172
0.266924
0.116086
0.082974
0.030166
0.060588
0.052341
0.159094
0.045015
0.047250
0.023728
0.019496
0.022397
0.044922
0.197041
0.392129
0.100000
0.322556
0.100000
0.100000
0.000000
0.000000
0.000000
0.000000
0.112360
0.271378
0.029521
0.161707
0.071679
0.014490
0.082610
0.058899
0.147350
0.147431
0.113518
0.111057
0.102795
0.163023
0.175531
0.124157
0.088660
0.150643
0.250764
0.380887
0.230703
0.097327
0.100000
0.100000
0.000000
0.000000
0.000000
0.000000
0.070973
0.165790
0.120356
0.076264
0.159967
0.099177
0.138293
0.201428
0.128918
0.040713
0.056598
0.058547
0.098593
0.030997
0.132695
0.156826
0.174644
0.121569
0.076751
0.190738
0.201742
0.125356
0.100000
0.100000
0.000000
0.000000
0.000000
0.000000
0.037099
0.100350
0.064440
0.037419
0.154392
0.101955
0.216862
0.059255
0.108340
0.083841
0.088254
0.124350
0.049111
0.179561
0.082837
0.122740
0.263431
0.123648
0.142603
0.105535
0.269381
0.178020
0.100000
0.100000
0.000000
0.000000
0.000000
0.000000
0.046185
0.083446
0.142628
0.036742
0.192939
0.128045
0.097600
0.037379
0.087001
0.064151
0.032526
0.105370
0.202257
0.184647
0.062505
0.224404
0.191587
0.163109
0.256867
0.094306
0.354094
0.424151
0.221965
0.100000
0.000000
0.000000
0.000000
0.000000
0.043938
0.088839
0.051978
0.010133
0.091888
0.245014
0.141225
0.107623
0.098901
0.261650
0.073285
0.203640
0.067714
0.156933
0.132321
0.230669
0.152719
0.144972
0.264738
0.113518
0.155801
0.257108
0.100000
0.100000
0.000000
0.000000
0.000000
0.000000
0.024671
0.142422
0.059792
0.022668
0.085332
0.045079
0.099644
0.155168
0.144833
0.167979
0.074909
0.087213
0.088307
0.083812
0.206617
0.093113
0.116460
0.219522
0.324802
0.260337
0.116440
0.145311
0.100000
0.100000
0.000000
0.000000
0.000000
0.000000
0.127924
0.181679
0.032296
0.066032
0.074987
0.090499
0.136408
0.066165
0.089724
0.061818
0.119634
0.181005
0.172470
0.041370
0.183406
0.144437
0.119441
0.215590
0.129299
0.135518
0.073944
0.163964
0.100000
0.100000
0.000000
0.000000
0.000000
0.000000
0.049798
0.167940
0.146298
0.075773
0.057889
0.282612
0.045724
0.244957
0.192365
0.128676
0.180523
0.033708
0.278124
0.286110
0.059920
0.116963
0.144254
0.252567
0.161058
0.074911
0.317673
0.154564
0.100000
0.100000
0.000000
0.000000
0.000000
0.000000
0.110097
0.075601
0.135559
0.152769
0.055263
0.112590
0.100397
0.067616
0.062934
0.174435
0.058891
0.126151
0.039790
0.235848
0.291142
0.480246
0.036126
0.099378
0.205044
0.153265
0.216491
0.203060
0.100000
0.100000
0.000000
0.000000
0.000000
0.000000
0.052228
0.106019
0.067153
0.147146
0.080876
0.150610
0.097749
0.101755
0.071507
0.142937
0.128040
0.157478
0.196003
0.033528
0.226464
0.023919
0.221828
0.231608
0.226297
0.135142
0.188590
0.039436
0.100000
0.100000
0.000000
0.000000
0.000000
0.000000
0.049496
0.074422
0.158574
0.100597
0.046458
0.155785
0.080179
0.068171
0.101691
0.079638
0.030199
0.140720
0.069743
0.056815
0.201697
0.108698
0.181531
0.247011
0.264979
0.240417
0.165120
0.302314
0.100000
0.100000
0.000000
0.000000
0.000000
0.000000
0.051512
0.080350
0.075275
0.069992
0.035178
0.070774
0.063928
0.095180
0.074837
0.022566
0.131432
0.144371
0.033539
0.114634
0.129970
0.188023
0.148867
0.164504
0.146763
0.124908
0.435484
0.532320
0.100000
0.100000
0.000000
0.000000
0.000000
0.000000
0.056537
0.063632
0.137055
0.109320
0.043485
0.095675
0.028293
0.074642
0.107504
0.041228
0.086747
0.139666
0.043768
0.109006
0.093809
0.092038
0.135213
0.040027
0.142704
0.344833
0.197598
0.139777
0.100000
0.100000
0.000000
0.000000
0.000000
0.000000
0.062645
0.063618
0.114988
0.056725
0.039495
0.065217
0.124004
0.033412
0.116794
0.126971
0.099377
0.035002
0.104028
0.156939
0.116864
0.037970
0.290884
0.223785
0.233090
0.258727
0.103790
0.211515
0.100000
0.100000
0.000000
0.000000
0.000000
0.000000
0.036419
0.041998
0.055316
0.119991
0.054846
0.045332
0.076712
0.146560
0.121190
0.069295
0.086595
0.127950
0.045284
0.069455
0.071150
0.113323
0.453787
0.122484
0.281799
0.369275
0.042208
0.300171
0.100000
0.100000
0.000000
0.000000
0.000000
0.000000
0.058263
0.051078
0.067933
0.124274
0.069819
0.064633
0.154185
0.079053
0.079428
0.041237
0.110513
0.114654
0.087847
0.066814
0.082785
0.041862
0.264969
0.065310
0.209283
0.025571
0.171945
0.126477
0.100000
0.100000
0.000000
0.000000
0.000000
0.000000
0.056703
0.038072
0.061151
0.076991
0.071208
0.022186
0.103555
0.131790
0.116228
0.070160
0.139112
0.129882
0.124324
0.261400
0.088994
0.090567
0.189835
0.099935
0.219495
0.421638
0.141312
0.196923
0.100000
0.100000
0.000000
0.000000
0.000000
0.000000
0.069024
0.073379
0.052406
0.056132
0.053902
0.101237
0.066772
0.110159
0.172122
0.119999
0.244570
0.083831
0.142551
0.043053
0.064897
0.120203
0.087455
0.214241
0.277753
0.100213
0.246556
0.215757
0.100000
0.100000
0.000000
0.000000
0.000000
0.000000
0.044788
0.056952
0.049417
0.063455
0.085035
0.089411
0.044187
0.101562
0.072272
0.188949
0.102738
0.059420
0.171253
0.157206
0.207050
0.208233
0.144977
0.092691
0.110943
0.193212
0.362792
0.196017
0.100000
0.100000
0.000000
0.000000
0.000000
0.000000
0.101770
0.075281
0.024560
0.104532
0.057491
0.195550
0.075996
0.127884
0.157561
0.059553
0.100314
0.164718
0.066957
0.116601
0.063592
0.319353
0.262031
0.224543
0.192082
0.113751
0.131865
0.395319
0.100000
0.100000
0.000000
0.000000
0.000000
0.000000
0.054499
0.048291
0.091251
0.037923
0.090083
0.065162
0.126819
0.181795
0.111047
0.089484
0.053227
0.155612
0.195945
0.143183
0.065178
0.289956
0.313186
0.155260
0.123935
0.150294
0.277033
0.235919
0.100000
0.100000
0.000000
0.000000
0.000000
0.000000
0.073903
0.094132
0.058179
0.064148
0.062113
0.099425
0.082261
0.179020
0.043797
0.179442
0.052801
0.184998
0.114139
0.108543
0.163952
0.033284
0.123998
0.188567
0.134416
0.191303
0.065668
0.131238
0.100000
0.100000
0.000000
0.000000
0.000000
0.000000
0.070026
0.205468
0.051265
0.109680
0.030498
0.153864
0.132320
0.012941
0.165927
0.271226
0.068494
0.073111
0.211432
0.090092
0.098068
0.052404
0.341034
0.157703
0.113320
0.281462
0.172958
0.155991
0.100000
0.100000
0.000000
0.000000
0.000000
0.000000
0.099362
0.042539
0.029989
0.048457
0.059873
0.140002
0.150596
0.056967
0.162727
0.070149
0.126637
0.201951
0.037881
0.185541
0.254030
0.234546
0.101314
0.213949
0.136721
0.306392
0.127809
0.315557
0.100000
0.100000
0.000000
0.000000
0.000000
0.000000
0.088983
0.139606
0.057912
0.144685
0.081204
0.084085
0.256557
0.068375
0.096894
0.152652
0.129071
0.155916
0.249747
0.249311
0.082848
0.213599
0.111905
0.108857
0.149411
0.146802
0.318411
0.282556
0.100000
0.100000
0.000000
0.000000
0.000000
0.000000
0.121656
0.078713
0.045408
0.098759
0.130597
0.290851
0.115995
0.082682
0.160940
0.129036
0.141385
0.262211
0.041669
0.041581
0.115266
0.094630
0.302401
0.214924
0.069772
0.142345
0.074858
0.117846
0.100000
0.100000
0.000000
0.000000
0.000000
0.000000
0.051789
0.158295
0.100622
0.124036
0.155561
0.094434
0.035028
0.172902
0.227480
0.127816
0.209255
0.103633
0.084088
0.020099
0.132925
0.014748
0.129507
0.041890
0.053857
0.327141
0.115351
0.377607
0.166135
0.100000
0.000000
0.000000
0.000000
0.000000
0.131853
0.046566
0.139490
0.067950
0.080841
0.148213
0.071375
0.061868
0.232120
0.174601
0.237035
0.103571
0.302795
0.170203
0.144169
0.004009
0.127478
0.146225
0.157017
0.159361
0.419506
0.333778
0.100000
0.100000
0.000000
0.000000
0.000000
0.000000
0.059952
0.086522
0.037743
0.198067
0.346345
0.125716
0.242000
0.121708
0.091044
0.112192
0.168831
0.123473
0.139730
0.139432
0.079242
0.135048
0.088017
0.301167
0.040556
0.259227
0.086459
0.178957
0.072062
0.100000
0.000000
0.000000
0.000000
0.000000
0.122325
0.064933
0.099536
0.140725
0.122477
0.135230
0.038646
0.173431
0.206938
0.061506
0.178738
0.231077
0.227434
0.232128
0.266208
0.207785
0.078292
0.088446
0.144602
0.137735
0.113464
0.209902
0.128351
0.100000
0.000000
0.000000
0.000000
0.000000
0.021874
0.162979
0.038136
0.150352
0.276256
0.092089
0.212765
0.279463
0.143618
0.099443
0.200367
0.173685
0.082016
0.040074
0.082583
0.062715
0.073328
0.100947
0.128590
0.219827
0.158806
0.107460
0.123673
0.100000
0.000000
0.000000
0.000000
0.000000
0.148919
0.082780
0.071167
0.080975
0.151357
0.084937
0.108075
0.295473
0.135784
0.212579
0.101278
0.291501
0.091989
0.033062
0.036399
0.067146
0.073714
0.365437
0.228846
0.060644
0.321540
0.158808
0.277478
0.100000
0.000000
0.000000
0.000000
0.000000
0.146639
0.031704
0.117741
0.101818
0.167210
0.238014
0.265266
0.311289
0.189901
0.118127
0.156682
0.151207
0.047910
0.115943
0.252540
0.092913
0.163512
0.204944
0.088001
0.034289
0.258998
0.133925
0.070947
0.100000
0.000000
0.000000
0.000000
0.000000
0.041270
0.106962
0.219474
0.161751
0.235580
0.040256
0.101732
0.102384
0.147997
0.146501
0.228834
0.097054
0.073062
0.259257
0.233295
0.196006
0.021552
0.203070
0.027379
0.143399
0.169091
0.084809
0.170448
0.100000
0.000000
0.000000
0.000000
0.000000
0.147870
0.148559
0.133854
0.006189
0.156828
0.148738
0.120883
0.183509
0.111484
0.102994
0.141391
0.192134
0.072098
0.060849
0.172389
0.244269
0.151926
0.066424
0.156550
0.059360
0.138841
0.206547
0.134050
0.100000
0.000000
0.000000
0.000000
0.000000
0.000000
0.000000
0.000000
0.000000
0.000000
0.000000
0.000000
0.000000
0.000000
0.000000
0.000000
0.000000
0.000000
0.000000
0.000000
0.000000
0.000000
0.000000
0.000000
0.000000
0.000000
0.000000
0.000000
0.000000
0.000000
0.000000
0.000000
0.000000
0.000000
0.000000
0.000000
0.000000
0.000000
0.000000
0.000000
0.000000
0.000000
0.000000
0.000000
0.000000
0.000000
0.000000
0.000000
0.000000
0.000000
0.000000
0.000000
0.000000
0.000000
0.000000
0.000000
0.000000
0.000000
0.000000
0.000000
0.000000
0.000000
0.000000
0.000000
0.000000
0.000000
0.000000
0.000000
0.000000
0.000000
0.000000
0.000000
0.000000
0.000000
0.000000
0.000000
0.000000
0.000000
0.000000
0.000000
0.000000
0.000000
0.000000
0.000000
0.000000
0.000000
0.000000
0.000000
0.000000
0.000000
0.000000
0.000000
0.000000
0.000000
0.000000
0.000000
0.000000
0.000000
0.000000
0.000000
0.000000
0.000000
0.000000
0.000000
0.000000
0.000000
0.000000
0.000000
0.000000
0.000000
0.000000
0.000000
0.000000
</DataArray>
<DataArray NumberOfComponents='1' type='Float32' Name='pressure' format='ascii'>
0.000000
0.000000
0.000000
0.000000
0.000000
0.000000
0.000000
0.000000
0.000000
0.000000
0.000000
0.000000
0.000000
0.000000
0.000000
0.000000
0.000000
0.000000
0.000000
0.000000
0.000000
0.000000
0.000000
0.000000
0.000000
0.000000
0.000000
0.000000
0.000000
0.000000
0.000000
0.000000
0.000000
0.000000
0.000000
0.000000
0.000000
0.000000
0.000000
0.000000
0.000000
0.000000
0.000000
0.000000
0.000000
0.000000
0.000000
0.000000
0.000000
0.000000
0.000000
0.000000
0.000000
0.000000
0.000000
0.000000
0.000000
0.000000
27057.804688
27214.783203
27928.240234
27381.808594
27205.892578
25531.869141
26389.664062
26527.546875
26013.480469
25336.048828
26074.400391
24256.441406
24499.230469
25267.644531
25317.966797
25092.132812
24899.308594
24903.791016
24336.736328
24641.667969
23509.164062
22796.162109
21521.503906
18878.164062
13681.198242
0.000000
0.000000
0.000000
26882.044922
27188.214844
27808.275391
25966.396484
26535.166016
25512.019531
25673.621094
26883.759766
25652.414062
23911.046875
26671.544922
24506.037109
24539.951172
25827.044922
25568.365234
25266.060547
25060.949219
24458.986328
24184.398438
25003.042969
23673.255859
22880.208984
21697.507812
19943.021484
17022.857422
0.000000
0.000000
0.000000
26058.410156
26422.048828
27066.074219
26685.611328
27285.015625
25970.162109
25092.859375
25500.947266
25604.976562
24611.533203
25507.712891
24970.207031
24770.232422
24926.457031
24980.199219
25518.623047
23711.515625
24101.347656
23466.388672
22903.351562
22037.072266
19390.267578
21115.367188
11125.353516
19057.869141
23720.992188
0.000000
0.000000
26680.472656
26957.501953
27375.878906
26850.210938
25603.839844
26725.775391
26171.041016
25949.500000
25584.240234
25199.916016
25091.158203
24826.294922
25418.275391
25386.281250
25203.941406
24873.716797
25177.666016
25132.185547
25100.021484
24582.462891
22306.351562
21739.201172
21447.160156
0.000000
34902.726562
26033.701172
0.000000
0.000000
27314.888672
27262.574219
27042.326172
26440.224609
27032.023438
26042.105469
26190.544922
25752.791016
24883.488281
25827.236328
24816.277344
25581.064453
24940.460938
24994.962891
25298.759766
24950.945312
25018.882812
24698.343750
25054.128906
24080.035156
24361.751953
24446.009766
22443.933594
0.000000
27492.304688
28171.748047
0.000000
0.000000
27851.523438
27374.492188
26779.585938
26200.863281
25940.759766
26395.564453
26529.421875
25222.980469
25537.853516
24955.185547
25134.964844
24964.722656
25230.472656
25332.501953
24888.617188
25291.763672
24729.328125
25197.773438
25539.712891
24949.093750
25427.746094
27036.687500
25780.832031
27906.095703
35333.664062
28477.130859
0.000000
0.000000
27637.298828
26671.759766
27113.451172
26413.437500
26480.091797
25879.201172
25436.109375
25290.486328
25823.974609
25571.308594
25299.507812
25069.523438
24784.521484
24743.257812
25455.892578
25270.587891
25975.257812
24864.019531
25590.863281
27083.421875
25266.974609
29297.509766
34767.632812
26601.574219
37840.191406
25137.949219
0.000000
0.000000
27012.171875
27130.945312
26427.095703
26200.541016
26486.222656
25672.740234
26692.541016
25546.431641
25134.621094
24154.525391
25445.218750
24708.751953
25357.142578
24893.304688
24705.812500
24866.714844
24485.072266
25013.339844
25917.970703
25126.103516
26149.037109
27841.742188
28658.337891
29149.582031
34178.101562
0.000000
0.000000
0.000000
26820.722656
26843.220703
26937.058594
26480.880859
26268.468750
25641.324219
25385.851562
25516.900391
24738.146484
25787.837891
24597.906250
24967.580078
24603.052734
24570.378906
25199.484375
24723.445312
25330.207031
25936.109375
24971.833984
25526.421875
25834.804688
25927.277344
27728.488281
29014.308594
28012.621094
17305.902344
0.000000
0.000000
26431.593750
26145.609375
26746.847656
26161.236328
26253.798828
26322.767578
26042.912109
25349.988281
25318.537109
25226.998047
24659.474609
25481.951172
24457.322266
24872.931641
24610.136719
24454.087891
24046.597656
25338.708984
25214.291016
25473.335938
25846.132812
26238.642578
26632.144531
28310.625000
27119.693359
18874.792969
0.000000
0.000000
27019.386719
27086.287109
26521.962891
26512.613281
26095.361328
25614.496094
25295.710938
25584.310547
24699.722656
25247.328125
25344.666016
24602.435547
24643.281250
24336.197266
23941.804688
25044.580078
24811.048828
24501.365234
24377.519531
24982.541016
24368.214844
26273.878906
26392.152344
27409.285156
23720.402344
19221.132812
0.000000
0.000000
27018.751953
26696.732422
26329.919922
26215.564453
25773.300781
26215.439453
25415.564453
25542.394531
25444.007812
24611.996094
24348.083984
24357.716797
24423.093750
24730.179688
23640.398438
22900.464844
24460.765625
24628.480469
23714.849609
25275.767578
23033.642578
24598.796875
24433.865234
26295.697266
29154.873047
19525.558594
0.000000
0.000000
26162.503906
26767.281250
26010.648438
26288.500000
25584.650391
25498.285156
24878.107422
25104.656250
24184.236328
24981.726562
24728.080078
24509.853516