<?xml version='1.0' encoding='UTF-8'?>
<VTKFile xmlns='VTK' byte_order='LittleEndian' version='0.1' type='UnstructuredGrid'>
<UnstructuredGrid>
<Piece NumberOfCells='1344' NumberOfPoints='1344'>
<Points>
<DataArray NumberOfComponents='3' type='Float32' Name='Position' format='ascii'>
-0.075000 -0.075000 0.000000
-0.075000 -0.050000 0.000000
-0.075000 -0.025000 0.000000
-0.075000 0.000000 0.000000
-0.075000 0.025000 0.000000
-0.075000 0.050000 0.000000
-0.075000 0.075000 0.000000
-0.075000 0.100000 0.000000
-0.075000 0.125000 0.000000
-0.075000 0.150000 0.000000
-0.075000 0.175000 0.000000
-0.075000 0.200000 0.000000
-0.075000 0.225000 0.000000
-0.075000 0.250000 0.000000
-0.075000 0.275000 0.000000
-0.075000 0.300000 0.000000
-0.075000 0.325000 0.000000
-0.075000 0.350000 0.000000
-0.075000 0.375000 0.000000
-0.075000 0.400000 0.000000
-0.075000 0.425000 0.000000
-0.075000 0.450000 0.000000
-0.075000 0.475000 0.000000
-0.075000 0.500000 0.000000
-0.075000 0.525000 0.000000
-0.075000 0.550000 0.000000
-0.075000 0.575000 0.000000
-0.075000 0.600000 0.000000
-0.050000 -0.075000 0.000000
-0.050000 -0.050000 0.000000
-0.050000 -0.025000 0.000000
-0.050000 0.000000 0.000000
-0.050000 0.025000 0.000000
-0.050000 0.050000 0.000000
-0.050000 0.075000 0.000000
-0.050000 0.100000 0.000000
-0.050000 0.125000 0.000000
-0.050000 0.150000 0.000000
-0.050000 0.175000 0.000000
-0.050000 0.200000 0.000000
-0.050000 0.225000 0.000000
-0.050000 0.250000 0.000000
-0.050000 0.275000 0.000000
-0.050000 0.300000 0.000000
-0.050000 0.325000 0.000000
-0.050000 0.350000 0.000000
-0.050000 0.375000 0.000000
-0.050000 0.400000 0.000000
-0.050000 0.425000 0.000000
-0.050000 0.450000 0.000000
-0.050000 0.475000 0.000000
-0.050000 0.500000 0.000000
-0.050000 0.525000 0.000000
-0.050000 0.550000 0.000000
-0.050000 0.575000 0.000000
-0.050000 0.600000 0.000000
-0.025000 -0.075000 0.000000
-0.025000 -0.050000 0.000000
-0.025000 -0.025000 0.000000
-0.025000 0.000000 0.000000
-0.025000 0.025000 0.000000
-0.025000 0.050000 0.000000
-0.025000 0.075000 0.000000
-0.025000 0.100000 0.000000
-0.025000 0.125000 0.000000
-0.025000 0.150000 0.000000
-0.025000 0.175000 0.000000
-0.025000 0.200000 0.000000
-0.025000 0.225000 0.000000
-0.025000 0.250000 0.000000
-0.025000 0.275000 0.000000
-0.025000 0.300000 0.000000
-0.025000 0.325000 0.000000
-0.025000 0.350000 0.000000
-0.025000 0.375000 0.000000
-0.025000 0.400000 0.000000
-0.025000 0.425000 0.000000
-0.025000 0.450000 0.000000
-0.025000 0.475000 0.000000
-0.025000 0.500000 0.000000
-0.025000 0.525000 0.000000
-0.025000 0.550000 0.000000
-0.025000 0.575000 0.000000
-0.025000 0.600000 0.000000
0.000000 -0.075000 0.000000
0.000000 -0.050000 0.000000
0.000000 -0.025000 0.000000
0.000000 0.000000 0.000000
0.000000 0.025000 0.000000
0.000000 0.050000 0.000000
0.000000 0.075000 0.000000
0.000000 0.100000 0.000000
0.000000 0.125000 0.000000
0.000000 0.150000 0.000000
0.000000 0.175000 0.000000
0.000000 0.200000 0.000000
0.000000 0.225000 0.000000
0.000000 0.250000 0.000000
0.000000 0.275000 0.000000
0.000000 0.300000 0.000000
0.000000 0.325000 0.000000
0.000000 0.350000 0.000000
0.000000 0.375000 0.000000
0.000000 0.400000 0.000000
0.000000 0.425000 0.000000
0.000000 0.450000 0.000000
0.000000 0.475000 0.000000
0.000000 0.500000 0.000000
0.000000 0.525000 0.000000
0.000000 0.550000 0.000000
0.000000 0.575000 0.000000
0.000000 0.600000 0.000000
0.025000 -0.075000 0.000000
0.025000 -0.050000 0.000000
0.025000 -0.025000 0.000000
0.025000 0.000000 0.000000
0.023782 0.025555 0.000000
0.028303 0.051497 0.000000
0.022976 0.071103 0.000000
0.021796 0.109955 0.000000
0.026279 0.136053 0.000000
0.023996 0.162710 0.000000
0.023879 0.190452 0.000000
0.024957 0.215019 0.000000
0.024469 0.242929 0.000000
0.024843 0.267400 0.000000
0.024933 0.293391 0.000000
0.024839 0.318119 0.000000
0.025462 0.343692 0.000000
0.024482 0.368147 0.000000
0.024992 0.394015 0.000000
0.024862 0.419478 0.000000
0.025272 0.444793 0.000000
0.024804 0.469382 0.000000
0.025934 0.495280 0.000000
0.022508 0.521499 0.000000
0.022337 0.556180 0.000000
0.024882 0.578425 0.000000
0.067909 0.580883 0.000000
0.068368 0.600000 0.000000
0.050000 -0.075000 0.000000
0.050000 -0.050000 0.000000
0.050000 -0.025000 0.000000
0.050000 0.000000 0.000000
0.047550 0.025727 0.000000
0.056517 0.053376 0.000000
0.049334 0.076410 0.000000
0.040719 0.099048 0.000000
0.051697 0.125611 0.000000
0.045585 0.151019 0.000000
0.048185 0.177526 0.000000
0.050827 0.201137 0.000000
0.046420 0.226565 0.000000
0.049673 0.252090 0.000000
0.049262 0.277154 0.000000
0.049264 0.303273 0.000000
0.049665 0.328389 0.000000
0.049399 0.354470 0.000000
0.049605 0.380604 0.000000
0.048080 0.405673 0.000000
0.048461 0.434260 0.000000
0.049204 0.461840 0.000000
0.048851 0.487092 0.000000
0.045252 0.516387 0.000000
0.049347 0.536624 0.000000
0.042948 0.581321 0.000000
0.093524 0.578507 0.000000
0.093900 0.600000 0.000000
0.075000 -0.075000 0.000000
0.075000 -0.050000 0.000000
0.075000 -0.025000 0.000000
0.075000 0.000000 0.000000
0.069133 0.027286 0.000000
0.080888 0.054374 0.000000
0.072390 0.080874 0.000000
0.065467 0.107428 0.000000
0.076738 0.133433 0.000000
0.070883 0.159414 0.000000
0.073431 0.184096 0.000000
0.074221 0.211087 0.000000
0.072896 0.235571 0.000000
0.074643 0.260148 0.000000
0.074012 0.284489 0.000000
0.074027 0.309236 0.000000
0.074729 0.332853 0.000000
0.073218 0.357830 0.000000
0.073704 0.382071 0.000000
0.072219 0.408192 0.000000
0.071530 0.432759 0.000000
0.073479 0.457898 0.000000
0.072754 0.485154 0.000000
0.071923 0.508441 0.000000
0.076260 0.532338 0.000000
0.049797 0.560655 0.000000
0.119015 0.578538 0.000000
0.119065 0.600000 0.000000
0.100000 -0.075000 0.000000
0.100000 -0.050000 0.000000
0.100000 -0.025000 0.000000
0.100000 0.000000 0.000000
0.092191 0.024595 0.000000
0.107512 0.051678 0.000000
0.096387 0.072875 0.000000
0.090576 0.101711 0.000000
0.100113 0.124783 0.000000
0.094641 0.150321 0.000000
0.097896 0.175521 0.000000
0.099082 0.199172 0.000000
0.097922 0.224490 0.000000
0.100112 0.248231 0.000000
0.099990 0.273401 0.000000
0.100496 0.297648 0.000000
0.101045 0.322151 0.000000
0.100110 0.346701 0.000000
0.100012 0.371653 0.000000
0.098337 0.396114 0.000000
0.098681 0.419974 0.000000
0.095586 0.444691 0.000000
0.100504 0.470824 0.000000
0.095950 0.493434 0.000000
0.098822 0.526619 0.000000
0.081099 0.554869 0.000000
0.143947 0.578646 0.000000
0.143956 0.600000 0.000000
0.125000 -0.075000 0.000000
0.125000 -0.050000 0.000000
0.125000 -0.025000 0.000000
0.125000 0.000000 0.000000
0.115915 0.026028 0.000000
0.131004 0.053407 0.000000
0.122728 0.079608 0.000000
0.114540 0.103200 0.000000
0.126968 0.127536 0.000000
0.120900 0.153801 0.000000
0.124363 0.177273 0.000000
0.124186 0.203292 0.000000
0.124111 0.227654 0.000000
0.125634 0.252451 0.000000
0.124724 0.277375 0.000000
0.125494 0.302434 0.000000
0.125448 0.327646 0.000000
0.124065 0.353509 0.000000
0.124110 0.377858 0.000000
0.122538 0.405905 0.000000
0.123772 0.429379 0.000000
0.120039 0.457012 0.000000
0.127997 0.480236 0.000000
0.117139 0.505833 0.000000
0.123837 0.529533 0.000000
0.106340 0.550340 0.000000
0.168883 0.578334 0.000000
0.168982 0.600000 0.000000
0.150000 -0.075000 0.000000
0.150000 -0.050000 0.000000
0.150000 -0.025000 0.000000
0.150000 0.000000 0.000000
0.139475 0.025205 0.000000
0.155969 0.051119 0.000000
0.146717 0.075088 0.000000
0.140422 0.101839 0.000000
0.151421 0.124837 0.000000
0.144232 0.149957 0.000000
0.149062 0.174749 0.000000
0.148292 0.198781 0.000000
0.148960 0.224625 0.000000
0.150143 0.248516 0.000000
0.149958 0.274194 0.000000
0.150519 0.298832 0.000000
0.150128 0.323617 0.000000
0.149835 0.348936 0.000000
0.148693 0.374011 0.000000
0.147679 0.398428 0.000000
0.148738 0.423472 0.000000
0.144214 0.447807 0.000000
0.153690 0.473858 0.000000
0.142382 0.499048 0.000000
0.150317 0.526524 0.000000
0.132371 0.552796 0.000000
0.193952 0.578540 0.000000
0.193974 0.600000 0.000000
0.175000 -0.075000 0.000000
0.175000 -0.050000 0.000000
0.175000 -0.025000 0.000000
0.175000 0.000000 0.000000
0.163458 0.025433 0.000000
0.180676 0.051225 0.000000
0.173080 0.076579 0.000000
0.165853 0.100115 0.000000
0.176956 0.124163 0.000000
0.171266 0.149000 0.000000
0.174984 0.172908 0.000000
0.174229 0.197568 0.000000
0.174419 0.222292 0.000000
0.175712 0.246975 0.000000
0.174518 0.272525 0.000000
0.175626 0.297463 0.000000
0.174683 0.323392 0.000000
0.174143 0.349257 0.000000
0.173684 0.373596 0.000000
0.172405 0.400898 0.000000
0.174286 0.424152 0.000000
0.168351 0.450660 0.000000
0.178053 0.477934 0.000000
0.165395 0.500825 0.000000
0.172660 0.530755 0.000000
0.156784 0.550756 0.000000
0.219119 0.578422 0.000000
0.219034 0.600000 0.000000
0.200000 -0.075000 0.000000
0.200000 -0.050000 0.000000
0.200000 -0.025000 0.000000
0.200000 0.000000 0.000000
0.187909 0.025035 0.000000
0.204945 0.051169 0.000000
0.197591 0.076229 0.000000
0.192493 0.101015 0.000000
0.202898 0.125019 0.000000
0.195467 0.150418 0.000000
0.200629 0.174785 0.000000
0.198597 0.199941 0.000000
0.199282 0.225242 0.000000
0.200168 0.250099 0.000000
0.198950 0.275452 0.000000
0.200144 0.300759 0.000000
0.198769 0.325452 0.000000
0.198996 0.351497 0.000000
0.198203 0.376034 0.000000
0.196998 0.401356 0.000000
0.199525 0.426104 0.000000
0.191120 0.453578 0.000000
0.204531 0.477587 0.000000
0.190066 0.503587 0.000000
0.199343 0.529880 0.000000
0.184307 0.552904 0.000000
0.244046 0.578541 0.000000
0.244007 0.600000 0.000000
0.225000 -0.075000 0.000000
0.225000 -0.050000 0.000000
0.225000 -0.025000 0.000000
0.225000 0.000000 0.000000
0.211890 0.025305 0.000000
0.230531 0.049865 0.000000
0.223428 0.074009 0.000000
0.216892 0.099451 0.000000
0.227867 0.123300 0.000000
0.220927 0.148120 0.000000
0.225522 0.172726 0.000000
0.223827 0.197447 0.000000
0.224513 0.222363 0.000000
0.224940 0.247053 0.000000
0.224258 0.272496 0.000000
0.224900 0.297166 0.000000
0.223568 0.322796 0.000000
0.224080 0.348116 0.000000
0.222842 0.372379 0.000000
[...]
<PointData>
<DataArray NumberOfComponents='1' type='Int32' Name='ParticleType' format='ascii'>
3
3
3
3
3
3
3
3
3
3
3
3
3
3
3
3
3
3
3
3
3
3
3
3
3
3
3
3
3
3
3
3
3
3
3
3
3
3
3
3
3
3
3
3
3
3
3
3
3
3
3
3
3
3
3
3
3
3
2
2
2
2
2
2
2
2
2
2
2
2
2
2
2
2
2
2
2
2
2
2
2
2
2
2
3
3
2
2
2
2
2
2
2
2
2
2
2
2
2
2
2
2
2
2
2
2
2
2
2
2
2
2
3
3
2
2
0
0
0
0
0
0
0
0
0
0
0
0
0
0
0
0
0
0
0
0
0
0
0
0
3
3
2
2
0
0
0
0
0
0
0
0
0
0
0
0
0
0
0
0
0
0
0
0
0
0
0
0
3
3
2
2
0
0
0
0
0
0
0
0
0
0
0
0
0
0
0
0
0
0
0
0
0
0
0
0
3
3
2
2
0
0
0
0
0
0
0
0
0
0
0
0
0
0
0
0
0
0
0
0
0
0
0
0
3
3
2
2
0
0
0
0
0
0
0
0
0
0
0
0
0
0
0
0
0
0
0
0
0
0
0
0
3
3
2
2
0
0
0
0
0
0
0
0
0
0
0
0
0
0
0
0
0
0
0
0
0
0
0
0
3
3
2
2
0
0
0
0
0
0
0
0
0
0
0
0
0
0
0
0
0
0
0
0
0
0
0
0
3
3
2
2
0
0
0
0
0
0
0
0
0
0
0
0
0
0
0
0
0
0
0
0
0
0
0
0
3
3
2
2
0
0
0
0
0
0
0
0
0
0
0
0
0
0
0
0
0
0
0
0
0
0
0
0
3
3
2
2
0
0
0
0
0
0
0
0
0
0
0
0
0
0
0
0
0
0
0
0
0
0
0
0
3
3
2
2
0
0
0
0
0
0
0
0
0
0
0
0
0
0
0
0
0
0
0
0
0
0
0
0
3
3
2
2
0
0
0
0
0
0
0
0
0
0
0
0
0
0
0
0
0
0
0
0
0
0
0
0
3
3
2
2
0
0
0
0
0
0
0
0
0
0
0
0
0
0
0
0
0
0
0
0
0
0
0
0
3
3
2
2
0
0
0
0
0
0
0
0
0
0
0
0
0
0
0
0
0
0
0
0
0
0
0
0
3
3
2
2
0
0
0
0
0
0
0
0
0
0
0
0
0
0
0
0
0
0
0
0
0
0
0
0
3
3
2
2
0
0
0
0
0
0
0
0
0
0
0
0
0
0
0
0
0
0
0
0
0
0
0
0
3
3
2
2
0
0
0
0
0
0
0
0
0
0
0
0
0
0
0
0
0
0
0
0
0
0
0
0
3
3
2
2
0
0
0
0
0
0
0
0
0
0
0
0
0
0
0
0
0
0
0
0
0
0
0
0
3
3
2
2
0
0
0
0
0
0
0
0
0
0
0
0
0
0
0
0
0
0
0
0
0
0
0
0
3
3
2
2
0
0
0
0
0
0
0
0
0
0
0
0
0
0
0
0
0
0
0
0
0
0
0
0
3
3
2
2
0
0
0
0
0
0
0
0
0
0
0
0
0
0
0
0
0
0
0
0
0
0
0
0
3
3
2
2
0
0
0
0
0
0
0
0
0
0
0
0
0
0
0
0
0
0
0
0
0
0
0
0
3
3
2
2
0
0
0
0
0
0
0
0
0
0
0
0
0
0
0
0
0
0
0
0
0
0
0
0
3
3
2
2
0
0
0
0
0
0
0
0
0
0
0
0
0
0
0
0
0
0
0
0
0
0
0
0
3
3
2
2
0
0
0
0
0
0
0
0
0
0
0
0
0
0
0
0
0
0
0
0
0
0
0
0
3
3
2
2
0
0
0
0
0
0
0
0
0
0
0
0
0
0
0
0
0
0
0
0
0
0
0
0
3
3
2
2
0
0
0
0
0
0
0
0
0
0
0
0
0
0
0
0
0
0
0
0
0
0
0
0
3
3
2
2
0
0
0
0
0
0
0
0
0
0
0
0
0
0
0
0
0
0
0
0
0
0
0
0
3
3
2
2
0
0
0
0
0
0
0
0
0
0
0
0
0
0
0
0
0
0
0
0
0
0
0
0
3
3
2
2
0
0
0
0
0
0
0
0
0
0
0
0
0
0
0
0
0
0
0
0
0
0
0
0
3
3
2
2
0
0
0
0
0
0
0
0
0
0
0
0
0
0
0
0
0
0
0
0
0
0
0
0
3
3
2
2
0
0
0
0
0
0
0
0
0
0
0
0
0
0
0
0
0
0
0
0
0
0
0
0
3
3
2
2
0
0
0
0
0
0
0
0
0
0
0
0
0
0
0
0
0
0
0
0
0
0
0
0
3
3
2
2
0
0
0
0
0
0
0
0
0
0
0
0
0
0
0
0
0
0
0
0
0
0
0
0
3
3
2
2
0
0
0
0
0
0
0
0
0
0
0
0
0
0
0
0
0
0
0
0
0
0
0
0
3
3
2
2
0
0
0
0
0
0
0
0
0
0
0
0
0
0
0
0
0
0
0
0
0
0
0
0
3
3
2
2
0
0
0
0
0
0
0
0
0
0
0
0
0
0
0
0
0
0
0
0
0
0
0
0
3
3
2
2
0
0
0
0
0
0
0
0
0
0
0
0
0
0
0
0
0
0
0
0
0
0
0
0
3
3
2
2
0
0
0
0
0
0
0
0
0
0
0
0
0
0
0
0
0
0
0
0
0
0
0
0
3
3
2
2
0
0
0
0
0
0
0
0
0
0
0
0
0
0
0
0
0
0
0
0
0
0
0
0
3
3
2
2
2
2
2
2
2
2
2
2
2
2
2
2
2
2
2
2
2
2
2
2
2
2
2
2
3
3
2
2
2
2
2
2
2
2
2
2
2
2
2
2
2
2
2
2
2
2
2
2
2
2
2
2
3
3
3
3
3
3
3
3
3
3
3
3
3
3
3
3
3
3
3
3
3
3
3
3
3
3
3
3
3
3
3
3
3
3
3
3
3
3
3
3
3
3
3
3
3
3
3
3
3
3
3
3
3
3
3
3
</DataArray>
<DataArray NumberOfComponents='1' type='Float32' Name='Velocity' format='ascii'>
0.000000
0.000000
0.000000
0.000000
0.000000
0.000000
0.000000
0.000000
0.000000
0.000000
0.000000
0.000000
0.000000
0.000000
0.000000
0.000000
0.000000
0.000000
0.000000
0.000000
0.000000
0.000000
0.000000
0.000000
0.000000
0.000000
0.000000
0.000000
0.000000
0.000000
0.000000
0.000000
0.000000
0.000000
0.000000
0.000000
0.000000
0.000000
0.000000
0.000000
0.000000
0.000000
0.000000
0.000000
0.000000
0.000000
0.000000
0.000000
0.000000
0.000000
0.000000
0.000000
0.000000
0.000000
0.000000
0.000000
0.000000
0.000000
0.000000
0.000000
0.000000
0.000000
0.000000
0.000000
0.000000
0.000000
0.000000
0.000000
0.000000
0.000000
0.000000
0.000000
0.000000
0.000000
0.000000
0.000000
0.000000
0.000000
0.000000
0.000000
0.000000
0.000000
0.000000
0.000000
0.000000
0.000000
0.000000
0.000000
0.000000
0.000000
0.000000
0.000000
0.000000
0.000000
0.000000
0.000000
0.000000
0.000000
0.000000
0.000000
0.000000
0.000000
0.000000
0.000000
0.000000
0.000000
0.000000
0.000000
0.000000
0.000000
0.000000
0.000000
0.000000
0.000000
0.000000
0.000000
0.006330
0.148641
0.104695
0.055995
0.102936
0.106724
0.108555
0.075358
0.093082
0.051763
0.065129
0.021438
0.028517
0.018410
0.026835
0.023046
0.102949
0.075033
0.146220
0.062107
0.280729
0.100000
0.100000
0.100000
0.000000
0.000000
0.000000
0.000000
0.052727
0.107727
0.056236
0.131467
0.037948
0.054724
0.119386
0.053953
0.106054
0.106238
0.113290
0.120597
0.119379
0.112026
0.124943
0.099594
0.120025
0.109514
0.206543
0.231294
0.210824
0.100000
0.100000
0.100000
0.000000
0.000000
0.000000
0.000000
0.009982
0.074327
0.063280
0.176620
0.072358
0.138948
0.061574
0.139824
0.087129
0.109706
0.085179
0.108053
0.086484
0.103278
0.118800
0.093194
0.155222
0.180408
0.193565
0.141641
0.082200
0.136874
0.100000
0.100000
0.000000
0.000000
0.000000
0.000000
0.023374
0.089263
0.028047
0.084787
0.006475
0.086260
0.030772
0.007570
0.027320
0.030068
0.033319
0.021379
0.037451
0.013863
0.038013
0.037129
0.078900
0.106938
0.165387
0.068817
0.198373
0.037017
0.100000
0.100000
0.000000
0.000000
0.000000
0.000000
0.045430
0.073459
0.051347
0.184482
0.084856
0.098497
0.025028
0.059722
0.043311
0.062659
0.044834
0.069604
0.069330
0.097323
0.082479
0.145666
0.137494
0.132773
0.083785
0.016274
0.095911
0.115855
0.100000
0.100000
0.000000
0.000000
0.000000
0.000000
0.015700
0.046559
0.049695
0.096848
0.049257
0.100674
0.035393
0.035245
0.010854
0.013532
0.014113
0.012913
0.004574
0.016739
0.015900
0.028981
0.016106
0.045558
0.006082
0.046943
0.065094
0.024278
0.100000
0.100000
0.000000
0.000000
0.000000
0.000000
0.086309
0.072949
0.015394
0.173186
0.068770
0.063311
0.000358
0.011671
0.022291
0.030695
0.027119
0.023833
0.037510
0.021792
0.027973
0.027016
0.032455
0.034587
0.029886
0.035272
0.065647
0.071147
0.100000
0.100000
0.000000
0.000000
0.000000
0.000000
0.053117
0.020845
0.059895
0.062461
0.050653
0.051377
0.041824
0.026730
0.014798
0.017077
0.012874
0.041230
0.013504
0.033797
0.040804
0.056130
0.043106
0.100681
0.050281
0.022969
0.008273
0.038779
0.100000
0.100000
0.000000
0.000000
0.000000
0.000000
0.098879
0.064987
0.047819
0.140719
0.082796
0.073085
0.033122
0.023536
0.025974
0.023271
0.013698
0.047874
0.012668
0.005250
0.038555
0.014107
0.033211
0.052348
0.041447
0.047916
0.072932
0.062150
0.100000
0.100000
0.000000
0.000000
0.000000
0.000000
0.069714
0.012039
0.036070
0.065229
0.057746
0.039972
0.040896
0.008266
0.009455
0.009716
0.011830
0.039405
0.017018
0.024287
0.013416
0.059308
0.006065
0.099424
0.027225
0.056639
0.051104
0.056411
0.100000
0.100000
0.000000
0.000000
0.000000
0.000000
0.075602
0.065281
0.041715
0.106976
0.088654
0.068833
0.059284
0.038124
0.038662
0.021872
0.024040
0.012574
0.023603
0.012513
0.030829
0.033279
0.022694
0.044674
0.048725
0.049317
0.094398
0.092522
0.100000
0.100000
0.000000
0.000000
0.000000
0.000000
0.092601
0.018176
0.027575
0.074531
0.069133
0.057014
0.050666
0.022089
0.013118
0.003189
0.002379
0.010208
0.005887
0.013180
0.008892
0.055658
0.006692
0.065259
0.025767
0.066203
0.084698
0.041571
0.100000
0.100000
0.000000
0.000000
0.000000
0.000000
0.060337
0.054089
0.038073
0.085792
0.075610
0.041029
0.047964
0.015539
0.027996
0.005420
0.026517
0.008110
0.029872
0.006164
0.035598
0.046487
0.042144
0.040709
0.061095
0.018247
0.107092
0.075562
0.100000
0.100000
0.000000
0.000000
0.000000
0.000000
0.095612
0.021824
0.032544
0.078521
0.083658
0.060275
0.068232
0.039686
0.033692
0.020204
0.011595
0.024720
0.001856
0.016793
0.006750
0.080259
0.018339
0.067664
0.024264
0.036851
0.064862
0.054717
0.100000
0.100000
0.000000
0.000000
0.000000
0.000000
0.066916
0.043215
0.031126
0.079817
0.084393
0.053860
0.064904
0.034203
0.027292
0.021649
0.010697
0.022196
0.008101
0.003492
0.041579
0.051352
0.054355
0.065898
0.042912
0.015770
0.093451
0.090543
0.100000
0.100000
0.000000
0.000000
0.000000
0.000000
0.084169
0.031120
0.027114
0.071810
0.065421
0.047579
0.046860
0.031010
0.033995
0.018090
0.012984
0.012228
0.011952
0.020200
0.028489
0.092665
0.036669
0.067277
0.014560
0.031956
0.041568
0.062569
0.100000
0.100000
0.000000
0.000000
0.000000
0.000000
0.081767
0.036883
0.015134
0.062826
0.087818
0.047551
0.073030
0.035293
0.029020
0.032772
0.018795
0.039064
0.008778
0.027696
0.035385
0.058369
0.045969
0.087736
0.028229
0.025211
0.065005
0.109409
0.100000
0.100000
0.000000
0.000000
0.000000
0.000000
0.068754
0.036892
0.019565
0.091466
0.087664
0.069185
0.066252
0.046974
0.055341
0.035926
0.016511
0.027330
0.035753
0.041075
0.055196
0.120032
0.058008
0.072199
0.032056
0.052185
0.025276
0.079382
0.100000
0.100000
0.000000
0.000000
0.000000
0.000000
0.084177
0.034269
0.014042
0.070871
0.063447
0.052089
0.055082
0.037753
0.024993
0.023372
0.034993
0.032984
0.018958
0.026222
0.032157
0.064315
0.012207
0.103849
0.030624
0.053478
0.045961
0.150731
0.100000
0.100000
0.000000
0.000000
0.000000
0.000000
0.049104
0.030667
0.004609
0.086733
0.094591
0.046636
0.052199
0.031186
0.037438
0.035884
0.011730
0.036797
0.049569
0.045859
0.064421
0.118750
0.045828
0.051560
0.037429
0.053270
0.040777
0.098071
0.100000
0.100000
0.000000
0.000000
0.000000
0.000000
0.071321
0.035912
0.011071
0.092046
0.077296
0.080352
0.066193
0.053358
0.039416
0.037820
0.041521
0.039280
0.030249
0.045640
0.017032
0.063544
0.044808
0.099131
0.071141
0.044333
0.066950
0.119556
0.100000
0.100000
0.000000
0.000000
0.000000
0.000000
0.047839
0.034530
0.008026
0.088792
0.077731
0.039989
0.032543
0.018156
0.021319
0.040356
0.010732
0.029445
0.065198
0.050561
0.067594
0.123739
0.023094
0.022368
0.025026
0.020331
0.034270
0.099925
0.100000
0.100000
0.000000
0.000000
0.000000
0.000000
0.045352
0.029978
0.016233
0.095740
0.087691
0.079539
0.061466
0.046485
0.029177
0.035492
0.010886
0.023953
0.034063
0.050998
0.035786
0.056550
0.074848
0.102101
0.109450
0.094363
0.061623
0.138126
0.100000
0.100000
0.000000
0.000000
0.000000
0.000000
0.042619
0.053864
0.029282
0.083321
0.072922
0.052744
0.061114
0.043060
0.048350
0.034776
0.025487
0.048380
0.067425
0.057181
0.081437
0.114152
0.043981
0.064462
0.058186
0.052669
0.064921
0.105990
0.100000
0.100000
0.000000
0.000000
0.000000
0.000000
0.019066
0.016480
0.011579
0.092123
0.089170
0.069170
0.055116
0.048488
0.049545
0.064945
0.016979
0.058399
0.017311
0.075287
0.048516
0.065787
0.097342
0.156731
0.110468
0.072282
0.025544
0.175173
0.100000
0.100000
0.000000
0.000000
0.000000
0.000000
0.033513
0.052983
0.038700
0.094502
0.099680
0.058769
0.071694
0.051705
0.063853
0.048095
0.043941
0.085950
0.084357
0.098304
0.075904
0.062726
0.061539
0.054072
0.045599
0.067465
0.059760
0.089601
0.100000
0.100000
0.000000
0.000000
0.000000
0.000000
0.009534
0.032849
0.017101
0.103281
0.099154
0.083251
0.072112
0.041218
0.042308
0.046438
0.022904
0.033976
0.051803
0.034423
0.079768
0.068894
0.090902
0.132501
0.079749
0.069149
0.218498
0.142062
0.100000
0.100000
0.000000
0.000000
0.000000
0.000000
0.030789
0.047716
0.033236
0.071382
0.116456
0.069297
0.090678
0.030427
0.055041
0.027727
0.029917
0.075343
0.042575
0.099659
0.064256
0.062345
0.132553
0.036242
0.066152
0.106189
0.072604
0.130467
0.100000
0.100000
0.000000
0.000000
0.000000
0.000000
0.018487
0.048324
0.026312
0.111523
0.103627
0.084745
0.087337
0.041827
0.041212
0.041609
0.017795
0.051171
0.059541
0.041219
0.145307
0.039806
0.086048
0.066092
0.059327
0.095173
0.061473
0.138223
0.100000
0.100000
0.000000
0.000000
0.000000
0.000000
0.028311
0.048588
0.030618
0.053767
0.127052
0.058573
0.079666
0.030462
0.046272
0.044688
0.027733
0.041960
0.021858
0.068971
0.018519
0.054571
0.148889
0.071381
0.093197
0.027772
0.029724
0.126449
0.100000
0.100000
0.000000
0.000000
0.000000
0.000000
0.040765
0.040129
0.046164
0.108341
0.105212
0.095985
0.087138
0.052582
0.041475
0.045418
0.023657
0.043954
0.042275
0.082071
0.130817
0.046998
0.138696
0.043293
0.024686
0.103877
0.081697
0.175408
0.100000
0.100000
0.000000
0.000000
0.000000
0.000000
0.053242
0.027445
0.011600
0.035691
0.101055
0.063519
0.080817
0.054568
0.039310
0.071846
0.026647
0.080171
0.034975
0.087539
0.035365
0.052501
0.114744
0.048609
0.118657
0.045220
0.285310
0.060172
0.100000
0.100000
0.000000
0.000000
0.000000
0.000000
0.064724
0.038487
0.088985
0.059146
0.102334
0.068713
0.108786
0.093792
0.075321
0.078360
0.035633
0.044636
0.022698
0.013638
0.102081
0.027820
0.094146
0.088234
0.015628
0.067275
0.142285
0.217370
0.100000
0.100000
0.000000
0.000000
0.000000
0.000000
0.089693
0.050562
0.018954
0.080083
0.127781
0.038657
0.078076
0.054688
0.017015
0.082463
0.034771
0.096785
0.020677
0.120989
0.003278
0.083683
0.136039
0.075045
0.020472
0.114470
0.197549
0.132953
0.100000
0.100000
0.000000
0.000000
0.000000
0.000000
0.047583
0.031331
0.088286
0.027243
0.098250
0.022497
0.073602
0.074591
0.038657
0.073236
0.049151
0.074710
0.045745
0.056115
0.062626
0.014692
0.072114
0.121748
0.057414
0.096026
0.063516
0.142570
0.100000
0.100000
0.000000
0.000000
0.000000
0.000000
0.103823
0.127357
0.049782
0.039351
0.096466
0.053850
0.078060
0.051617
0.036745
0.081502
0.049687
0.078666
0.031965
0.080740
0.034679
0.021885
0.043274
0.153128
0.043281
0.056530
0.190932
0.088818
0.100000
0.100000
0.000000
0.000000
0.000000
0.000000
0.041665
0.131366
0.034092
0.044360
0.112291
0.059312
0.124628
0.080426
0.124626
0.117365
0.096819
0.082489
0.137720
0.075993
0.074234
0.061612
0.072249
0.108932
0.014496
0.059200
0.057485
0.156578
0.448705
0.100000
0.000000
0.000000
0.000000
0.000000
0.081382
0.144147
0.047606
0.045619
0.065962
0.041350
0.049274
0.037825
0.075279
0.060876
0.058301
0.093503
0.041402
0.048243
0.089585
0.044087
0.092761
0.033637
0.089325
0.109595
0.137041
0.204950
0.333022
0.100000
0.000000
0.000000
0.000000
0.000000
0.024693
0.106410
0.061136
0.040936
0.118179
0.060011
0.067279
0.064839
0.015639
0.064882
0.067707
0.060129
0.053387
0.016659
0.027123
0.087657
0.092179
0.048625
0.105558
0.154073
0.031134
0.176647
0.147053
0.100000
0.000000
0.000000
0.000000
0.000000
0.013874
0.005920
0.038316
0.039192
0.042211
0.067710
0.091097
0.090089
0.087337
0.106708
0.086339
0.127686
0.085151
0.098565
0.064377
0.045939
0.016181
0.096838
0.098688
0.176465
0.376321
0.175798
0.330880
0.100000
0.000000
0.000000
0.000000
0.000000
0.000000
0.000000
0.000000
0.000000
0.000000
0.000000
0.000000
0.000000
0.000000
0.000000
0.000000
0.000000
0.000000
0.000000
0.000000
0.000000
0.000000
0.000000
0.000000
0.000000
0.000000
0.000000
0.000000
0.000000
0.000000
0.000000
0.000000
0.000000
0.000000
0.000000
0.000000
0.000000
0.000000
0.000000
0.000000
0.000000
0.000000
0.000000
0.000000
0.000000
0.000000
0.000000
0.000000
0.000000
0.000000
0.000000
0.000000
0.000000
0.000000
0.000000
0.000000
0.000000
0.000000
0.000000
0.000000
0.000000
0.000000
0.000000
0.000000
0.000000
0.000000
0.000000
0.000000
0.000000
0.000000
0.000000
0.000000
0.000000
0.000000
0.000000
0.000000
0.000000
0.000000
0.000000
0.000000
0.000000
0.000000
0.000000
0.000000
0.000000
0.000000
0.000000
0.000000
0.000000
0.000000
0.000000
0.000000
0.000000
0.000000
0.000000
0.000000
0.000000
0.000000
0.000000
0.000000
0.000000
0.000000
0.000000
0.000000
0.000000
0.000000
0.000000
0.000000
0.000000
0.000000
0.000000
0.000000
0.000000
</DataArray>
<DataArray NumberOfComponents='1' type='Float32' Name='pressure' format='ascii'>
0.000000
0.000000
0.000000
0.000000
0.000000
0.000000
0.000000
0.000000
0.000000
0.000000
0.000000
0.000000
0.000000
0.000000
0.000000
0.000000
0.000000
0.000000
0.000000
0.000000
0.000000
0.000000
0.000000
0.000000
0.000000
0.000000
0.000000
0.000000
0.000000
0.000000
0.000000
0.000000
0.000000
0.000000
0.000000
0.000000
0.000000
0.000000
0.000000
0.000000
0.000000
0.000000
0.000000
0.000000
0.000000
0.000000
0.000000
0.000000
0.000000
0.000000
0.000000
0.000000
0.000000
0.000000
0.000000
0.000000
0.000000
0.000000
9063.505859
9084.440430
9341.097656
8030.878906
9243.683594
9193.462891
8465.934570
7662.857422
7765.497559
7423.822266
6649.912598
6629.894043
6200.245605
5900.792969
5608.301270
5183.023926
5226.491211
4874.748535
4665.161621
4286.268066
4232.894043
4021.167236
4923.133789
4186.429199
1951.136963
0.000000
0.000000
0.000000
8978.975586
9260.128906
9503.796875
8201.754883
8597.291992
7860.051758
7834.600098
7736.472168
7632.073730
7275.394043
7081.000000
6759.664062
6565.551270
6145.880859
5759.010254
5528.043945
5302.142578
5034.432129
4865.833984
4413.797852
3893.274658
4417.605469
4642.582520
3961.004639
1698.571167
0.000000
0.000000
0.000000
8625.534180
8726.979492
9392.133789
8268.943359
8449.545898
8422.563477
7531.890625
7519.152344
7186.670898
6926.652344
6586.491699
6478.875000
6126.008301
6042.668945
5858.208496
5540.864258
5312.747070
5017.687500
5128.724121
4298.236816
4614.424316
2174.611084
5399.796387
1478.697754
5184.822754
0.000000
0.000000
0.000000
8384.909180
8785.358398
9459.494141
8284.689453
8772.455078
7821.695312
7877.092773
8016.903320
7261.605957
7313.943848
6983.452148
6725.349609
6410.773926
6155.858398
5712.300293
5539.972168
5243.229980
4975.285156
4665.316406
3983.125000
4385.142578
4983.570801
2899.850098
0.000000
5550.383301
0.000000
0.000000
0.000000
7838.553711
8681.609375
9088.779297
8575.866211
8069.905762
8310.582031
7327.492188
7545.706055
7191.159180
7056.777344
6633.923828
6573.986816
6211.145020
6167.386719
5800.473145
5688.675293
5415.081543
5104.418945
5109.938477
4779.941406
4367.920410
3217.286377
4612.417480
6124.730469
5413.672852
0.000000
0.000000
0.000000
8576.140625
9265.791016
9443.648438
8405.830078
8672.044922
8267.458984
7854.081055
8041.661133
7189.312500
7371.091797
6871.632812
6835.570312
6503.793457
6206.748047
6050.576172
5681.212891
5389.343750
5397.252441
4553.765625
4922.124023
4074.557617
4872.983398
3672.120605
3335.803955
5278.407715
0.000000
0.000000
0.000000
8229.000977
9006.176758
8935.197266
8770.590820
8222.217773
8110.878906
7720.758789
7489.172852
7378.747070
7149.759277
6811.913086
6550.023926
6379.776855
6013.860352
5812.928711
5655.609863
5122.286621
5415.163086
4633.542480
5082.614746
4274.826172
3920.003418
4589.239258
3077.178955
5418.351074
0.000000
0.000000
0.000000
8451.663086
9219.124023
9213.319336
8632.677734
8337.226562
8300.943359
7799.334961
7892.955566
7280.407715
7240.410645
6883.666992
6793.040527
6491.124023
6263.288574
6048.805664
5693.282227
5581.717773
5160.084473
4948.631836
4720.123535
4024.837646
4578.956055
3505.397705
3627.610352
5336.778320
0.000000
0.000000
0.000000
8536.129883
9192.793945
8857.416016
8672.645508
8478.103516
8187.804688
8058.005371
7640.771973
7518.060059
7316.258301
6905.173340
6745.720703
6354.062012
6128.124512
5802.781250
5661.733398
5200.551270
5238.444336
4643.355469
5048.709961
4598.988770
4129.327148
4510.086914
3379.796875
5110.230469
0.000000
0.000000
0.000000
8664.295898
9222.418945
9166.195312
8760.162109
8387.418945
8188.302734
7801.058594
7742.460449
7341.576172
7132.740723
6913.470703
6743.670898
6399.425781
6375.764648
5882.907227
5836.849609
5462.825195
5430.324707
4974.959961
4440.221680
4288.660156
4142.344238
3734.914551
3365.738037
5109.887695
0.000000
0.000000
0.000000
8675.104492
9314.451172
8813.336914
8666.068359
8499.990234
8251.988281
8003.044922
7807.759277
7384.745605
7412.709961
6894.387207
6774.784180
6397.819336
6076.997559
5950.564941
5624.213379
5261.541016
5224.343750
4645.259277
5153.537109
4405.510254
4187.009766
4132.716797
3694.301758
5368.273438
0.000000
0.000000
0.000000
8763.358398
9152.362305
9110.451172
8814.909180
8316.866211
8253.029297
7784.415527
7750.834473
7336.323242
7215.166504
6863.818848
6720.718262
6491.033691
6353.466797
5881.923340
5899.419922
5513.984375
5394.540527
5063.411621
4701.205566
4388.587891
4341.723633
3814.185303
3542.731934
5094.952148
0.000000
0.000000
0.000000
8765.388672
9416.998047
8772.961914
8638.282227
8472.726562
8304.242188
7913.674316
7844.258301
7362.588379
7318.454590
6883.533203
6852.787598
6256.704102
6271.464844
5802.991699
5751.057129
5230.374512
5305.217773
4684.006348
4963.641602
4440.384277
4115.188965
4236.708984
3573.448242
5233.751953
0.000000
0.000000
0.000000
8773.000000
9080.768555
9160.905273
8799.989258
8377.466797
8226.540039
7904.652832
7664.297363
7346.016602
7340.963379
6745.242676
6870.214844
6356.620605