<?xml version='1.0' encoding='UTF-8'?>
<VTKFile xmlns='VTK' byte_order='LittleEndian' version='0.1' type='UnstructuredGrid'>
<UnstructuredGrid>
<Piece NumberOfCells='1344' NumberOfPoints='1344'>
<Points>
<DataArray NumberOfComponents='3' type='Float32' Name='Position' format='ascii'>
-0.075000 -0.075000 0.000000
-0.075000 -0.050000 0.000000
-0.075000 -0.025000 0.000000
-0.075000 0.000000 0.000000
-0.075000 0.025000 0.000000
-0.075000 0.050000 0.000000
-0.075000 0.075000 0.000000
-0.075000 0.100000 0.000000
-0.075000 0.125000 0.000000
-0.075000 0.150000 0.000000
-0.075000 0.175000 0.000000
-0.075000 0.200000 0.000000
-0.075000 0.225000 0.000000
-0.075000 0.250000 0.000000
-0.075000 0.275000 0.000000
-0.075000 0.300000 0.000000
-0.075000 0.325000 0.000000
-0.075000 0.350000 0.000000
-0.075000 0.375000 0.000000
-0.075000 0.400000 0.000000
-0.075000 0.425000 0.000000
-0.075000 0.450000 0.000000
-0.075000 0.475000 0.000000
-0.075000 0.500000 0.000000
-0.075000 0.525000 0.000000
-0.075000 0.550000 0.000000
-0.075000 0.575000 0.000000
-0.075000 0.600000 0.000000
-0.050000 -0.075000 0.000000
-0.050000 -0.050000 0.000000
-0.050000 -0.025000 0.000000
-0.050000 0.000000 0.000000
-0.050000 0.025000 0.000000
-0.050000 0.050000 0.000000
-0.050000 0.075000 0.000000
-0.050000 0.100000 0.000000
-0.050000 0.125000 0.000000
-0.050000 0.150000 0.000000
-0.050000 0.175000 0.000000
-0.050000 0.200000 0.000000
-0.050000 0.225000 0.000000
-0.050000 0.250000 0.000000
-0.050000 0.275000 0.000000
-0.050000 0.300000 0.000000
-0.050000 0.325000 0.000000
-0.050000 0.350000 0.000000
-0.050000 0.375000 0.000000
-0.050000 0.400000 0.000000
-0.050000 0.425000 0.000000
-0.050000 0.450000 0.000000
-0.050000 0.475000 0.000000
-0.050000 0.500000 0.000000
-0.050000 0.525000 0.000000
-0.050000 0.550000 0.000000
-0.050000 0.575000 0.000000
-0.050000 0.600000 0.000000
-0.025000 -0.075000 0.000000
-0.025000 -0.050000 0.000000
-0.025000 -0.025000 0.000000
-0.025000 0.000000 0.000000
-0.025000 0.025000 0.000000
-0.025000 0.050000 0.000000
-0.025000 0.075000 0.000000
-0.025000 0.100000 0.000000
-0.025000 0.125000 0.000000
-0.025000 0.150000 0.000000
-0.025000 0.175000 0.000000
-0.025000 0.200000 0.000000
-0.025000 0.225000 0.000000
-0.025000 0.250000 0.000000
-0.025000 0.275000 0.000000
-0.025000 0.300000 0.000000
-0.025000 0.325000 0.000000
-0.025000 0.350000 0.000000
-0.025000 0.375000 0.000000
-0.025000 0.400000 0.000000
-0.025000 0.425000 0.000000
-0.025000 0.450000 0.000000
-0.025000 0.475000 0.000000
-0.025000 0.500000 0.000000
-0.025000 0.525000 0.000000
-0.025000 0.550000 0.000000
-0.025000 0.575000 0.000000
-0.025000 0.600000 0.000000
0.000000 -0.075000 0.000000
0.000000 -0.050000 0.000000
0.000000 -0.025000 0.000000
0.000000 0.000000 0.000000
0.000000 0.025000 0.000000
0.000000 0.050000 0.000000
0.000000 0.075000 0.000000
0.000000 0.100000 0.000000
0.000000 0.125000 0.000000
0.000000 0.150000 0.000000
0.000000 0.175000 0.000000
0.000000 0.200000 0.000000
0.000000 0.225000 0.000000
0.000000 0.250000 0.000000
0.000000 0.275000 0.000000
0.000000 0.300000 0.000000
0.000000 0.325000 0.000000
0.000000 0.350000 0.000000
0.000000 0.375000 0.000000
0.000000 0.400000 0.000000
0.000000 0.425000 0.000000
0.000000 0.450000 0.000000
0.000000 0.475000 0.000000
0.000000 0.500000 0.000000
0.000000 0.525000 0.000000
0.000000 0.550000 0.000000
0.000000 0.575000 0.000000
0.000000 0.600000 0.000000
0.025000 -0.075000 0.000000
0.025000 -0.050000 0.000000
0.025000 -0.025000 0.000000
0.025000 0.000000 0.000000
0.036139 0.021652 0.000000
0.059724 0.032193 0.000000
0.021825 0.038731 0.000000
0.025744 0.118982 0.000000
0.047539 0.193809 0.000000
0.076122 0.277761 0.000000
0.025606 0.201821 0.000000
0.056264 0.242715 0.000000
0.024695 0.251207 0.000000
0.027085 0.274167 0.000000
0.020493 0.355989 0.000000
0.021487 0.399767 0.000000
0.022433 0.439066 0.000000
0.022729 0.471463 0.000000
0.024823 0.498407 0.000000
0.020666 0.541603 0.000000
0.039975 0.558928 0.000000
0.065973 0.564782 0.000000
0.087024 0.579361 0.000000
0.050677 0.586197 0.000000
0.036108 0.600000 0.000000
0.014433 0.600000 0.000000
0.143457 0.600000 0.000000
0.163192 0.600000 0.000000
0.050000 -0.075000 0.000000
0.050000 -0.050000 0.000000
0.050000 -0.025000 0.000000
0.050000 0.000000 0.000000
0.078663 0.024252 0.000000
0.069082 0.056982 0.000000
0.026497 0.065930 0.000000
0.022617 0.089597 0.000000
0.023184 0.149913 0.000000
0.024829 0.178344 0.000000
0.085765 0.256341 0.000000
0.054189 0.265620 0.000000
0.022241 0.300258 0.000000
0.039425 0.344180 0.000000
0.029269 0.323215 0.000000
0.034717 0.379025 0.000000
0.037524 0.424223 0.000000
0.041200 0.460450 0.000000
0.048784 0.492148 0.000000
0.031439 0.520385 0.000000
0.051479 0.536455 0.000000
0.089534 0.518502 0.000000
0.023699 0.577488 0.000000
0.081095 0.600000 0.000000
0.102481 0.600000 0.000000
0.062797 0.600000 0.000000
0.174036 0.578381 0.000000
0.182635 0.600000 0.000000
0.075000 -0.075000 0.000000
0.075000 -0.050000 0.000000
0.075000 -0.025000 0.000000
0.075000 0.000000 0.000000
0.111173 0.048112 0.000000
0.047970 0.057982 0.000000
0.053938 0.084811 0.000000
0.041529 0.133578 0.000000
0.078409 0.231703 0.000000
0.050060 0.220453 0.000000
0.100837 0.231652 0.000000
0.025394 0.228971 0.000000
0.048101 0.290120 0.000000
0.051076 0.311463 0.000000
0.086829 0.342239 0.000000
0.063578 0.343766 0.000000
0.055535 0.370591 0.000000
0.047181 0.403681 0.000000
0.061163 0.448508 0.000000
0.065438 0.471884 0.000000
0.120042 0.514810 0.000000
0.106428 0.535605 0.000000
0.074189 0.540508 0.000000
0.096100 0.555891 0.000000
0.116122 0.580108 0.000000
0.123011 0.600000 0.000000
0.202514 0.600000 0.000000
0.222200 0.600000 0.000000
0.100000 -0.075000 0.000000
0.100000 -0.050000 0.000000
0.100000 -0.025000 0.000000
0.100000 0.000000 0.000000
0.129411 0.065005 0.000000
0.066911 0.129725 0.000000
0.064645 0.168490 0.000000
0.046266 0.103935 0.000000
0.068930 0.202549 0.000000
0.046598 0.160039 0.000000
0.111941 0.297889 0.000000
0.121319 0.260476 0.000000
0.104152 0.272839 0.000000
0.075276 0.318644 0.000000
0.100377 0.372589 0.000000
0.078529 0.367580 0.000000
0.068773 0.426677 0.000000
0.089682 0.420617 0.000000
0.090855 0.450479 0.000000
0.093243 0.473875 0.000000
0.061112 0.513236 0.000000
0.077657 0.495113 0.000000
0.138071 0.536690 0.000000
0.171655 0.538411 0.000000
0.124702 0.555750 0.000000
0.146202 0.578017 0.000000
0.232998 0.578044 0.000000
0.241608 0.600000 0.000000
0.125000 -0.075000 0.000000
0.125000 -0.050000 0.000000
0.125000 -0.025000 0.000000
0.125000 0.000000 0.000000
0.110259 0.081611 0.000000
0.091975 0.062634 0.000000
0.086489 0.154646 0.000000
0.120689 0.212507 0.000000
0.091381 0.205652 0.000000
0.146925 0.215014 0.000000
0.125528 0.240741 0.000000
0.106598 0.319610 0.000000
0.085825 0.299136 0.000000
0.111367 0.342920 0.000000
0.093351 0.395414 0.000000
0.069037 0.398718 0.000000
0.127630 0.419682 0.000000
0.109519 0.437155 0.000000
0.132877 0.448163 0.000000
0.116112 0.469275 0.000000
0.105694 0.496365 0.000000
0.140036 0.501255 0.000000
0.156841 0.517581 0.000000
0.188652 0.556179 0.000000
0.204680 0.577236 0.000000
0.155008 0.554772 0.000000
0.261339 0.576147 0.000000
0.261119 0.600000 0.000000
0.150000 -0.075000 0.000000
0.150000 -0.050000 0.000000
0.150000 -0.025000 0.000000
0.150000 0.000000 0.000000
0.102079 0.027699 0.000000
0.140461 0.088791 0.000000
0.105724 0.104969 0.000000
0.082522 0.084947 0.000000
0.088278 0.174386 0.000000
0.108466 0.190131 0.000000
0.133229 0.192306 0.000000
0.149650 0.236129 0.000000
0.146015 0.275461 0.000000
0.136618 0.293718 0.000000
0.130134 0.355908 0.000000
0.117624 0.400315 0.000000
0.127481 0.378815 0.000000
0.149196 0.408303 0.000000
0.172011 0.396174 0.000000
0.152840 0.432272 0.000000
0.155497 0.461641 0.000000
0.138073 0.477495 0.000000
0.182582 0.513598 0.000000
0.208400 0.509297 0.000000
0.201248 0.534128 0.000000
0.217976 0.554488 0.000000
0.280707 0.600000 0.000000
0.300293 0.600000 0.000000
0.175000 -0.075000 0.000000
0.175000 -0.050000 0.000000
0.175000 -0.025000 0.000000
0.175000 0.000000 0.000000
0.127858 0.022848 0.000000
0.158480 0.063052 0.000000
0.130249 0.109079 0.000000
0.087545 0.129146 0.000000
0.116469 0.129704 0.000000
0.113235 0.152786 0.000000
0.151487 0.174940 0.000000
0.158239 0.147523 0.000000
0.168684 0.193358 0.000000
0.177986 0.214703 0.000000
0.163186 0.255332 0.000000
0.134266 0.326970 0.000000
0.153523 0.353207 0.000000
0.194361 0.382476 0.000000
0.180299 0.419046 0.000000
0.177705 0.443894 0.000000
0.207108 0.462623 0.000000
0.180515 0.466885 0.000000
0.163543 0.490363 0.000000
0.189529 0.489601 0.000000
0.235291 0.509541 0.000000
0.229215 0.532487 0.000000
0.316780 0.575969 0.000000
0.318954 0.600000 0.000000
0.200000 -0.075000 0.000000
0.200000 -0.050000 0.000000
0.200000 -0.025000 0.000000
0.200000 0.000000 0.000000
0.160702 0.022952 0.000000
0.140771 0.042333 0.000000
0.160477 0.093618 0.000000
0.075772 0.105887 0.000000
0.180525 0.138458 0.000000
0.132031 0.164180 0.000000
0.227822 0.113105 0.000000
0.254616 0.116836 0.000000
0.179147 0.168372 0.000000
0.178982 0.239224 0.000000
0.167567 0.285704 0.000000
0.175733 0.307943 0.000000
0.149756 0.314929 0.000000
0.170607 0.337982 0.000000
0.153384 0.382873 0.000000
0.201358 0.408542 0.000000
0.202409 0.437688 0.000000
0.217021 0.487097 0.000000
0.247794 0.487652 0.000000
0.262846 0.508043 0.000000
0.257359 0.531705 0.000000
0.246205 0.554451 0.000000
0.344711 0.576277 0.000000
0.338618 0.600000 0.000000
0.225000 -0.075000 0.000000
0.225000 -0.050000 0.000000
0.225000 -0.025000 0.000000
0.225000 0.000000 0.000000
0.189893 0.023185 0.000000
0.170597 0.044464 0.000000
0.165709 0.116049 0.000000
0.139617 0.135121 0.000000
0.206397 0.068767 0.000000
0.194316 0.090384 0.000000
0.248435 0.153328 0.000000
0.211905 0.130304 0.000000
0.198532 0.152754 0.000000
0.192267 0.188700 0.000000
0.191869 0.264375 0.000000
0.207984 0.308340 0.000000
0.192358 0.325809 0.000000
0.197388 0.354334 0.000000
0.174958 0.363733 0.000000
[...]
<PointData>
<DataArray NumberOfComponents='1' type='Int32' Name='ParticleType' format='ascii'>
3
3
3
3
3
3
3
3
3
3
3
3
3
3
3
3
3
3
3
3
3
3
3
3
3
3
3
3
3
3
3
3
3
3
3
3
3
3
3
3
3
3
3
3
3
3
3
3
3
3
3
3
3
3
3
3
3
3
2
2
2
2
2
2
2
2
2
2
2
2
2
2
2
2
2
2
2
2
2
2
2
2
2
2
3
3
2
2
2
2
2
2
2
2
2
2
2
2
2
2
2
2
2
2
2
2
2
2
2
2
2
2
3
3
2
2
0
0
0
0
0
0
0
0
0
0
0
0
0
0
0
0
0
0
0
0
0
0
0
0
3
3
2
2
0
0
0
0
0
0
0
0
0
0
0
0
0
0
0
0
0
0
0
0
0
0
0
0
3
3
2
2
0
0
0
0
0
0
0
0
0
0
0
0
0
0
0
0
0
0
0
0
0
0
0
0
3
3
2
2
0
0
0
0
0
0
0
0
0
0
0
0
0
0
0
0
0
0
0
0
0
0
0
0
3
3
2
2
0
0
0
0
0
0
0
0
0
0
0
0
0
0
0
0
0
0
0
0
0
0
0
0
3
3
2
2
0
0
0
0
0
0
0
0
0
0
0
0
0
0
0
0
0
0
0
0
0
0
0
0
3
3
2
2
0
0
0
0
0
0
0
0
0
0
0
0
0
0
0
0
0
0
0
0
0
0
0
0
3
3
2
2
0
0
0
0
0
0
0
0
0
0
0
0
0
0
0
0
0
0
0
0
0
0
0
0
3
3
2
2
0
0
0
0
0
0
0
0
0
0
0
0
0
0
0
0
0
0
0
0
0
0
0
0
3
3
2
2
0
0
0
0
0
0
0
0
0
0
0
0
0
0
0
0
0
0
0
0
0
0
0
0
3
3
2
2
0
0
0
0
0
0
0
0
0
0
0
0
0
0
0
0
0
0
0
0
0
0
0
0
3
3
2
2
0
0
0
0
0
0
0
0
0
0
0
0
0
0
0
0
0
0
0
0
0
0
0
0
3
3
2
2
0
0
0
0
0
0
0
0
0
0
0
0
0
0
0
0
0
0
0
0
0
0
0
0
3
3
2
2
0
0
0
0
0
0
0
0
0
0
0
0
0
0
0
0
0
0
0
0
0
0
0
0
3
3
2
2
0
0
0
0
0
0
0
0
0
0
0
0
0
0
0
0
0
0
0
0
0
0
0
0
3
3
2
2
0
0
0
0
0
0
0
0
0
0
0
0
0
0
0
0
0
0
0
0
0
0
0
0
3
3
2
2
0
0
0
0
0
0
0
0
0
0
0
0
0
0
0
0
0
0
0
0
0
0
0
0
3
3
2
2
0
0
0
0
0
0
0
0
0
0
0
0
0
0
0
0
0
0
0
0
0
0
0
0
3
3
2
2
0
0
0
0
0
0
0
0
0
0
0
0
0
0
0
0
0
0
0
0
0
0
0
0
3
3
2
2
0
0
0
0
0
0
0
0
0
0
0
0
0
0
0
0
0
0
0
0
0
0
0
0
3
3
2
2
0
0
0
0
0
0
0
0
0
0
0
0
0
0
0
0
0
0
0
0
0
0
0
0
3
3
2
2
0
0
0
0
0
0
0
0
0
0
0
0
0
0
0
0
0
0
0
0
0
0
0
0
3
3
2
2
0
0
0
0
0
0
0
0
0
0
0
0
0
0
0
0
0
0
0
0
0
0
0
0
3
3
2
2
0
0
0
0
0
0
0
0
0
0
0
0
0
0
0
0
0
0
0
0
0
0
0
0
3
3
2
2
0
0
0
0
0
0
0
0
0
0
0
0
0
0
0
0
0
0
0
0
0
0
0
0
3
3
2
2
0
0
0
0
0
0
0
0
0
0
0
0
0
0
0
0
0
0
0
0
0
0
0
0
3
3
2
2
0
0
0
0
0
0
0
0
0
0
0
0
0
0
0
0
0
0
0
0
0
0
0
0
3
3
2
2
0
0
0
0
0
0
0
0
0
0
0
0
0
0
0
0
0
0
0
0
0
0
0
0
3
3
2
2
0
0
0
0
0
0
0
0
0
0
0
0
0
0
0
0
0
0
0
0
0
0
0
0
3
3
2
2
0
0
0
0
0
0
0
0
0
0
0
0
0
0
0
0
0
0
0
0
0
0
0
0
3
3
2
2
0
0
0
0
0
0
0
0
0
0
0
0
0
0
0
0
0
0
0
0
0
0
0
0
3
3
2
2
0
0
0
0
0
0
0
0
0
0
0
0
0
0
0
0
0
0
0
0
0
0
0
0
3
3
2
2
0
0
0
0
0
0
0
0
0
0
0
0
0
0
0
0
0
0
0
0
0
0
0
0
3
3
2
2
0
0
0
0
0
0
0
0
0
0
0
0
0
0
0
0
0
0
0
0
0
0
0
0
3
3
2
2
0
0
0
0
0
0
0
0
0
0
0
0
0
0
0
0
0
0
0
0
0
0
0
0
3
3
2
2
0
0
0
0
0
0
0
0
0
0
0
0
0
0
0
0
0
0
0
0
0
0
0
0
3
3
2
2
0
0
0
0
0
0
0
0
0
0
0
0
0
0
0
0
0
0
0
0
0
0
0
0
3
3
2
2
0
0
0
0
0
0
0
0
0
0
0
0
0
0
0
0
0
0
0
0
0
0
0
0
3
3
2
2
0
0
0
0
0
0
0
0
0
0
0
0
0
0
0
0
0
0
0
0
0
0
0
0
3
3
2
2
0
0
0
0
0
0
0
0
0
0
0
0
0
0
0
0
0
0
0
0
0
0
0
0
3
3
2
2
2
2
2
2
2
2
2
2
2
2
2
2
2
2
2
2
2
2
2
2
2
2
2
2
3
3
2
2
2
2
2
2
2
2
2
2
2
2
2
2
2
2
2
2
2
2
2
2
2
2
2
2
3
3
3
3
3
3
3
3
3
3
3
3
3
3
3
3
3
3
3
3
3
3
3
3
3
3
3
3
3
3
3
3
3
3
3
3
3
3
3
3
3
3
3
3
3
3
3
3
3
3
3
3
3
3
3
3
</DataArray>
<DataArray NumberOfComponents='1' type='Float32' Name='Velocity' format='ascii'>
0.000000
0.000000
0.000000
0.000000
0.000000
0.000000
0.000000
0.000000
0.000000
0.000000
0.000000
0.000000
0.000000
0.000000
0.000000
0.000000
0.000000
0.000000
0.000000
0.000000
0.000000
0.000000
0.000000
0.000000
0.000000
0.000000
0.000000
0.000000
0.000000
0.000000
0.000000
0.000000
0.000000
0.000000
0.000000
0.000000
0.000000
0.000000
0.000000
0.000000
0.000000
0.000000
0.000000
0.000000
0.000000
0.000000
0.000000
0.000000
0.000000
0.000000
0.000000
0.000000
0.000000
0.000000
0.000000
0.000000
0.000000
0.000000
0.000000
0.000000
0.000000
0.000000
0.000000
0.000000
0.000000
0.000000
0.000000
0.000000
0.000000
0.000000
0.000000
0.000000
0.000000
0.000000
0.000000
0.000000
0.000000
0.000000
0.000000
0.000000
0.000000
0.000000
0.000000
0.000000
0.000000
0.000000
0.000000
0.000000
0.000000
0.000000
0.000000
0.000000
0.000000
0.000000
0.000000
0.000000
0.000000
0.000000
0.000000
0.000000
0.000000
0.000000
0.000000
0.000000
0.000000
0.000000
0.000000
0.000000
0.000000
0.000000
0.000000
0.000000
0.000000
0.000000
0.000000
0.000000
0.186222
0.102138
0.184978
0.049966
0.233079
0.316759
0.012152
0.098506
0.088081
0.069700
0.206395
0.035582
0.024336
0.135768
0.142316
0.279205
0.349405
0.473364
0.100000
0.100000
0.100000
0.100000
0.100000
0.100000
0.000000
0.000000
0.000000
0.000000
0.081237
0.303386
0.226136
0.132598
0.262211
0.132715
0.259927
0.191848
0.143775
0.055643
0.874942
0.118739
0.056275
0.166539
0.312802
0.226919
0.147824
0.146496
0.100000
0.100000
0.100000
0.100000
0.100000
0.100000
0.000000
0.000000
0.000000
0.000000
0.137524
0.104798
0.120062
0.084556
0.211354
0.250883
0.183308
0.184207
0.342022
0.408753
0.181471
0.343828
0.082420
0.092849
0.230213
0.147186
0.214686
0.251696
0.514209
0.382149
0.100000
0.100000
0.100000
0.100000
0.000000
0.000000
0.000000
0.000000
0.218211
0.214832
0.164239
0.188633
0.102035
0.111021
0.242791
0.055293
0.316824
0.308563
0.118958
0.205902
0.176264
0.263015
0.324582
0.316755
0.319854
0.401843
0.109685
0.339703
0.442783
0.100000
0.100000
0.100000
0.000000
0.000000
0.000000
0.000000
0.294144
0.127990
0.122546
0.148426
0.306187
0.130264
0.127887
0.342089
0.313769
0.108737
0.204528
0.187348
0.105282
0.293487
0.080597
0.296098
0.042368
0.244256
0.367581
0.471575
0.100000
0.178061
0.100000
0.100000
0.000000
0.000000
0.000000
0.000000
0.111293
0.276006
0.134082
0.074364
0.019152
0.263532
0.094654
0.215577
0.165665
0.452353
0.321556
0.329450
0.532279
0.313927
0.228689
0.320081
0.069759
0.308469
0.271365
0.297543
0.168792
0.234622
0.100000
0.100000
0.000000
0.000000
0.000000
0.000000
0.133768
0.060338
0.268442
0.070742
0.187488
0.208116
0.085176
0.208256
0.265782
0.125420
0.179027
0.685677
0.103513
0.269771
0.478929
0.242565
0.198028
0.226030
0.236345
0.152120
0.182365
0.186525
0.100000
0.100000
0.000000
0.000000
0.000000
0.000000
0.126375
0.114449
0.101935
0.129672
0.197156
0.276507
0.117359
0.434795
0.152825
0.087434
0.069987
0.471323
0.371653
0.573216
0.455917
0.384103
0.261072
0.078126
0.065201
0.120864
0.352549
0.280767
0.100000
0.100000
0.000000
0.000000
0.000000
0.000000
0.101896
0.081681
0.148272
0.202515
0.198769
0.211630
0.119124
0.106310
0.112934
0.092849
0.360501
0.121251
0.351686
0.221517
0.110110
0.279395
0.182788
0.087711
0.225585
0.051152
0.153256
0.326292
0.100000
0.100000
0.000000
0.000000
0.000000
0.000000
0.049940
0.084384
0.125154
0.041643
0.144402
0.155506
0.135257
0.171016
0.163134
0.089965
0.164322
0.185010
0.151737
0.125008
0.241491
0.263461
0.091016
0.191339
0.242024
0.190403
0.218468
0.162168
0.100000
0.100000
0.000000
0.000000
0.000000
0.000000
0.184300
0.222197
0.145121
0.174333
0.224943
0.135108
0.112538
0.163051
0.330371
0.193060
0.187947
0.023858
0.296296
0.072426
0.031572
0.077308
0.405657
0.284086
0.437136
0.078197
0.246829
0.100000
0.100000
0.100000
0.000000
0.000000
0.000000
0.000000
0.127196
0.163394
0.181968
0.269397
0.159987
0.197594
0.168285
0.109565
0.198244
0.296673
0.202934
0.234687
0.374275
0.179346
0.008860
0.048999
0.058946
0.435922
0.334389
0.305138
0.049461
0.202399
0.100000
0.100000
0.000000
0.000000
0.000000
0.000000
0.088878
0.223784
0.225951
0.300079
0.053466
0.128525
0.032056
0.123709
0.263176
0.144289
0.200127
0.138160
0.261936
0.158757
0.171704
0.029200
0.117402
0.411071
0.071344
0.273427
0.099322
0.248016
0.100000
0.100000
0.000000
0.000000
0.000000
0.000000
0.043251
0.054274
0.204074
0.097563
0.066846
0.088629
0.097768
0.138239
0.194994
0.194551
0.163295
0.358946
0.112744
0.126625
0.136919
0.037810
0.277023
0.198855
0.019652
0.110092
0.259638
0.100000
0.100748
0.100000
0.000000
0.000000
0.000000
0.000000
0.057618
0.131335
0.109043
0.042447
0.066925
0.030498
0.142865
0.268955
0.164234
0.133030
0.162150
0.165273
0.237626
0.271044
0.160065
0.225482
0.171572
0.102317
0.110611
0.165690
0.239127
0.145405
0.100000
0.100000
0.000000
0.000000
0.000000
0.000000
0.126814
0.067292
0.012871
0.157975
0.074196
0.223249
0.136251
0.115694
0.005557
0.431779
0.114977
0.130746
0.180062
0.060491
0.216833
0.260794
0.305865
0.287048
0.051482
0.182532
0.061201
0.217760
0.100000
0.100000
0.000000
0.000000
0.000000
0.000000
0.071151
0.094797
0.124327
0.149690
0.051328
0.158598
0.077384
0.158059
0.188777
0.128198
0.133176
0.139568
0.247563
0.081767
0.193030
0.006822
0.048227
0.091495
0.074211
0.126193
0.202994
0.100000
0.151936
0.100000
0.000000
0.000000
0.000000
0.000000
0.054705
0.116437
0.216833
0.128432
0.143506
0.101389
0.239388
0.084445
0.312838
0.266677
0.218117
0.179357
0.224224
0.210646
0.280877
0.346634
0.083604
0.234355
0.208501
0.156126
0.250673
0.062171
0.083398
0.100000
0.000000
0.000000
0.000000
0.000000
0.091121
0.197856
0.056726
0.124695
0.277002
0.093712
0.416473
0.345732
0.191677
0.099096
0.088859
0.203993
0.140649
0.080795
0.159262
0.167567
0.212833
0.073611
0.166437
0.188331
0.224609
0.351005
0.119445
0.100000
0.000000
0.000000
0.000000
0.000000
0.104358
0.177394
0.222805
0.083153
0.110131
0.171046
0.107215
0.160249
0.071434
0.034489
0.144305
0.166619
0.134089
0.120826
0.172386
0.104601
0.038835
0.137874
0.066994
0.071562
0.103420
0.100000
0.100000
0.100000
0.000000
0.000000
0.000000
0.000000
0.154265
0.079169
0.266041
0.152019
0.225640
0.089815
0.135146
0.027971
0.119921
0.224949
0.063823
0.102561
0.146105
0.171336
0.162567
0.240955
0.210670
0.236391
0.143811
0.171014
0.063602
0.026358
0.194089
0.100000
0.000000
0.000000
0.000000
0.000000
0.014375
0.120602
0.101738
0.154441
0.292205
0.158475
0.260829
0.060597
0.175436
0.085012
0.140537
0.149359
0.047324
0.073272
0.328183
0.107906
0.228170
0.064885
0.350679
0.198152
0.094435
0.304874
0.362801
0.100000
0.000000
0.000000
0.000000
0.000000
0.165224
0.350603
0.048664
0.356803
0.364338
0.065937
0.067301
0.021550
0.093586
0.026462
0.190122
0.138349
0.125011
0.247413
0.215800
0.097996
0.053765
0.178505
0.062218
0.101084
0.284875
0.292170
0.367673
0.100000
0.000000
0.000000
0.000000
0.000000
0.214286
0.062722
0.130508
0.092874
0.266756
0.229427
0.084578
0.055141
0.181232
0.211477
0.176243
0.114391
0.125254
0.289185
0.023132
0.337016
0.148477
0.429368
0.071211
0.247022
0.126045
0.218104
0.256328
0.100000
0.000000
0.000000
0.000000
0.000000
0.191161
0.084099
0.137338
0.189892
0.117353
0.093555
0.157798
0.082366
0.149061
0.132583
0.038716
0.047447
0.099557
0.093096
0.069868
0.119739
0.144233
0.093300
0.289740
0.090777
0.314928
0.105246
0.137599
0.100000
0.000000
0.000000
0.000000
0.000000
0.116940
0.249357
0.268636
0.220621
0.243486
0.152727
0.295877
0.172981
0.070766
0.078067
0.227674
0.156363
0.108304
0.071391
0.130267
0.324998
0.098563
0.206951
0.201386
0.261059
0.516868
0.419918
0.100000
0.100000
0.000000
0.000000
0.000000
0.000000
0.162840
0.247831
0.090433
0.116936
0.064939
0.072947
0.099201
0.110140
0.146770
0.218634
0.058802
0.145659
0.289830
0.273101
0.092500
0.101171
0.150531
0.207486
0.241784
0.119452
0.372085
0.365822
0.119430
0.100000
0.000000
0.000000
0.000000
0.000000
0.027432
0.069620
0.080822
0.257168
0.131196
0.051009
0.038647
0.102641
0.081078
0.119666
0.204479
0.094842
0.035398
0.060299
0.071575
0.101468
0.105610
0.119217
0.093010
0.108007
0.208756
0.241133
0.908164
0.100000
0.000000
0.000000
0.000000
0.000000
0.029666
0.040505
0.098502
0.256902
0.125107
0.241238
0.246425
0.105143
0.224555
0.204586
0.099438
0.311682
0.222616
0.093263
0.146157
0.227814
0.093489
0.096942
0.269331
0.427950
0.124994
0.074918
0.100000
0.100000
0.000000
0.000000
0.000000
0.000000
0.119971
0.103918
0.160627
0.119983
0.277297
0.151127
0.146312
0.129684
0.124228
0.049497
0.331101
0.201569
0.170108
0.080750
0.207098
0.152179
0.063535
0.101421
0.089418
0.295439
0.261256
0.256535
0.439762
0.100000
0.000000
0.000000
0.000000
0.000000
0.084818
0.093390
0.147345
0.191732
0.165538
0.091296
0.115590
0.299051
0.176154
0.125853
0.167560
0.214897
0.364216
0.244917
0.222944
0.103554
0.063587
0.216758
0.197610
0.191691
0.313032
0.348802
0.309686
0.100000
0.000000
0.000000
0.000000
0.000000
0.093090
0.098408
0.090650
0.225183
0.070970
0.041926
0.141405
0.210666
0.195120
0.093084
0.209298
0.193870
0.133921
0.025528
0.201584
0.229813
0.034950
0.172723
0.173084
0.120056
0.263711
0.123401
0.233651
0.100000
0.000000
0.000000
0.000000
0.000000
0.029128
0.199120
0.221738
0.178118
0.028403
0.100168
0.319016
0.134363
0.185506
0.063401
0.161054
0.350980
0.207536
0.090605
0.046868
0.047164
0.150345
0.086413
0.175614
0.096971
0.390179
0.711493
0.133437
0.100000
0.000000
0.000000
0.000000
0.000000
0.147133
0.104170
0.242006
0.109567
0.081253
0.198360
0.311446
0.053576
0.260098
0.224057
0.191239
0.229577
0.200125
0.138038
0.043912
0.156414
0.132992
0.078525
0.308095
0.146550
0.237709
0.477899
0.325057
0.100000
0.000000
0.000000
0.000000
0.000000
0.085825
0.256026
0.311204
0.151963
0.030837
0.054617
0.150254
0.256013
0.144852
0.217958
0.071728
0.118292
0.094750
0.122321
0.047325
0.138421
0.088011
0.150719
0.336990
0.178204
0.222683
0.522916
0.267425
0.100000
0.000000
0.000000
0.000000
0.000000
0.095117
0.238180
0.202407
0.270079
0.236684
0.309149
0.122522
0.303320
0.240284
0.230051
0.039028
0.118333
0.170212
0.047870
0.190721
0.084750
0.222615
0.241346
0.139552
0.023266
0.253956
0.351448
0.045928
0.100000
0.000000
0.000000
0.000000
0.000000
0.056412
0.110979
0.177845
0.033609
0.163472
0.186080
0.130028
0.079036
0.029956
0.111526
0.293910
0.144408
0.114521
0.154229
0.235654
0.282603
0.105935
0.142065
0.108253
0.219743
0.241287
0.601929
0.480946
0.100000
0.000000
0.000000
0.000000
0.000000
0.127927
0.038307
0.389686
0.158220
0.299169
0.052077
0.022961
0.132024
0.077826
0.026496
0.148434
0.097618
0.170961
0.027591
0.123742
0.163361
0.129312
0.180747
0.399126
0.405631
0.264533
0.439122
0.179233
0.100000
0.000000
0.000000
0.000000
0.000000
0.157326
0.216807
0.290936
0.049447
0.079198
0.099817
0.149910
0.257845
0.305812
0.012260
0.194479
0.170284
0.095831
0.196471
0.312285
0.149684
0.046421
0.195966
0.374137
0.450572
0.219373
0.612158
0.213214
0.100000
0.000000
0.000000
0.000000
0.000000
0.048698
0.144961
0.056284
0.130769
0.015201
0.069536
0.066869
0.147708
0.093033
0.197066
0.058876
0.160592
0.096723
0.107172
0.170196
0.019501
0.275231
0.285657
0.255087
0.064917
0.282814
0.387699
0.399164
0.100000
0.000000
0.000000
0.000000
0.000000
0.000000
0.000000
0.000000
0.000000
0.000000
0.000000
0.000000
0.000000
0.000000
0.000000
0.000000
0.000000
0.000000
0.000000
0.000000
0.000000
0.000000
0.000000
0.000000
0.000000
0.000000
0.000000
0.000000
0.000000
0.000000
0.000000
0.000000
0.000000
0.000000
0.000000
0.000000
0.000000
0.000000
0.000000
0.000000
0.000000
0.000000
0.000000
0.000000
0.000000
0.000000
0.000000
0.000000
0.000000
0.000000
0.000000
0.000000
0.000000
0.000000
0.000000
0.000000
0.000000
0.000000
0.000000
0.000000
0.000000
0.000000
0.000000
0.000000
0.000000
0.000000
0.000000
0.000000
0.000000
0.000000
0.000000
0.000000
0.000000
0.000000
0.000000
0.000000
0.000000
0.000000
0.000000
0.000000
0.000000
0.000000
0.000000
0.000000
0.000000
0.000000
0.000000
0.000000
0.000000
0.000000
0.000000
0.000000
0.000000
0.000000
0.000000
0.000000
0.000000
0.000000
0.000000
0.000000
0.000000
0.000000
0.000000
0.000000
0.000000
0.000000
0.000000
0.000000
0.000000
0.000000
0.000000
0.000000
0.000000
</DataArray>
<DataArray NumberOfComponents='1' type='Float32' Name='pressure' format='ascii'>
0.000000
0.000000
0.000000
0.000000
0.000000
0.000000
0.000000
0.000000
0.000000
0.000000
0.000000
0.000000
0.000000
0.000000
0.000000
0.000000
0.000000
0.000000
0.000000
0.000000
0.000000
0.000000
0.000000
0.000000
0.000000
0.000000
0.000000
0.000000
0.000000
0.000000
0.000000
0.000000
0.000000
0.000000
0.000000
0.000000
0.000000
0.000000
0.000000
0.000000
0.000000
0.000000
0.000000
0.000000
0.000000
0.000000
0.000000
0.000000
0.000000
0.000000
0.000000
0.000000
0.000000
0.000000
0.000000
0.000000
0.000000
0.000000
63420.218750
63314.191406
63558.574219
63404.519531
62013.441406
60971.734375
58775.472656
58081.054688
55274.062500
52204.773438
48879.816406
45203.527344
39136.972656
34917.363281
29851.783203
35830.121094
40280.789062
46236.226562
48197.746094
50381.585938
51070.519531
49102.101562
46516.523438
41043.640625
31505.494141
0.000000
0.000000
0.000000
63678.402344
62776.746094
62410.203125
63770.710938
61982.234375
60366.218750
58441.031250
58921.269531
55869.691406
52660.347656
49183.128906
46616.523438
40463.480469
35891.570312
0.000000
36435.906250
40042.156250
47171.136719
47151.652344
50944.625000
52622.773438
50058.125000
46874.902344
44043.843750
40432.125000
0.000000
0.000000
0.000000
64833.046875
63743.894531
64762.441406
63479.726562
63038.394531
60012.835938
55880.058594
52538.769531
54571.804688
52882.675781
48797.957031
45049.351562
40718.648438
46919.046875
50701.539062
52715.804688
51224.078125
47801.882812
47434.257812
49399.687500
59935.425781
47117.085938
31680.898438
32237.080078
71028.359375
75987.585938
0.000000
0.000000
65126.050781
64247.457031
65286.093750
63121.535156
62412.820312
61390.992188
57549.472656
55487.066406
54864.195312
49341.625000
40185.230469
43394.449219
38891.339844
46271.316406
50617.242188
53228.871094
52777.035156
51311.472656
52420.808594
58710.609375
46967.332031
43899.250000
54709.175781
0.000000
84445.132812
79306.851562
0.000000
0.000000
65371.804688
65360.464844
65333.347656
63890.703125
61506.074219
60394.472656
55975.937500
53750.621094
57465.496094
50667.140625
46628.996094
44967.285156
54044.472656
48952.148438
48748.031250
51182.457031
55213.027344
55529.175781
64623.992188
62777.113281
53975.015625
58284.570312
70808.867188
63599.214844
83871.781250
87883.328125
0.000000
0.000000
65055.812500
64954.582031
65877.257812
60653.761719
58528.273438
61398.617188
56457.320312
58032.863281
57558.371094
58737.050781
57036.593750
50364.636719
55874.589844
53072.621094
54874.054688
56538.378906
58316.058594
60641.351562
54661.105469
57887.222656
67553.960938
76281.281250
65034.253906
79323.953125
97642.328125
92095.500000
0.000000
0.000000
67398.734375
67325.671875
63477.550781
64621.636719
60668.523438
60775.226562
58472.050781
61428.230469
60266.078125
56529.742188
52974.218750
58215.351562
57189.218750
53235.992188
63597.023438
60945.992188
63685.914062
62523.535156
60821.371094
68283.617188
72324.039062
80674.296875
91382.367188
72668.953125
102327.007812
95430.007812
0.000000
0.000000
67879.179688
67571.718750
65454.507812
66013.984375
63210.390625
63808.082031
59606.644531
60412.097656
61552.683594
62706.457031
61388.058594
60042.828125
61219.695312
61070.386719
59964.074219
64814.476562
68100.414062
66315.492188
68543.140625
68024.851562
76808.484375
80665.390625
81053.312500
86624.492188
99151.367188
103504.546875
0.000000
0.000000
68866.210938
67744.882812
65975.750000
66397.609375
63870.359375
61507.710938
63747.511719
61819.519531
64918.472656
64241.750000
64217.199219
65276.046875
63465.875000
58932.917969
64553.546875
69822.812500
69850.960938
71478.812500
75160.304688
73264.046875
70131.140625
75919.023438
84413.921875
85843.312500
110435.164062
106063.343750
0.000000
0.000000
69064.906250
69120.062500
66983.773438
66153.257812
65128.234375
62201.605469
65511.457031
62601.175781
68043.375000
69638.539062
64451.796875
64154.222656
62557.753906
64933.375000
62765.441406
64606.503906
64068.566406
70870.640625
73183.687500
79359.210938
84123.125000
88414.648438
90853.867188
91762.351562
113152.070312
107498.476562
0.000000
0.000000
69083.117188
69324.351562
67710.914062
67425.421875
65879.367188
63234.097656
68097.757812
67440.656250
68893.218750
67271.015625
66912.851562
65990.289062
66015.945312
67591.890625
68091.617188
68065.812500
66580.757812
77603.828125
76318.617188
79886.570312
82987.921875
89133.617188
94267.609375
96163.617188
112727.523438
108647.554688
0.000000
0.000000
69763.460938
69739.570312
69032.460938
68160.171875
66934.312500
66610.476562
68958.343750
67933.507812
68004.914062
67641.484375
69535.320312
66907.234375
65864.976562
66640.328125
69144.804688
71466.492188
74876.523438
74242.531250
79376.953125
80696.976562
92124.546875
90085.101562
95301.078125
92422.031250
105721.875000
107873.523438
0.000000
0.000000
69892.515625
69653.273438
69665.382812
70726.265625
68870.085938
68834.679688
69259.671875
69415.835938
69461.242188
66931.968750
68067.296875