<?xml version='1.0' encoding='UTF-8'?>
<VTKFile xmlns='VTK' byte_order='LittleEndian' version='0.1' type='UnstructuredGrid'>
<UnstructuredGrid>
<Piece NumberOfCells='1344' NumberOfPoints='1344'>
<Points>
<DataArray NumberOfComponents='3' type='Float32' Name='Position' format='ascii'>
-0.075000 -0.075000 0.000000
-0.075000 -0.050000 0.000000
-0.075000 -0.025000 0.000000
-0.075000 0.000000 0.000000
-0.075000 0.025000 0.000000
-0.075000 0.050000 0.000000
-0.075000 0.075000 0.000000
-0.075000 0.100000 0.000000
-0.075000 0.125000 0.000000
-0.075000 0.150000 0.000000
-0.075000 0.175000 0.000000
-0.075000 0.200000 0.000000
-0.075000 0.225000 0.000000
-0.075000 0.250000 0.000000
-0.075000 0.275000 0.000000
-0.075000 0.300000 0.000000
-0.075000 0.325000 0.000000
-0.075000 0.350000 0.000000
-0.075000 0.375000 0.000000
-0.075000 0.400000 0.000000
-0.075000 0.425000 0.000000
-0.075000 0.450000 0.000000
-0.075000 0.475000 0.000000
-0.075000 0.500000 0.000000
-0.075000 0.525000 0.000000
-0.075000 0.550000 0.000000
-0.075000 0.575000 0.000000
-0.075000 0.600000 0.000000
-0.050000 -0.075000 0.000000
-0.050000 -0.050000 0.000000
-0.050000 -0.025000 0.000000
-0.050000 0.000000 0.000000
-0.050000 0.025000 0.000000
-0.050000 0.050000 0.000000
-0.050000 0.075000 0.000000
-0.050000 0.100000 0.000000
-0.050000 0.125000 0.000000
-0.050000 0.150000 0.000000
-0.050000 0.175000 0.000000
-0.050000 0.200000 0.000000
-0.050000 0.225000 0.000000
-0.050000 0.250000 0.000000
-0.050000 0.275000 0.000000
-0.050000 0.300000 0.000000
-0.050000 0.325000 0.000000
-0.050000 0.350000 0.000000
-0.050000 0.375000 0.000000
-0.050000 0.400000 0.000000
-0.050000 0.425000 0.000000
-0.050000 0.450000 0.000000
-0.050000 0.475000 0.000000
-0.050000 0.500000 0.000000
-0.050000 0.525000 0.000000
-0.050000 0.550000 0.000000
-0.050000 0.575000 0.000000
-0.050000 0.600000 0.000000
-0.025000 -0.075000 0.000000
-0.025000 -0.050000 0.000000
-0.025000 -0.025000 0.000000
-0.025000 0.000000 0.000000
-0.025000 0.025000 0.000000
-0.025000 0.050000 0.000000
-0.025000 0.075000 0.000000
-0.025000 0.100000 0.000000
-0.025000 0.125000 0.000000
-0.025000 0.150000 0.000000
-0.025000 0.175000 0.000000
-0.025000 0.200000 0.000000
-0.025000 0.225000 0.000000
-0.025000 0.250000 0.000000
-0.025000 0.275000 0.000000
-0.025000 0.300000 0.000000
-0.025000 0.325000 0.000000
-0.025000 0.350000 0.000000
-0.025000 0.375000 0.000000
-0.025000 0.400000 0.000000
-0.025000 0.425000 0.000000
-0.025000 0.450000 0.000000
-0.025000 0.475000 0.000000
-0.025000 0.500000 0.000000
-0.025000 0.525000 0.000000
-0.025000 0.550000 0.000000
-0.025000 0.575000 0.000000
-0.025000 0.600000 0.000000
0.000000 -0.075000 0.000000
0.000000 -0.050000 0.000000
0.000000 -0.025000 0.000000
0.000000 0.000000 0.000000
0.000000 0.025000 0.000000
0.000000 0.050000 0.000000
0.000000 0.075000 0.000000
0.000000 0.100000 0.000000
0.000000 0.125000 0.000000
0.000000 0.150000 0.000000
0.000000 0.175000 0.000000
0.000000 0.200000 0.000000
0.000000 0.225000 0.000000
0.000000 0.250000 0.000000
0.000000 0.275000 0.000000
0.000000 0.300000 0.000000
0.000000 0.325000 0.000000
0.000000 0.350000 0.000000
0.000000 0.375000 0.000000
0.000000 0.400000 0.000000
0.000000 0.425000 0.000000
0.000000 0.450000 0.000000
0.000000 0.475000 0.000000
0.000000 0.500000 0.000000
0.000000 0.525000 0.000000
0.000000 0.550000 0.000000
0.000000 0.575000 0.000000
0.000000 0.600000 0.000000
0.025000 -0.075000 0.000000
0.025000 -0.050000 0.000000
0.025000 -0.025000 0.000000
0.025000 0.000000 0.000000
0.024886 0.024922 0.000000
0.025056 0.050013 0.000000
0.024934 0.075034 0.000000
0.025056 0.100012 0.000000
0.024933 0.125125 0.000000
0.025046 0.150062 0.000000
0.024945 0.175190 0.000000
0.025031 0.200142 0.000000
0.024971 0.225240 0.000000
0.024997 0.250238 0.000000
0.024998 0.275311 0.000000
0.024971 0.300339 0.000000
0.025003 0.325418 0.000000
0.024971 0.350468 0.000000
0.024977 0.375575 0.000000
0.024945 0.400658 0.000000
0.024990 0.425888 0.000000
0.024918 0.450865 0.000000
0.024900 0.476484 0.000000
0.024992 0.501200 0.000000
0.024900 0.527200 0.000000
0.023204 0.552275 0.000000
0.033944 0.575073 0.000000
0.033995 0.600000 0.000000
0.050000 -0.075000 0.000000
0.050000 -0.050000 0.000000
0.050000 -0.025000 0.000000
0.050000 0.000000 0.000000
0.049940 0.024987 0.000000
0.049965 0.049976 0.000000
0.049946 0.075055 0.000000
0.049954 0.100035 0.000000
0.049939 0.125096 0.000000
0.049945 0.150119 0.000000
0.049952 0.175125 0.000000
0.049915 0.200206 0.000000
0.049966 0.225177 0.000000
0.049884 0.250287 0.000000
0.049965 0.275246 0.000000
0.049863 0.300359 0.000000
0.049934 0.325346 0.000000
0.049834 0.350418 0.000000
0.049878 0.375475 0.000000
0.049759 0.400480 0.000000
0.049803 0.425549 0.000000
0.049558 0.450674 0.000000
0.049765 0.475624 0.000000
0.049289 0.500858 0.000000
0.049804 0.526060 0.000000
0.048129 0.551000 0.000000
0.058959 0.575151 0.000000
0.058993 0.600000 0.000000
0.075000 -0.075000 0.000000
0.075000 -0.050000 0.000000
0.075000 -0.025000 0.000000
0.075000 0.000000 0.000000
0.074875 0.024965 0.000000
0.074973 0.050042 0.000000
0.074913 0.075045 0.000000
0.074953 0.100088 0.000000
0.074921 0.125078 0.000000
0.074932 0.150153 0.000000
0.074924 0.175114 0.000000
0.074928 0.200224 0.000000
0.074912 0.225150 0.000000
0.074929 0.250281 0.000000
0.074885 0.275214 0.000000
0.074924 0.300315 0.000000
0.074859 0.325299 0.000000
0.074900 0.350379 0.000000
0.074835 0.375356 0.000000
0.074840 0.400486 0.000000
0.074801 0.425470 0.000000
0.074723 0.450543 0.000000
0.074735 0.475542 0.000000
0.074426 0.500741 0.000000
0.074630 0.525472 0.000000
0.073951 0.550669 0.000000
0.083988 0.575180 0.000000
0.083998 0.600000 0.000000
0.100000 -0.075000 0.000000
0.100000 -0.050000 0.000000
0.100000 -0.025000 0.000000
0.100000 0.000000 0.000000
0.099870 0.024966 0.000000
0.099912 0.049991 0.000000
0.099903 0.075035 0.000000
0.099903 0.100056 0.000000
0.099887 0.125067 0.000000
0.099915 0.150135 0.000000
0.099859 0.175101 0.000000
0.099923 0.200203 0.000000
0.099837 0.225164 0.000000
0.099917 0.250275 0.000000
0.099822 0.275229 0.000000
0.099884 0.300351 0.000000
0.099802 0.325306 0.000000
0.099821 0.350422 0.000000
0.099764 0.375409 0.000000
0.099711 0.400503 0.000000
0.099705 0.425443 0.000000
0.099525 0.450676 0.000000
0.099661 0.475422 0.000000
0.099325 0.500748 0.000000
0.099573 0.525406 0.000000
0.099224 0.550531 0.000000
0.108999 0.575202 0.000000
0.109000 0.600000 0.000000
0.125000 -0.075000 0.000000
0.125000 -0.050000 0.000000
0.125000 -0.025000 0.000000
0.125000 0.000000 0.000000
0.124853 0.024969 0.000000
0.124902 0.050023 0.000000
0.124863 0.075037 0.000000
0.124900 0.100076 0.000000
0.124856 0.125080 0.000000
0.124892 0.150137 0.000000
0.124848 0.175118 0.000000
0.124875 0.200214 0.000000
0.124845 0.225135 0.000000
0.124844 0.250303 0.000000
0.124845 0.275176 0.000000
0.124800 0.300371 0.000000
0.124837 0.325241 0.000000
0.124734 0.350443 0.000000
0.124824 0.375272 0.000000
0.124663 0.400533 0.000000
0.124781 0.425326 0.000000
0.124598 0.450533 0.000000
0.124680 0.475378 0.000000
0.124499 0.500538 0.000000
0.124660 0.525270 0.000000
0.124331 0.550414 0.000000
0.133997 0.575225 0.000000
0.134000 0.600000 0.000000
0.150000 -0.075000 0.000000
0.150000 -0.050000 0.000000
0.150000 -0.025000 0.000000
0.150000 0.000000 0.000000
0.149814 0.024964 0.000000
0.149874 0.050010 0.000000
0.149834 0.075037 0.000000
0.149869 0.100058 0.000000
0.149824 0.125065 0.000000
0.149867 0.150146 0.000000
0.149818 0.175076 0.000000
0.149847 0.200235 0.000000
0.149810 0.225105 0.000000
0.149826 0.250308 0.000000
0.149786 0.275145 0.000000
0.149807 0.300378 0.000000
0.149750 0.325199 0.000000
0.149775 0.350420 0.000000
0.149687 0.375284 0.000000
0.149725 0.400432 0.000000
0.149599 0.425337 0.000000
0.149624 0.450503 0.000000
0.149554 0.475308 0.000000
0.149468 0.500604 0.000000
0.149640 0.525184 0.000000
0.149428 0.550490 0.000000
0.158996 0.575241 0.000000
0.158999 0.600000 0.000000
0.175000 -0.075000 0.000000
0.175000 -0.050000 0.000000
0.175000 -0.025000 0.000000
0.175000 0.000000 0.000000
0.174813 0.024963 0.000000
0.174835 0.050008 0.000000
0.174829 0.075035 0.000000
0.174830 0.100061 0.000000
0.174828 0.125067 0.000000
0.174812 0.150131 0.000000
0.174815 0.175092 0.000000
0.174815 0.200213 0.000000
0.174781 0.225112 0.000000
0.174820 0.250288 0.000000
0.174742 0.275145 0.000000
0.174802 0.300348 0.000000
0.174709 0.325201 0.000000
0.174753 0.350408 0.000000
0.174696 0.375240 0.000000
0.174671 0.400492 0.000000
0.174687 0.425265 0.000000
0.174582 0.450535 0.000000
0.174686 0.475233 0.000000
0.174499 0.500578 0.000000
0.174704 0.525177 0.000000
0.174474 0.550406 0.000000
0.183995 0.575253 0.000000
0.183999 0.600000 0.000000
0.200000 -0.075000 0.000000
0.200000 -0.050000 0.000000
0.200000 -0.025000 0.000000
0.200000 0.000000 0.000000
0.199776 0.024972 0.000000
0.199816 0.050012 0.000000
0.199793 0.075032 0.000000
0.199812 0.100059 0.000000
0.199786 0.125057 0.000000
0.199811 0.150135 0.000000
0.199772 0.175078 0.000000
0.199795 0.200195 0.000000
0.199760 0.225118 0.000000
0.199771 0.250273 0.000000
0.199746 0.275137 0.000000
0.199730 0.300369 0.000000
0.199733 0.325150 0.000000
0.199679 0.350438 0.000000
0.199695 0.375198 0.000000
0.199634 0.400454 0.000000
0.199644 0.425228 0.000000
0.199559 0.450502 0.000000
0.199615 0.475211 0.000000
0.199512 0.500534 0.000000
0.199669 0.525161 0.000000
0.199487 0.550442 0.000000
0.208997 0.575264 0.000000
0.208999 0.600000 0.000000
0.225000 -0.075000 0.000000
0.225000 -0.050000 0.000000
0.225000 -0.025000 0.000000
0.225000 0.000000 0.000000
0.224765 0.024966 0.000000
0.224795 0.050007 0.000000
0.224778 0.075030 0.000000
0.224790 0.100054 0.000000
0.224769 0.125061 0.000000
0.224780 0.150117 0.000000
0.224751 0.175084 0.000000
0.224773 0.200202 0.000000
0.224735 0.225084 0.000000
0.224741 0.250288 0.000000
0.224728 0.275098 0.000000
0.224713 0.300352 0.000000
0.224691 0.325147 0.000000
0.224696 0.350386 0.000000
0.224653 0.375191 0.000000
[...]
<PointData>
<DataArray NumberOfComponents='1' type='Int32' Name='ParticleType' format='ascii'>
3
3
3
3
3
3
3
3
3
3
3
3
3
3
3
3
3
3
3
3
3
3
3
3
3
3
3
3
3
3
3
3
3
3
3
3
3
3
3
3
3
3
3
3
3
3
3
3
3
3
3
3
3
3
3
3
3
3
2
2
2
2
2
2
2
2
2
2
2
2
2
2
2
2
2
2
2
2
2
2
2
2
2
2
3
3
2
2
2
2
2
2
2
2
2
2
2
2
2
2
2
2
2
2
2
2
2
2
2
2
2
2
3
3
2
2
0
0
0
0
0
0
0
0
0
0
0
0
0
0
0
0
0
0
0
0
0
0
0
0
3
3
2
2
0
0
0
0
0
0
0
0
0
0
0
0
0
0
0
0
0
0
0
0
0
0
0
0
3
3
2
2
0
0
0
0
0
0
0
0
0
0
0
0
0
0
0
0
0
0
0
0
0
0
0
0
3
3
2
2
0
0
0
0
0
0
0
0
0
0
0
0
0
0
0
0
0
0
0
0
0
0
0
0
3
3
2
2
0
0
0
0
0
0
0
0
0
0
0
0
0
0
0
0
0
0
0
0
0
0
0
0
3
3
2
2
0
0
0
0
0
0
0
0
0
0
0
0
0
0
0
0
0
0
0
0
0
0
0
0
3
3
2
2
0
0
0
0
0
0
0
0
0
0
0
0
0
0
0
0
0
0
0
0
0
0
0
0
3
3
2
2
0
0
0
0
0
0
0
0
0
0
0
0
0
0
0
0
0
0
0
0
0
0
0
0
3
3
2
2
0
0
0
0
0
0
0
0
0
0
0
0
0
0
0
0
0
0
0
0
0
0
0
0
3
3
2
2
0
0
0
0
0
0
0
0
0
0
0
0
0
0
0
0
0
0
0
0
0
0
0
0
3
3
2
2
0
0
0
0
0
0
0
0
0
0
0
0
0
0
0
0
0
0
0
0
0
0
0
0
3
3
2
2
0
0
0
0
0
0
0
0
0
0
0
0
0
0
0
0
0
0
0
0
0
0
0
0
3
3
2
2
0
0
0
0
0
0
0
0
0
0
0
0
0
0
0
0
0
0
0
0
0
0
0
0
3
3
2
2
0
0
0
0
0
0
0
0
0
0
0
0
0
0
0
0
0
0
0
0
0
0
0
0
3
3
2
2
0
0
0
0
0
0
0
0
0
0
0
0
0
0
0
0
0
0
0
0
0
0
0
0
3
3
2
2
0
0
0
0
0
0
0
0
0
0
0
0
0
0
0
0
0
0
0
0
0
0
0
0
3
3
2
2
0
0
0
0
0
0
0
0
0
0
0
0
0
0
0
0
0
0
0
0
0
0
0
0
3
3
2
2
0
0
0
0
0
0
0
0
0
0
0
0
0
0
0
0
0
0
0
0
0
0
0
0
3
3
2
2
0
0
0
0
0
0
0
0
0
0
0
0
0
0
0
0
0
0
0
0
0
0
0
0
3
3
2
2
0
0
0
0
0
0
0
0
0
0
0
0
0
0
0
0
0
0
0
0
0
0
0
0
3
3
2
2
0
0
0
0
0
0
0
0
0
0
0
0
0
0
0
0
0
0
0
0
0
0
0
0
3
3
2
2
0
0
0
0
0
0
0
0
0
0
0
0
0
0
0
0
0
0
0
0
0
0
0
0
3
3
2
2
0
0
0
0
0
0
0
0
0
0
0
0
0
0
0
0
0
0
0
0
0
0
0
0
3
3
2
2
0
0
0
0
0
0
0
0
0
0
0
0
0
0
0
0
0
0
0
0
0
0
0
0
3
3
2
2
0
0
0
0
0
0
0
0
0
0
0
0
0
0
0
0
0
0
0
0
0
0
0
0
3
3
2
2
0
0
0
0
0
0
0
0
0
0
0
0
0
0
0
0
0
0
0
0
0
0
0
0
3
3
2
2
0
0
0
0
0
0
0
0
0
0
0
0
0
0
0
0
0
0
0
0
0
0
0
0
3
3
2
2
0
0
0
0
0
0
0
0
0
0
0
0
0
0
0
0
0
0
0
0
0
0
0
0
3
3
2
2
0
0
0
0
0
0
0
0
0
0
0
0
0
0
0
0
0
0
0
0
0
0
0
0
3
3
2
2
0
0
0
0
0
0
0
0
0
0
0
0
0
0
0
0
0
0
0
0
0
0
0
0
3
3
2
2
0
0
0
0
0
0
0
0
0
0
0
0
0
0
0
0
0
0
0
0
0
0
0
0
3
3
2
2
0
0
0
0
0
0
0
0
0
0
0
0
0
0
0
0
0
0
0
0
0
0
0
0
3
3
2
2
0
0
0
0
0
0
0
0
0
0
0
0
0
0
0
0
0
0
0
0
0
0
0
0
3
3
2
2
0
0
0
0
0
0
0
0
0
0
0
0
0
0
0
0
0
0
0
0
0
0
0
0
3
3
2
2
0
0
0
0
0
0
0
0
0
0
0
0
0
0
0
0
0
0
0
0
0
0
0
0
3
3
2
2
0
0
0
0
0
0
0
0
0
0
0
0
0
0
0
0
0
0
0
0
0
0
0
0
3
3
2
2
0
0
0
0
0
0
0
0
0
0
0
0
0
0
0
0
0
0
0
0
0
0
0
0
3
3
2
2
0
0
0
0
0
0
0
0
0
0
0
0
0
0
0
0
0
0
0
0
0
0
0
0
3
3
2
2
0
0
0
0
0
0
0
0
0
0
0
0
0
0
0
0
0
0
0
0
0
0
0
0
3
3
2
2
0
0
0
0
0
0
0
0
0
0
0
0
0
0
0
0
0
0
0
0
0
0
0
0
3
3
2
2
2
2
2
2
2
2
2
2
2
2
2
2
2
2
2
2
2
2
2
2
2
2
2
2
3
3
2
2
2
2
2
2
2
2
2
2
2
2
2
2
2
2
2
2
2
2
2
2
2
2
2
2
3
3
3
3
3
3
3
3
3
3
3
3
3
3
3
3
3
3
3
3
3
3
3
3
3
3
3
3
3
3
3
3
3
3
3
3
3
3
3
3
3
3
3
3
3
3
3
3
3
3
3
3
3
3
3
3
</DataArray>
<DataArray NumberOfComponents='1' type='Float32' Name='Velocity' format='ascii'>
0.000000
0.000000
0.000000
0.000000
0.000000
0.000000
0.000000
0.000000
0.000000
0.000000
0.000000
0.000000
0.000000
0.000000
0.000000
0.000000
0.000000
0.000000
0.000000
0.000000
0.000000
0.000000
0.000000
0.000000
0.000000
0.000000
0.000000
0.000000
0.000000
0.000000
0.000000
0.000000
0.000000
0.000000
0.000000
0.000000
0.000000
0.000000
0.000000
0.000000
0.000000
0.000000
0.000000
0.000000
0.000000
0.000000
0.000000
0.000000
0.000000
0.000000
0.000000
0.000000
0.000000
0.000000
0.000000
0.000000
0.000000
0.000000
0.000000
0.000000
0.000000
0.000000
0.000000
0.000000
0.000000
0.000000
0.000000
0.000000
0.000000
0.000000
0.000000
0.000000
0.000000
0.000000
0.000000
0.000000
0.000000
0.000000
0.000000
0.000000
0.000000
0.000000
0.000000
0.000000
0.000000
0.000000
0.000000
0.000000
0.000000
0.000000
0.000000
0.000000
0.000000
0.000000
0.000000
0.000000
0.000000
0.000000
0.000000
0.000000
0.000000
0.000000
0.000000
0.000000
0.000000
0.000000
0.000000
0.000000
0.000000
0.000000
0.000000
0.000000
0.000000
0.000000
0.000000
0.000000
0.003017
0.003166
0.001455
0.004171
0.000936
0.008938
0.004121
0.012990
0.005215
0.015579
0.005988
0.016857
0.008346
0.021565
0.012637
0.029383
0.023381
0.041694
0.037420
0.057566
0.079363
0.145785
0.100000
0.100000
0.000000
0.000000
0.000000
0.000000
0.003000
0.004787
0.003847
0.009981
0.005078
0.012302
0.004076
0.012978
0.000842
0.011052
0.006237
0.009754
0.010302
0.013274
0.011826
0.020197
0.012072
0.031900
0.013072
0.058169
0.014559
0.124723
0.100000
0.100000
0.000000
0.000000
0.000000
0.000000
0.003556
0.006756
0.005650
0.010922
0.005459
0.010803
0.002042
0.008709
0.004215
0.007080
0.008425
0.007666
0.008968
0.015501
0.006392
0.023227
0.007695
0.034862
0.001347
0.050879
0.013498
0.044162
0.100000
0.100000
0.000000
0.000000
0.000000
0.000000
0.005236
0.007474
0.008026
0.010799
0.006042
0.008936
0.004457
0.009439
0.003138
0.010918
0.004797
0.014073
0.005996
0.019360
0.005538
0.026259
0.005728
0.033848
0.014432
0.031742
0.024859
0.042754
0.100000
0.100000
0.000000
0.000000
0.000000
0.000000
0.005751
0.007843
0.007523
0.010447
0.007071
0.011482
0.004983
0.013300
0.002907
0.014088
0.002711
0.013682
0.005982
0.016370
0.007467
0.017655
0.013221
0.017649
0.015644
0.030982
0.011501
0.035576
0.100000
0.100000
0.000000
0.000000
0.000000
0.000000
0.005752
0.007741
0.008127
0.011703
0.007280
0.012953
0.005977
0.013379
0.005366
0.011525
0.006804
0.010996
0.009176
0.011448
0.012389
0.014670
0.012842
0.023143
0.010114
0.038615
0.012679
0.025987
0.100000
0.100000
0.000000
0.000000
0.000000
0.000000
0.005786
0.008198
0.008449
0.012034
0.009039
0.012473
0.006596
0.010649
0.006250
0.011555
0.005849
0.012552
0.006710
0.014749
0.007178
0.017963
0.007811
0.025609
0.008619
0.025286
0.014251
0.022776
0.100000
0.100000
0.000000
0.000000
0.000000
0.000000
0.006164
0.008416
0.009239
0.012188
0.008616
0.011166
0.008193
0.011974
0.007369
0.014778
0.005235
0.015204
0.006261
0.013496
0.010120
0.016573
0.009735
0.020331
0.013823
0.022601
0.011022
0.019600
0.100000
0.100000
0.000000
0.000000
0.000000
0.000000
0.006682
0.008804
0.008914
0.011393
0.008934
0.011338
0.006953
0.013321
0.007759
0.014944
0.008299
0.011392
0.009924
0.011711
0.008511
0.015685
0.010098
0.017247
0.010379
0.021242
0.012108
0.016711
0.100000
0.100000
0.000000
0.000000
0.000000
0.000000
0.006823
0.008817
0.009429
0.011784
0.008892
0.012536
0.008450
0.013021
0.007633
0.011800
0.008315
0.012879
0.007707
0.014614
0.009040
0.014629
0.009986
0.019295
0.009863
0.017530
0.011707
0.017034
0.100000
0.100000
0.000000
0.000000
0.000000
0.000000
0.007221
0.008824
0.009337
0.011855
0.009839
0.011927
0.008327
0.011288
0.009328
0.014029
0.007476
0.014682
0.007304
0.011935
0.009076
0.014478
0.008665
0.017221
0.008972
0.013594
0.011578
0.015899
0.100000
0.100000
0.000000
0.000000
0.000000
0.000000
0.007510
0.009211
0.009923
0.012173
0.009478
0.011419
0.008742
0.012326
0.008397
0.014771
0.009291
0.012059
0.008724
0.012937
0.008522
0.014739
0.008939
0.015839
0.009954
0.013307
0.011330
0.015000
0.100000
0.100000
0.000000
0.000000
0.000000
0.000000
0.007742
0.009371
0.009876
0.011762
0.010021
0.011656
0.008846
0.013038
0.009255
0.012654
0.008745
0.013369
0.008102
0.012717
0.008188
0.014453
0.008533
0.014418
0.007806
0.011178
0.012813
0.015791
0.100000
0.100000
0.000000
0.000000
0.000000
0.000000
0.008083
0.009502
0.010258
0.012024
0.010186
0.012163
0.009152
0.011736
0.009670
0.013785
0.009005
0.013453
0.008179
0.012662
0.008317
0.013379
0.008248
0.014637
0.009699
0.010462
0.011258
0.014460
0.100000
0.100000
0.000000
0.000000
0.000000
0.000000
0.008246
0.009549
0.010363
0.012171
0.010359
0.011598
0.009627
0.012133
0.009537
0.013979
0.009741
0.012683
0.008148
0.012889
0.008347
0.014160
0.007637
0.011855
0.009869
0.011557
0.013180
0.014553
0.100000
0.100000
0.000000
0.000000
0.000000
0.000000
0.008524
0.009889
0.010618
0.012181
0.010789
0.011732
0.009465
0.012458
0.010161
0.013181
0.009480
0.013350
0.008446
0.012350
0.007826
0.013489
0.008346
0.012124
0.010275
0.010222
0.012092
0.014399
0.100000
0.100000
0.000000
0.000000
0.000000
0.000000
0.008606
0.009834
0.010820
0.012133
0.010676
0.011832
0.010040
0.012061
0.010261
0.013655
0.010005
0.013113
0.008501
0.013006
0.008120
0.012867
0.007748
0.011467
0.013127
0.012166
0.012345
0.013912
0.100000
0.100000
0.000000
0.000000
0.000000
0.000000
0.008864
0.010058
0.010888
0.012269
0.011157
0.011746
0.010043
0.012062
0.010456
0.013564
0.010157
0.012963
0.008371
0.012534
0.008037
0.012896
0.008293
0.010246
0.012174
0.011547
0.012594
0.013950
0.100000
0.100000
0.000000
0.000000
0.000000
0.000000
0.008867
0.010047
0.011196
0.012304
0.011160
0.011702
0.010277
0.012206
0.010837
0.013485
0.010375
0.013361
0.008867
0.012878
0.008098
0.012571
0.009809
0.011794
0.014880
0.012589
0.011336
0.014189
0.100000
0.100000
0.000000
0.000000
0.000000
0.000000
0.009065
0.010203
0.011201
0.012194
0.011332
0.011673
0.010429
0.012006
0.010910
0.013395
0.010518
0.012958
0.008537
0.012432
0.007777
0.011577
0.009498
0.011302
0.014393
0.012732
0.011820
0.013782
0.100000
0.100000
0.000000
0.000000
0.000000
0.000000
0.009010
0.010206
0.011403
0.012377
0.011554
0.011622
0.010624
0.012086
0.011145
0.013625
0.010922
0.013394
0.009022
0.013072
0.008755
0.012462
0.012206
0.012728
0.015429
0.013237
0.010597
0.015335
0.100000
0.100000
0.000000
0.000000
0.000000
0.000000
0.009109
0.010241
0.011548
0.012196
0.011522
0.011584
0.010722
0.011818
0.011394
0.013265
0.010675
0.012839
0.008732
0.012064
0.007799
0.011232
0.012188
0.013647
0.015226
0.013782
0.010226
0.014240
0.100000
0.100000
0.000000
0.000000
0.000000
0.000000
0.009015
0.010331
0.011554
0.012256
0.011797
0.011415
0.010677
0.012130
0.011665
0.013481
0.011318
0.013670
0.009040
0.012955
0.009654
0.012799
0.014460
0.014431
0.015050
0.013507
0.009742
0.016891
0.100000
0.100000
0.000000
0.000000
0.000000
0.000000
0.009010
0.010248
0.011754
0.012251
0.011791
0.011317
0.011128
0.011555
0.011238
0.013184
0.011321
0.012205
0.008818
0.011852
0.008697
0.012621
0.014783
0.015933
0.015090
0.015943
0.008678
0.016003
0.100000
0.100000
0.000000
0.000000
0.000000
0.000000
0.008860
0.010364
0.011755
0.012018
0.011660
0.011352
0.011011
0.011795
0.012393
0.013434
0.010537
0.013672
0.009468
0.012599
0.011328
0.014048
0.016129
0.016161
0.013167
0.012908
0.008709
0.017601
0.100000
0.100000
0.000000
0.000000
0.000000
0.000000
0.008718
0.010228
0.011944
0.012180
0.012091
0.010694
0.010490
0.011456
0.012046
0.012180
0.012416
0.011957
0.007536
0.012302
0.010596
0.015385
0.016519
0.017731
0.015202
0.019636
0.009185
0.019790
0.100000
0.100000
0.000000
0.000000
0.000000
0.000000
0.008501
0.010343
0.011753
0.011772
0.011806
0.011122
0.011583
0.011271
0.010736
0.013714
0.011174
0.011523
0.011788
0.012607
0.013499
0.016891
0.016213
0.017479
0.010078
0.011639
0.008233
0.016540
0.100000
0.100000
0.000000
0.000000
0.000000
0.000000
0.008333
0.010147
0.011952
0.011728
0.011557
0.009896
0.011129
0.010495
0.013756
0.010686
0.009036
0.012893
0.007331
0.011337
0.014168
0.017536
0.018296
0.019155
0.016678
0.023766
0.014557
0.025053
0.100000
0.100000
0.000000
0.000000
0.000000
0.000000
0.008004
0.010225
0.012005
0.011416
0.011479
0.010204
0.009750
0.010394
0.011876
0.011300
0.014676
0.010300
0.010693
0.019198
0.015565
0.018469
0.015622
0.016903
0.009596
0.011321
0.008760
0.014677
0.100000
0.100000
0.000000
0.000000
0.000000
0.000000
0.007518
0.009854
0.011604
0.010811
0.011870
0.008755
0.011175
0.009219
0.009888
0.010729
0.009369
0.006004
0.016064
0.010876
0.017433
0.025055
0.018185
0.021531
0.019234
0.023774
0.022541
0.029452
0.100000
0.100000
0.000000
0.000000
0.000000
0.000000
0.007362
0.009750
0.011443
0.010264
0.010333
0.008159
0.011000
0.007958
0.013540
0.008146
0.008414
0.017847
0.012743
0.017440
0.021189
0.013508
0.019100
0.017201
0.015553
0.016846
0.009567
0.014457
0.100000
0.100000
0.000000
0.000000
0.000000
0.000000
0.006982
0.009172
0.011155
0.008921
0.010262
0.006465
0.009106
0.005674
0.012178
0.003400
0.015772
0.007658
0.011726
0.030794
0.017344
0.029082
0.022231
0.017027
0.027476
0.019159
0.029659
0.032837
0.100000
0.100000
0.000000
0.000000
0.000000
0.000000
0.006241
0.008886
0.010422
0.008402
0.009184
0.005983
0.008495
0.007126
0.008340
0.008683
0.012277
0.010580
0.022939
0.011502
0.024015
0.026020
0.011119
0.027244
0.019465
0.020009
0.022942
0.019876
0.100000
0.100000
0.000000
0.000000
0.000000
0.000000
0.005559
0.007418
0.009677
0.006038
0.009337
0.003288
0.009658
0.003737
0.009867
0.010365
0.006594
0.024523
0.011178
0.028201
0.019783
0.007107
0.039181
0.016416
0.032100
0.026865
0.038929
0.039476
0.100000
0.100000
0.000000
0.000000
0.000000
0.000000
0.005146
0.006539
0.008362
0.004695
0.007612
0.002416
0.008914
0.002142
0.010962
0.004899
0.010498
0.014557
0.009519
0.025322
0.007542
0.038478
0.007260
0.013539
0.040158
0.015729
0.045812
0.028829
0.100000
0.100000
0.000000
0.000000
0.000000
0.000000
0.004319
0.005437
0.007079
0.003297
0.006362
0.003491
0.006925
0.005288
0.009754
0.008240
0.013306
0.014174
0.013354
0.016662
0.017633
0.014153
0.012719
0.049652
0.013463
0.046777
0.055121
0.047186
0.100000
0.100000
0.000000
0.000000
0.000000
0.000000
0.003275
0.004762
0.006028
0.002807
0.005372
0.003387
0.004999
0.005980
0.003402
0.009980
0.006358
0.008085
0.012485
0.003520
0.015297
0.013417
0.030752
0.004340
0.046315
0.034265
0.047480
0.066112
0.100000
0.100000
0.000000
0.000000
0.000000
0.000000
0.002668
0.001963
0.005338
0.000189
0.006308
0.001238
0.008629
0.004211
0.008723
0.012863
0.007684
0.021730
0.013138
0.019459
0.026500
0.016041
0.015285
0.040617
0.038388
0.029548
0.132445
0.074834
0.100000
0.100000
0.000000
0.000000
0.000000
0.000000
0.002112
0.002719
0.004029
0.000983
0.005737
0.000703
0.009323
0.003126
0.011303
0.003195
0.008664
0.010466
0.012357
0.018827
0.013408
0.026586
0.024468
0.027575
0.031645
0.092261
0.034517
0.130777
0.100000
0.100000
0.000000
0.000000
0.000000
0.000000
0.000700
0.001566
0.002643
0.003204
0.005568
0.003321
0.010805
0.003376
0.018136
0.004345
0.026176
0.005338
0.032692
0.008073
0.037886
0.009583
0.031969
0.025446
0.049617
0.042845
0.053376
0.153255
0.100000
0.100000
0.000000
0.000000
0.000000
0.000000
0.000000
0.000000
0.000000
0.000000
0.000000
0.000000
0.000000
0.000000
0.000000
0.000000
0.000000
0.000000
0.000000
0.000000
0.000000
0.000000
0.000000
0.000000
0.000000
0.000000
0.000000
0.000000
0.000000
0.000000
0.000000
0.000000
0.000000
0.000000
0.000000
0.000000
0.000000
0.000000
0.000000
0.000000
0.000000
0.000000
0.000000
0.000000
0.000000
0.000000
0.000000
0.000000
0.000000
0.000000
0.000000
0.000000
0.000000
0.000000
0.000000
0.000000
0.000000
0.000000
0.000000
0.000000
0.000000
0.000000
0.000000
0.000000
0.000000
0.000000
0.000000
0.000000
0.000000
0.000000
0.000000
0.000000
0.000000
0.000000
0.000000
0.000000
0.000000
0.000000
0.000000
0.000000
0.000000
0.000000
0.000000
0.000000
0.000000
0.000000
0.000000
0.000000
0.000000
0.000000
0.000000
0.000000
0.000000
0.000000
0.000000
0.000000
0.000000
0.000000
0.000000
0.000000
0.000000
0.000000
0.000000
0.000000
0.000000
0.000000
0.000000
0.000000
0.000000
0.000000
0.000000
0.000000
0.000000
0.000000
</DataArray>
<DataArray NumberOfComponents='1' type='Float32' Name='pressure' format='ascii'>
0.000000
0.000000
0.000000
0.000000
0.000000
0.000000
0.000000
0.000000
0.000000
0.000000
0.000000
0.000000
0.000000
0.000000
0.000000
0.000000
0.000000
0.000000
0.000000
0.000000
0.000000
0.000000
0.000000
0.000000
0.000000
0.000000
0.000000
0.000000
0.000000
0.000000
0.000000
0.000000
0.000000
0.000000
0.000000
0.000000
0.000000
0.000000
0.000000
0.000000
0.000000
0.000000
0.000000
0.000000
0.000000
0.000000
0.000000
0.000000
0.000000
0.000000
0.000000
0.000000
0.000000
0.000000
0.000000
0.000000
0.000000
0.000000
5652.372559
5606.322266
5524.340332
5275.504883
5083.195312
4803.515625
4600.327148
4320.864746
4108.025879
3837.321777
3611.762939
3362.057861
3118.652832
2886.354736
2635.430664
2408.158203
2169.352783
1941.565552
1690.130615
1475.643555
1242.342651
982.230896
714.197083
797.937439
0.000000
0.000000
0.000000
0.000000
5681.757812
5705.596191
5610.736816
5281.516113
5102.913086
4793.732910
4604.750488
4322.805664
4099.301758
3847.399414
3594.416016
3375.045166
3101.754883
2894.735840
2618.811523
2409.676758
2163.527344
1924.542358
1694.696411
1445.684204
1230.366211
959.360168
917.385376
540.733032
0.000000
0.000000
0.000000
0.000000
5735.374512
5766.516602
5619.913086
5261.732910
5094.801758
4804.789551
4573.350586
4335.831543
4065.908936
3859.635986
3572.241211
3365.444092
3093.431641
2857.587891
2615.727783
2358.193848
2116.594482
1855.392578
1634.414429
1336.963623
1126.583008
768.778625
752.014099
0.000000
0.000000
0.000000
0.000000
0.000000
5727.975098
5744.171387
5603.758789
5287.902832
5073.779297
4838.123535
4551.919922
4365.764648
4062.405273
3863.857422
3592.334473
3348.034912
3140.800537
2834.260254
2667.339111
2366.219727
2175.437988
1900.785156
1691.377808
1442.296875
1170.395996
1055.729370
584.715759
578.808289
465.082794
0.000000
0.000000
0.000000
5737.116211
5746.581543
5596.267578
5294.976562
5046.999512
4852.423340
4538.625000
4353.988281
4070.081299
3841.985596
3606.397705
3324.884766
3144.217529
2817.774902
2646.440186
2361.496094
2115.195557
1897.720947
1611.840332
1443.117554
1066.619385
1028.497803
654.276917
286.286377
462.906769
0.000000
0.000000
0.000000
5738.139160
5748.553223
5595.785645
5297.148438
5059.690918
4838.130371
4561.746582
4340.475586
4082.739258
3843.899170
3595.063721
3349.949219
3119.412842
2857.234863
2629.524902
2397.097900
2132.452881
1933.297729
1645.572266
1470.194458
1185.613892
967.347046
761.412048
442.237671
469.006714
0.000000
0.000000
0.000000
5738.688477
5751.890625
5592.234863
5291.037109
5056.883301
4835.346191
4551.126465
4350.957520
4053.706055
3871.754395
3564.290771
3371.051514
3097.466797
2856.574219
2621.348877
2371.144531
2124.004639
1888.662964
1649.581665
1403.220703
1181.236694
998.150269
636.284546
486.117310
405.759338
0.000000
0.000000
0.000000
5740.283691
5752.946777
5594.787109
5290.998535
5059.676270
4840.662598
4538.652832
4371.154297
4039.682861
3877.064697
3564.291992
3365.693848
3101.718750
2857.154053
2635.226562
2363.822510
2163.000488
1886.996094
1678.738525
1438.158325
1140.193115
1081.295654
671.721069
489.281036
391.849548
0.000000
0.000000
0.000000
5739.074219
5750.667969
5592.845703
5288.029785
5050.798340
4843.835449
4532.332031
4360.649902
4048.574219
3859.884033
3568.739014
3369.201172
3082.351318
2867.854980
2612.599854
2363.239258
2128.844238
1885.655640
1627.463135
1470.565918
1100.698120
1027.223633
700.606384
482.662018
360.167511
0.000000
0.000000
0.000000
5733.900391
5745.059570
5591.909180
5287.948242
5052.736328
4839.647461
4539.591797
4351.583984
4056.910889
3858.127197
3553.032227
3386.693848
3058.894775
2886.012207
2596.642334
2380.575195
2124.743164
1915.443359
1617.117798
1462.576904
1146.580566
1010.813843
672.744141
465.555725
326.222961
0.000000
0.000000
0.000000
5733.868652
5743.827637
5589.274414
5284.279785
5049.769043
4831.807617
4541.255371
4346.453125
4041.383301
3872.312744
3540.014648
3384.783691
3065.217041
2864.835693
2603.176270
2366.741211
2101.801270
1899.192505
1616.210449
1427.221558
1107.074219
998.529480
683.225708
421.418427
292.807861
0.000000
0.000000
0.000000
5732.558105
5744.250977
5585.659180
5283.063965
5051.633789
4830.421387
4534.926758
4353.534180
4036.762695
3865.989990
3543.427490
3371.166992
3065.121826
2868.669189
2586.845215
2378.598389
2105.467529
1896.183350
1607.085205
1454.068359
1101.474243
965.771973
678.793945
407.667389
257.562469
0.000000
0.000000
0.000000
5729.902344
5741.707520
5584.331543
5278.555664
5046.659180
4827.793457
4531.202148
4347.415039
4040.020508
3850.483398
3551.153809
3373.800781
3041.384277
2883.890869
2573.798340
2363.152588
2092.184814
1889.655884
1585.207520
1433.012329
1088.653809
920.033997
668.072144
374.336456
218.930481
0.000000
0.000000
0.000000
5727.923340
5738.795410
5581.335938
5277.634766
5045.057129
4827.876953
4530.783691
4337.738281
4042.605225
3853.272217
3529.731445
3377.039795
3047.857666
2860.611816
2575.964355
2369.433594
2084.410889