<?xml version='1.0' encoding='UTF-8'?>
<VTKFile xmlns='VTK' byte_order='LittleEndian' version='0.1' type='UnstructuredGrid'>
<UnstructuredGrid>
<Piece NumberOfCells='1344' NumberOfPoints='1344'>
<Points>
<DataArray NumberOfComponents='3' type='Float32' Name='Position' format='ascii'>
-0.075000 -0.075000 0.000000
-0.075000 -0.050000 0.000000
-0.075000 -0.025000 0.000000
-0.075000 0.000000 0.000000
-0.075000 0.025000 0.000000
-0.075000 0.050000 0.000000
-0.075000 0.075000 0.000000
-0.075000 0.100000 0.000000
-0.075000 0.125000 0.000000
-0.075000 0.150000 0.000000
-0.075000 0.175000 0.000000
-0.075000 0.200000 0.000000
-0.075000 0.225000 0.000000
-0.075000 0.250000 0.000000
-0.075000 0.275000 0.000000
-0.075000 0.300000 0.000000
-0.075000 0.325000 0.000000
-0.075000 0.350000 0.000000
-0.075000 0.375000 0.000000
-0.075000 0.400000 0.000000
-0.075000 0.425000 0.000000
-0.075000 0.450000 0.000000
-0.075000 0.475000 0.000000
-0.075000 0.500000 0.000000
-0.075000 0.525000 0.000000
-0.075000 0.550000 0.000000
-0.075000 0.575000 0.000000
-0.075000 0.600000 0.000000
-0.050000 -0.075000 0.000000
-0.050000 -0.050000 0.000000
-0.050000 -0.025000 0.000000
-0.050000 0.000000 0.000000
-0.050000 0.025000 0.000000
-0.050000 0.050000 0.000000
-0.050000 0.075000 0.000000
-0.050000 0.100000 0.000000
-0.050000 0.125000 0.000000
-0.050000 0.150000 0.000000
-0.050000 0.175000 0.000000
-0.050000 0.200000 0.000000
-0.050000 0.225000 0.000000
-0.050000 0.250000 0.000000
-0.050000 0.275000 0.000000
-0.050000 0.300000 0.000000
-0.050000 0.325000 0.000000
-0.050000 0.350000 0.000000
-0.050000 0.375000 0.000000
-0.050000 0.400000 0.000000
-0.050000 0.425000 0.000000
-0.050000 0.450000 0.000000
-0.050000 0.475000 0.000000
-0.050000 0.500000 0.000000
-0.050000 0.525000 0.000000
-0.050000 0.550000 0.000000
-0.050000 0.575000 0.000000
-0.050000 0.600000 0.000000
-0.025000 -0.075000 0.000000
-0.025000 -0.050000 0.000000
-0.025000 -0.025000 0.000000
-0.025000 0.000000 0.000000
-0.025000 0.025000 0.000000
-0.025000 0.050000 0.000000
-0.025000 0.075000 0.000000
-0.025000 0.100000 0.000000
-0.025000 0.125000 0.000000
-0.025000 0.150000 0.000000
-0.025000 0.175000 0.000000
-0.025000 0.200000 0.000000
-0.025000 0.225000 0.000000
-0.025000 0.250000 0.000000
-0.025000 0.275000 0.000000
-0.025000 0.300000 0.000000
-0.025000 0.325000 0.000000
-0.025000 0.350000 0.000000
-0.025000 0.375000 0.000000
-0.025000 0.400000 0.000000
-0.025000 0.425000 0.000000
-0.025000 0.450000 0.000000
-0.025000 0.475000 0.000000
-0.025000 0.500000 0.000000
-0.025000 0.525000 0.000000
-0.025000 0.550000 0.000000
-0.025000 0.575000 0.000000
-0.025000 0.600000 0.000000
0.000000 -0.075000 0.000000
0.000000 -0.050000 0.000000
0.000000 -0.025000 0.000000
0.000000 0.000000 0.000000
0.000000 0.025000 0.000000
0.000000 0.050000 0.000000
0.000000 0.075000 0.000000
0.000000 0.100000 0.000000
0.000000 0.125000 0.000000
0.000000 0.150000 0.000000
0.000000 0.175000 0.000000
0.000000 0.200000 0.000000
0.000000 0.225000 0.000000
0.000000 0.250000 0.000000
0.000000 0.275000 0.000000
0.000000 0.300000 0.000000
0.000000 0.325000 0.000000
0.000000 0.350000 0.000000
0.000000 0.375000 0.000000
0.000000 0.400000 0.000000
0.000000 0.425000 0.000000
0.000000 0.450000 0.000000
0.000000 0.475000 0.000000
0.000000 0.500000 0.000000
0.000000 0.525000 0.000000
0.000000 0.550000 0.000000
0.000000 0.575000 0.000000
0.000000 0.600000 0.000000
0.025000 -0.075000 0.000000
0.025000 -0.050000 0.000000
0.025000 -0.025000 0.000000
0.025000 0.000000 0.000000
0.024028 0.025864 0.000000
0.041481 0.048736 0.000000
0.023012 0.059404 0.000000
0.022318 0.116415 0.000000
0.025104 0.148593 0.000000
0.025150 0.174919 0.000000
0.024800 0.201487 0.000000
0.025832 0.224917 0.000000
0.024477 0.248533 0.000000
0.025575 0.273052 0.000000
0.025839 0.296885 0.000000
0.024011 0.320617 0.000000
0.024684 0.345826 0.000000
0.025382 0.371009 0.000000
0.024380 0.397024 0.000000
0.025035 0.425676 0.000000
0.023714 0.455411 0.000000
0.022692 0.490433 0.000000
0.023832 0.516836 0.000000
0.022837 0.551279 0.000000
0.023749 0.578564 0.000000
0.030002 0.600000 0.000000
0.073800 0.593678 0.000000
0.090560 0.600000 0.000000
0.050000 -0.075000 0.000000
0.050000 -0.050000 0.000000
0.050000 -0.025000 0.000000
0.050000 0.000000 0.000000
0.047672 0.024146 0.000000
0.063999 0.054442 0.000000
0.047033 0.083513 0.000000
0.023752 0.087131 0.000000
0.044349 0.128118 0.000000
0.043797 0.157377 0.000000
0.048064 0.188720 0.000000
0.051850 0.214453 0.000000
0.052751 0.239437 0.000000
0.050525 0.265625 0.000000
0.052107 0.289688 0.000000
0.051673 0.315258 0.000000
0.050701 0.337837 0.000000
0.049293 0.362995 0.000000
0.047596 0.387747 0.000000
0.045322 0.414709 0.000000
0.044472 0.440962 0.000000
0.038492 0.471981 0.000000
0.049737 0.501102 0.000000
0.040322 0.530892 0.000000
0.047927 0.554246 0.000000
0.047623 0.600000 0.000000
0.101629 0.580949 0.000000
0.110361 0.600000 0.000000
0.075000 -0.075000 0.000000
0.075000 -0.050000 0.000000
0.075000 -0.025000 0.000000
0.075000 0.000000 0.000000
0.074306 0.025244 0.000000
0.084740 0.052222 0.000000
0.074280 0.077938 0.000000
0.048099 0.103163 0.000000
0.066512 0.123933 0.000000
0.067750 0.168473 0.000000
0.071256 0.196235 0.000000
0.076997 0.222491 0.000000
0.073111 0.250166 0.000000
0.075656 0.276001 0.000000
0.077357 0.301149 0.000000
0.076980 0.325786 0.000000
0.075599 0.349408 0.000000
0.075661 0.374148 0.000000
0.073667 0.396114 0.000000
0.071264 0.419167 0.000000
0.072291 0.442943 0.000000
0.063204 0.463503 0.000000
0.065568 0.486410 0.000000
0.069681 0.514435 0.000000
0.066795 0.537571 0.000000
0.049927 0.582874 0.000000
0.128717 0.584132 0.000000
0.133429 0.600000 0.000000
0.100000 -0.075000 0.000000
0.100000 -0.050000 0.000000
0.100000 -0.025000 0.000000
0.100000 0.000000 0.000000
0.096821 0.024564 0.000000
0.109650 0.057063 0.000000
0.096407 0.082219 0.000000
0.080982 0.104804 0.000000
0.091680 0.134231 0.000000
0.076364 0.150254 0.000000
0.096845 0.176981 0.000000
0.094955 0.200523 0.000000
0.101233 0.229237 0.000000
0.098498 0.251968 0.000000
0.101816 0.276314 0.000000
0.101145 0.300740 0.000000
0.103754 0.325568 0.000000
0.101595 0.351239 0.000000
0.101473 0.374370 0.000000
0.100643 0.402006 0.000000
0.096328 0.427203 0.000000
0.096612 0.454426 0.000000
0.090708 0.480502 0.000000
0.098179 0.502506 0.000000
0.092116 0.526376 0.000000
0.072358 0.566187 0.000000
0.155285 0.584183 0.000000
0.159569 0.600000 0.000000
0.125000 -0.075000 0.000000
0.125000 -0.050000 0.000000
0.125000 -0.025000 0.000000
0.125000 0.000000 0.000000
0.119406 0.031860 0.000000
0.131010 0.055378 0.000000
0.121909 0.086261 0.000000
0.103692 0.106731 0.000000
0.119794 0.131625 0.000000
0.107631 0.154402 0.000000
0.120586 0.177823 0.000000
0.119129 0.207121 0.000000
0.124388 0.236077 0.000000
0.124956 0.263858 0.000000
0.127547 0.288500 0.000000
0.127324 0.315703 0.000000
0.127232 0.340231 0.000000
0.125623 0.365939 0.000000
0.123122 0.392106 0.000000
0.120424 0.419905 0.000000
0.119051 0.444655 0.000000
0.115357 0.471635 0.000000
0.123678 0.490952 0.000000
0.117232 0.520062 0.000000
0.113386 0.545575 0.000000
0.092250 0.554177 0.000000
0.181127 0.582650 0.000000
0.182586 0.600000 0.000000
0.150000 -0.075000 0.000000
0.150000 -0.050000 0.000000
0.150000 -0.025000 0.000000
0.150000 0.000000 0.000000
0.140173 0.021416 0.000000
0.155494 0.053644 0.000000
0.144715 0.080340 0.000000
0.131179 0.111540 0.000000
0.151300 0.129738 0.000000
0.133462 0.153507 0.000000
0.148476 0.172368 0.000000
0.140031 0.198300 0.000000
0.147384 0.220190 0.000000
0.147761 0.244557 0.000000
0.150076 0.269718 0.000000
0.149937 0.294999 0.000000
0.151114 0.321308 0.000000
0.150620 0.348527 0.000000
0.149195 0.376633 0.000000
0.143667 0.406141 0.000000
0.146489 0.431152 0.000000
0.143247 0.456164 0.000000
0.151162 0.478268 0.000000
0.146800 0.500995 0.000000
0.141824 0.523856 0.000000
0.132769 0.554965 0.000000
0.206450 0.583920 0.000000
0.206208 0.600000 0.000000
0.175000 -0.075000 0.000000
0.175000 -0.050000 0.000000
0.175000 -0.025000 0.000000
0.175000 0.000000 0.000000
0.164124 0.032205 0.000000
0.181338 0.050651 0.000000
0.169562 0.078020 0.000000
0.154250 0.103574 0.000000
0.176781 0.128187 0.000000
0.162889 0.151211 0.000000
0.181206 0.176270 0.000000
0.166045 0.191053 0.000000
0.175176 0.219078 0.000000
0.171722 0.242427 0.000000
0.176986 0.268704 0.000000
0.175177 0.292506 0.000000
0.175875 0.317230 0.000000
0.174467 0.342299 0.000000
0.171003 0.367599 0.000000
0.166881 0.393889 0.000000
0.167988 0.426330 0.000000
0.169378 0.453240 0.000000
0.176686 0.476366 0.000000
0.173909 0.502959 0.000000
0.169777 0.526294 0.000000
0.152586 0.547063 0.000000
0.231688 0.584623 0.000000
0.232161 0.600000 0.000000
0.200000 -0.075000 0.000000
0.200000 -0.050000 0.000000
0.200000 -0.025000 0.000000
0.200000 0.000000 0.000000
0.186877 0.021959 0.000000
0.204606 0.051565 0.000000
0.193996 0.076350 0.000000
0.180285 0.103052 0.000000
0.203566 0.126483 0.000000
0.187650 0.151003 0.000000
0.207574 0.172403 0.000000
0.192629 0.203040 0.000000
0.200637 0.224443 0.000000
0.196727 0.251510 0.000000
0.200421 0.277299 0.000000
0.199248 0.306047 0.000000
0.200864 0.331332 0.000000
0.197944 0.357475 0.000000
0.195722 0.381308 0.000000
0.184962 0.408735 0.000000
0.196746 0.429741 0.000000
0.193961 0.453249 0.000000
0.199273 0.482780 0.000000
0.196234 0.511656 0.000000
0.191435 0.541093 0.000000
0.173741 0.555611 0.000000
0.256950 0.583932 0.000000
0.256664 0.600000 0.000000
0.225000 -0.075000 0.000000
0.225000 -0.050000 0.000000
0.225000 -0.025000 0.000000
0.225000 0.000000 0.000000
0.212189 0.027976 0.000000
0.232988 0.051083 0.000000
0.218677 0.074933 0.000000
0.203314 0.102113 0.000000
0.230782 0.123087 0.000000
0.214173 0.148562 0.000000
0.233841 0.172901 0.000000
0.217353 0.193214 0.000000
0.225296 0.217644 0.000000
0.221765 0.242323 0.000000
0.225163 0.266834 0.000000
0.222354 0.290408 0.000000
0.225297 0.316043 0.000000
0.221701 0.342973 0.000000
0.222588 0.368753 0.000000
[...]
<PointData>
<DataArray NumberOfComponents='1' type='Int32' Name='ParticleType' format='ascii'>
3
3
3
3
3
3
3
3
3
3
3
3
3
3
3
3
3
3
3
3
3
3
3
3
3
3
3
3
3
3
3
3
3
3
3
3
3
3
3
3
3
3
3
3
3
3
3
3
3
3
3
3
3
3
3
3
3
3
2
2
2
2
2
2
2
2
2
2
2
2
2
2
2
2
2
2
2
2
2
2
2
2
2
2
3
3
2
2
2
2
2
2
2
2
2
2
2
2
2
2
2
2
2
2
2
2
2
2
2
2
2
2
3
3
2
2
0
0
0
0
0
0
0
0
0
0
0
0
0
0
0
0
0
0
0
0
0
0
0
0
3
3
2
2
0
0
0
0
0
0
0
0
0
0
0
0
0
0
0
0
0
0
0
0
0
0
0
0
3
3
2
2
0
0
0
0
0
0
0
0
0
0
0
0
0
0
0
0
0
0
0
0
0
0
0
0
3
3
2
2
0
0
0
0
0
0
0
0
0
0
0
0
0
0
0
0
0
0
0
0
0
0
0
0
3
3
2
2
0
0
0
0
0
0
0
0
0
0
0
0
0
0
0
0
0
0
0
0
0
0
0
0
3
3
2
2
0
0
0
0
0
0
0
0
0
0
0
0
0
0
0
0
0
0
0
0
0
0
0
0
3
3
2
2
0
0
0
0
0
0
0
0
0
0
0
0
0
0
0
0
0
0
0
0
0
0
0
0
3
3
2
2
0
0
0
0
0
0
0
0
0
0
0
0
0
0
0
0
0
0
0
0
0
0
0
0
3
3
2
2
0
0
0
0
0
0
0
0
0
0
0
0
0
0
0
0
0
0
0
0
0
0
0
0
3
3
2
2
0
0
0
0
0
0
0
0
0
0
0
0
0
0
0
0
0
0
0
0
0
0
0
0
3
3
2
2
0
0
0
0
0
0
0
0
0
0
0
0
0
0
0
0
0
0
0
0
0
0
0
0
3
3
2
2
0
0
0
0
0
0
0
0
0
0
0
0
0
0
0
0
0
0
0
0
0
0
0
0
3
3
2
2
0
0
0
0
0
0
0
0
0
0
0
0
0
0
0
0
0
0
0
0
0
0
0
0
3
3
2
2
0
0
0
0
0
0
0
0
0
0
0
0
0
0
0
0
0
0
0
0
0
0
0
0
3
3
2
2
0
0
0
0
0
0
0
0
0
0
0
0
0
0
0
0
0
0
0
0
0
0
0
0
3
3
2
2
0
0
0
0
0
0
0
0
0
0
0
0
0
0
0
0
0
0
0
0
0
0
0
0
3
3
2
2
0
0
0
0
0
0
0
0
0
0
0
0
0
0
0
0
0
0
0
0
0
0
0
0
3
3
2
2
0
0
0
0
0
0
0
0
0
0
0
0
0
0
0
0
0
0
0
0
0
0
0
0
3
3
2
2
0
0
0
0
0
0
0
0
0
0
0
0
0
0
0
0
0
0
0
0
0
0
0
0
3
3
2
2
0
0
0
0
0
0
0
0
0
0
0
0
0
0
0
0
0
0
0
0
0
0
0
0
3
3
2
2
0
0
0
0
0
0
0
0
0
0
0
0
0
0
0
0
0
0
0
0
0
0
0
0
3
3
2
2
0
0
0
0
0
0
0
0
0
0
0
0
0
0
0
0
0
0
0
0
0
0
0
0
3
3
2
2
0
0
0
0
0
0
0
0
0
0
0
0
0
0
0
0
0
0
0
0
0
0
0
0
3
3
2
2
0
0
0
0
0
0
0
0
0
0
0
0
0
0
0
0
0
0
0
0
0
0
0
0
3
3
2
2
0
0
0
0
0
0
0
0
0
0
0
0
0
0
0
0
0
0
0
0
0
0
0
0
3
3
2
2
0
0
0
0
0
0
0
0
0
0
0
0
0
0
0
0
0
0
0
0
0
0
0
0
3
3
2
2
0
0
0
0
0
0
0
0
0
0
0
0
0
0
0
0
0
0
0
0
0
0
0
0
3
3
2
2
0
0
0
0
0
0
0
0
0
0
0
0
0
0
0
0
0
0
0
0
0
0
0
0
3
3
2
2
0
0
0
0
0
0
0
0
0
0
0
0
0
0
0
0
0
0
0
0
0
0
0
0
3
3
2
2
0
0
0
0
0
0
0
0
0
0
0
0
0
0
0
0
0
0
0
0
0
0
0
0
3
3
2
2
0
0
0
0
0
0
0
0
0
0
0
0
0
0
0
0
0
0
0
0
0
0
0
0
3
3
2
2
0
0
0
0
0
0
0
0
0
0
0
0
0
0
0
0
0
0
0
0
0
0
0
0
3
3
2
2
0
0
0
0
0
0
0
0
0
0
0
0
0
0
0
0
0
0
0
0
0
0
0
0
3
3
2
2
0
0
0
0
0
0
0
0
0
0
0
0
0
0
0
0
0
0
0
0
0
0
0
0
3
3
2
2
0
0
0
0
0
0
0
0
0
0
0
0
0
0
0
0
0
0
0
0
0
0
0
0
3
3
2
2
0
0
0
0
0
0
0
0
0
0
0
0
0
0
0
0
0
0
0
0
0
0
0
0
3
3
2
2
0
0
0
0
0
0
0
0
0
0
0
0
0
0
0
0
0
0
0
0
0
0
0
0
3
3
2
2
0
0
0
0
0
0
0
0
0
0
0
0
0
0
0
0
0
0
0
0
0
0
0
0
3
3
2
2
0
0
0
0
0
0
0
0
0
0
0
0
0
0
0
0
0
0
0
0
0
0
0
0
3
3
2
2
0
0
0
0
0
0
0
0
0
0
0
0
0
0
0
0
0
0
0
0
0
0
0
0
3
3
2
2
2
2
2
2
2
2
2
2
2
2
2
2
2
2
2
2
2
2
2
2
2
2
2
2
3
3
2
2
2
2
2
2
2
2
2
2
2
2
2
2
2
2
2
2
2
2
2
2
2
2
2
2
3
3
3
3
3
3
3
3
3
3
3
3
3
3
3
3
3
3
3
3
3
3
3
3
3
3
3
3
3
3
3
3
3
3
3
3
3
3
3
3
3
3
3
3
3
3
3
3
3
3
3
3
3
3
3
3
</DataArray>
<DataArray NumberOfComponents='1' type='Float32' Name='Velocity' format='ascii'>
0.000000
0.000000
0.000000
0.000000
0.000000
0.000000
0.000000
0.000000
0.000000
0.000000
0.000000
0.000000
0.000000
0.000000
0.000000
0.000000
0.000000
0.000000
0.000000
0.000000
0.000000
0.000000
0.000000
0.000000
0.000000
0.000000
0.000000
0.000000
0.000000
0.000000
0.000000
0.000000
0.000000
0.000000
0.000000
0.000000
0.000000
0.000000
0.000000
0.000000
0.000000
0.000000
0.000000
0.000000
0.000000
0.000000
0.000000
0.000000
0.000000
0.000000
0.000000
0.000000
0.000000
0.000000
0.000000
0.000000
0.000000
0.000000
0.000000
0.000000
0.000000
0.000000
0.000000
0.000000
0.000000
0.000000
0.000000
0.000000
0.000000
0.000000
0.000000
0.000000
0.000000
0.000000
0.000000
0.000000
0.000000
0.000000
0.000000
0.000000
0.000000
0.000000
0.000000
0.000000
0.000000
0.000000
0.000000
0.000000
0.000000
0.000000
0.000000
0.000000
0.000000
0.000000
0.000000
0.000000
0.000000
0.000000
0.000000
0.000000
0.000000
0.000000
0.000000
0.000000
0.000000
0.000000
0.000000
0.000000
0.000000
0.000000
0.000000
0.000000
0.000000
0.000000
0.000000
0.000000
0.025556
0.078619
0.054296
0.057816
0.126271
0.093103
0.081212
0.146453
0.044417
0.190335
0.016444
0.140936
0.031596
0.065668
0.085382
0.158207
0.116095
0.167820
0.083553
0.170291
0.100000
0.100000
0.100000
0.100000
0.000000
0.000000
0.000000
0.000000
0.059699
0.053296
0.084672
0.097758
0.099375
0.080473
0.091557
0.169775
0.067161
0.047849
0.086305
0.061806
0.060448
0.085395
0.056128
0.170836
0.143061
0.203313
0.204861
0.098091
0.282024
0.100000
0.100000
0.100000
0.000000
0.000000
0.000000
0.000000
0.076131
0.063408
0.103690
0.195545
0.023740
0.146605
0.110038
0.183152
0.136476
0.162119
0.144357
0.200477
0.123425
0.166111
0.138079
0.129581
0.069921
0.174250
0.205084
0.270758
0.402533
0.100000
0.100000
0.100000
0.000000
0.000000
0.000000
0.000000
0.060349
0.181688
0.157938
0.118736
0.110732
0.129874
0.134679
0.106325
0.012700
0.116871
0.078415
0.137695
0.029399
0.163771
0.103709
0.234994
0.175509
0.284377
0.214735
0.224490
0.174432
0.173458
0.100000
0.100000
0.000000
0.000000
0.000000
0.000000
0.011875
0.085065
0.080899
0.095369
0.125918
0.069014
0.135860
0.051428
0.052792
0.057380
0.049071
0.126089
0.027608
0.180836
0.061958
0.133960
0.069518
0.235268
0.077423
0.479609
0.041066
0.238718
0.100000
0.100000
0.000000
0.000000
0.000000
0.000000
0.064219
0.044099
0.151851
0.077580
0.127446
0.056463
0.069538
0.137646
0.130679
0.135212
0.063024
0.019247
0.013280
0.060056
0.084827
0.162591
0.175797
0.126149
0.135594
0.269740
0.334543
0.246903
0.100000
0.100000
0.000000
0.000000
0.000000
0.000000
0.104130
0.088197
0.052813
0.066531
0.140360
0.060046
0.010327
0.070011
0.088757
0.088741
0.029592
0.017893
0.073880
0.083703
0.084957
0.080590
0.072092
0.097305
0.200448
0.107226
0.174667
0.095598
0.100000
0.100000
0.000000
0.000000
0.000000
0.000000
0.036698
0.019041
0.079755
0.079766
0.041297
0.071562
0.030915
0.048971
0.101658
0.055958
0.019158
0.046344
0.088339
0.045420
0.119893
0.074129
0.075063
0.016846
0.128830
0.203816
0.119763
0.091720
0.100000
0.100000
0.000000
0.000000
0.000000
0.000000
0.044642
0.066400
0.110662
0.137339
0.168528
0.080976
0.078218
0.009875
0.062777
0.055891
0.027155
0.063710
0.065668
0.025018
0.110636
0.046763
0.234253
0.102360
0.041340
0.087518
0.181539
0.087868
0.100000
0.100000
0.000000
0.000000
0.000000
0.000000
0.055577
0.041995
0.060134
0.055453
0.036161
0.048542
0.137165
0.087009
0.109783
0.101287
0.024782
0.132417
0.153546
0.109181
0.201481
0.113545
0.038397
0.113000
0.095753
0.084938
0.249536
0.186909
0.100000
0.100000
0.000000
0.000000
0.000000
0.000000
0.033715
0.080518
0.093437
0.180436
0.102894
0.041660
0.070047
0.084471
0.038794
0.167145
0.052764
0.084544
0.067608
0.135928
0.066170
0.026280
0.170139
0.136213
0.203504
0.228466
0.130963
0.138523
0.100000
0.100000
0.000000
0.000000
0.000000
0.000000
0.031263
0.050132
0.032837
0.111411
0.029337
0.041623
0.098401
0.122740
0.061371
0.105841
0.011281
0.087219
0.050776
0.089051
0.179006
0.076529
0.072121
0.144826
0.195678
0.155055
0.318247
0.296089
0.100000
0.100000
0.000000
0.000000
0.000000
0.000000
0.027788
0.075569
0.081811
0.161649
0.120939
0.007891
0.039049
0.134016
0.064835
0.192224
0.059109
0.037100
0.083022
0.109263
0.137640
0.034256
0.078479
0.056430
0.103667
0.377022
0.180520
0.283064
0.100000
0.100000
0.000000
0.000000
0.000000
0.000000
0.005970
0.042565
0.043045
0.159290
0.027712
0.029749
0.039689
0.153762
0.141915
0.061800
0.056072
0.088429
0.062694
0.184396
0.082720
0.101589
0.088146
0.066292
0.029343
0.460508
0.175014
0.161537
0.100000
0.100000
0.000000
0.000000
0.000000
0.000000
0.018087
0.033315
0.112039
0.123471
0.111385
0.024092
0.020403
0.113170
0.086607
0.176788
0.115917
0.054573
0.039873
0.109385
0.066663
0.087914
0.077956
0.042205
0.226168
0.235575
0.156937
0.349462
0.100000
0.100000
0.000000
0.000000
0.000000
0.000000
0.027318
0.065523
0.062590
0.177537
0.015886
0.054652
0.016494
0.038947
0.068559
0.136541
0.050659
0.042991
0.037340
0.087014
0.056728
0.084474
0.182777
0.157709
0.097939
0.058987
0.262797
0.540994
0.100000
0.100000
0.000000
0.000000
0.000000
0.000000
0.040070
0.044289
0.119464
0.110845
0.120110
0.021662
0.047078
0.076873
0.050160
0.039160
0.001967
0.106981
0.040496
0.090660
0.015143
0.012857
0.161357
0.097261
0.188186
0.094618
0.204398
0.305234
0.100000
0.100000
0.000000
0.000000
0.000000
0.000000
0.020301
0.074419
0.076164
0.156817
0.041393
0.062750
0.026407
0.019381
0.046940
0.068286
0.039740
0.048793
0.038022
0.072219
0.063664
0.085205
0.166573
0.146049
0.132692
0.039580
0.283075
0.351267
0.100000
0.100000
0.000000
0.000000
0.000000
0.000000
0.019488
0.051289
0.142489
0.088786
0.096312
0.053672
0.052904
0.061931
0.033982
0.088279
0.050007
0.084258
0.016364
0.046343
0.052685
0.039230
0.090364
0.106201
0.173583
0.231044
0.044622
0.360424
0.100000
0.100000
0.000000
0.000000
0.000000
0.000000
0.012356
0.075992
0.059869
0.130455
0.040823
0.037441
0.041304
0.057655
0.056811
0.030783
0.052031
0.064025
0.036949
0.077910
0.025318
0.068151
0.218342
0.295261
0.071946
0.113955
0.259371
0.388068
0.100000
0.100000
0.000000
0.000000
0.000000
0.000000
0.012468
0.026965
0.155259
0.117362
0.083634
0.061843
0.078403
0.038692
0.057828
0.104421
0.039458
0.039417
0.048702
0.063925
0.089558
0.072202
0.149469
0.147074
0.110696
0.282453
0.101626
0.316451
0.100000
0.100000
0.000000
0.000000
0.000000
0.000000
0.007435
0.058032
0.117137
0.092616
0.068545
0.027681
0.023554
0.048409
0.130269
0.012297
0.076127
0.067520
0.016555
0.028042
0.100182
0.047984
0.050233
0.089295
0.113709
0.079186
0.060789
0.188836
0.100000
0.100000
0.000000
0.000000
0.000000
0.000000
0.020918
0.018928
0.153017
0.113007
0.091061
0.021167
0.102917
0.103100
0.069159
0.092474
0.020172
0.048369
0.097622
0.076863
0.070017
0.118920
0.100026
0.054589
0.017990
0.095180
0.463697
0.263255
0.100000
0.100000
0.000000
0.000000
0.000000
0.000000
0.028979
0.064435
0.117813
0.097553
0.072191
0.006791
0.030611
0.067781
0.166816
0.029162
0.061093
0.027698
0.038032
0.067730
0.073736
0.120964
0.016602
0.101901
0.115813
0.311728
0.218623
0.258511
0.100000
0.100000
0.000000
0.000000
0.000000
0.000000
0.055667
0.031734
0.094785
0.116450
0.039473
0.080306
0.105151
0.085693
0.069028
0.160861
0.051579
0.050308
0.066682
0.110919
0.105569
0.214789
0.102201
0.070264
0.164035
0.175851
0.114232
0.101376
0.100000
0.100000
0.000000
0.000000
0.000000
0.000000
0.064896
0.033376
0.142162
0.078349
0.079559
0.011542
0.040476
0.059328
0.160201
0.131941
0.172139
0.027825
0.108010
0.023414
0.021272
0.284883
0.127781
0.091916
0.132059
0.054103
0.172003
0.449759
0.100000
0.100000
0.000000
0.000000
0.000000
0.000000
0.016896
0.006926
0.121023
0.065283
0.099217
0.098939
0.094546
0.030265
0.111662
0.109962
0.022527
0.009730
0.107412
0.080476
0.146295
0.083138
0.097528
0.156489
0.152463
0.203022
0.193222
0.175252
0.100000
0.100000
0.000000
0.000000
0.000000
0.000000
0.084334
0.018629
0.107758
0.016006
0.087651
0.057120
0.131550
0.157654
0.123206
0.169057
0.145120
0.086902
0.103454
0.123950
0.054563
0.200209
0.160571
0.086639
0.177963
0.254491
0.073368
0.067005
0.100000
0.100000
0.000000
0.000000
0.000000
0.000000
0.007817
0.036305
0.060380
0.143990
0.189664
0.138400
0.112388
0.014151
0.107078
0.088586
0.063827
0.071513
0.076799
0.068797
0.133934
0.072320
0.076275
0.087235
0.232806
0.144037
0.283349
0.106671
0.100000
0.100000
0.000000
0.000000
0.000000
0.000000
0.086584
0.087731
0.140777
0.133427
0.123930
0.115393
0.124181
0.048926
0.190696
0.129292
0.154141
0.043847
0.078008
0.130416
0.083638
0.120029
0.158839
0.071969
0.101392
0.099338
0.018965
0.231381
0.100000
0.100000
0.000000
0.000000
0.000000
0.000000
0.077397
0.037051
0.046447
0.200136
0.156444
0.112826
0.110757
0.097478
0.100580
0.052218
0.159092
0.165484
0.046371
0.126244
0.092121
0.041695
0.203034
0.082677
0.031672
0.043747
0.206450
0.224395
0.100000
0.100000
0.000000
0.000000
0.000000
0.000000
0.065410
0.046292
0.089154
0.094367
0.052959
0.125237
0.144783
0.100035
0.243437
0.128234
0.092466
0.102901
0.126059
0.124944
0.067925
0.137377
0.085948
0.119920
0.128259
0.194816
0.114291
0.298046
0.100000
0.100000
0.000000
0.000000
0.000000
0.000000
0.047647
0.091949
0.077442
0.152946
0.089254
0.201932
0.075401
0.023503
0.054997
0.089038
0.063397
0.095636
0.149004
0.080277
0.151428
0.066585
0.168975
0.065260
0.131301
0.371842
0.137797
0.463354
0.100000
0.100000
0.000000
0.000000
0.000000
0.000000
0.034639
0.015969
0.087147
0.132456
0.095837
0.216796
0.115241
0.170499
0.186416
0.070902
0.114657
0.057920
0.089875
0.052163
0.048086
0.023477
0.165114
0.166999
0.129848
0.277412
0.234886
0.179422
0.100000
0.100000
0.000000
0.000000
0.000000
0.000000
0.076383
0.080566
0.234506
0.192832
0.257329
0.135308
0.086613
0.173041
0.090892
0.072633
0.114036
0.097080
0.067489
0.071653
0.078221
0.119222
0.068357
0.053147
0.053327
0.375402
0.192955
0.127337
0.100000
0.100000
0.000000
0.000000
0.000000
0.000000
0.009549
0.013828
0.182425
0.109404
0.203266
0.181757
0.123923
0.193325
0.115543
0.216140
0.157013
0.122607
0.199830
0.136924
0.093288
0.093373
0.022571
0.150871
0.233011
0.288921
0.252002
0.207670
0.208383
0.100000
0.000000
0.000000
0.000000
0.000000
0.091768
0.070190
0.073757
0.130473
0.093208
0.250144
0.191894
0.107805
0.137189
0.116520
0.055334
0.080838
0.019864
0.118978
0.069564
0.094047
0.346670
0.206660
0.321109
0.185598
0.271676
0.396872
0.045622
0.100000
0.000000
0.000000
0.000000
0.000000
0.054549
0.101408
0.067418
0.099891
0.017551
0.054524
0.108749
0.055199
0.086397
0.206603
0.271843
0.150336
0.089234
0.046474
0.038621
0.024481
0.123458
0.186609
0.116577
0.037932
0.305235
0.165764
0.142117
0.100000
0.000000
0.000000
0.000000
0.000000
0.041509
0.079812
0.078577
0.077589
0.120027
0.007907
0.150079
0.121432
0.076278
0.128736
0.058877
0.068494
0.035131
0.111346
0.079598
0.217961
0.125119
0.122850
0.032194
0.303161
0.176589
0.256270
0.097970
0.100000
0.000000
0.000000
0.000000
0.000000
0.039384
0.073587
0.058254
0.046542
0.114661
0.104923
0.136356
0.100460
0.164552
0.069770
0.157362
0.051168
0.161477
0.074836
0.177359
0.043720
0.128754
0.116061
0.291107
0.073552
0.279115
0.140272
0.167245
0.100000
0.000000
0.000000
0.000000
0.000000
0.000000
0.000000
0.000000
0.000000
0.000000
0.000000
0.000000
0.000000
0.000000
0.000000
0.000000
0.000000
0.000000
0.000000
0.000000
0.000000
0.000000
0.000000
0.000000
0.000000
0.000000
0.000000
0.000000
0.000000
0.000000
0.000000
0.000000
0.000000
0.000000
0.000000
0.000000
0.000000
0.000000
0.000000
0.000000
0.000000
0.000000
0.000000
0.000000
0.000000
0.000000
0.000000
0.000000
0.000000
0.000000
0.000000
0.000000
0.000000
0.000000
0.000000
0.000000
0.000000
0.000000
0.000000
0.000000
0.000000
0.000000
0.000000
0.000000
0.000000
0.000000
0.000000
0.000000
0.000000
0.000000
0.000000
0.000000
0.000000
0.000000
0.000000
0.000000
0.000000
0.000000
0.000000
0.000000
0.000000
0.000000
0.000000
0.000000
0.000000
0.000000
0.000000
0.000000
0.000000
0.000000
0.000000
0.000000
0.000000
0.000000
0.000000
0.000000
0.000000
0.000000
0.000000
0.000000
0.000000
0.000000
0.000000
0.000000
0.000000
0.000000
0.000000
0.000000
0.000000
0.000000
0.000000
0.000000
0.000000
</DataArray>
<DataArray NumberOfComponents='1' type='Float32' Name='pressure' format='ascii'>
0.000000
0.000000
0.000000
0.000000
0.000000
0.000000
0.000000
0.000000
0.000000
0.000000
0.000000
0.000000
0.000000
0.000000
0.000000
0.000000
0.000000
0.000000
0.000000
0.000000
0.000000
0.000000
0.000000
0.000000
0.000000
0.000000
0.000000
0.000000
0.000000
0.000000
0.000000
0.000000
0.000000
0.000000
0.000000
0.000000
0.000000
0.000000
0.000000
0.000000
0.000000
0.000000
0.000000
0.000000
0.000000
0.000000
0.000000
0.000000
0.000000
0.000000
0.000000
0.000000
0.000000
0.000000
0.000000
0.000000
0.000000
0.000000
16440.755859
16489.585938
16831.300781
16831.613281
16872.396484
16633.753906
16208.614258
15057.798828
14595.118164
14293.036133
13628.799805
13694.012695
13017.960938
12679.443359
13028.045898
12535.074219
12010.297852
12074.098633
11630.357422
11663.216797
10997.906250
11313.875000
9976.864258
8838.815430
5180.652344
0.000000
0.000000
0.000000
16403.574219
16440.068359
16543.328125
16137.022461
16273.386719
15598.691406
14885.411133
14923.481445
14795.460938
14235.788086
13875.245117
13663.604492
13012.099609
12799.708984
13189.347656
12384.699219
12101.557617
12005.753906
11493.956055
11426.533203
10379.121094
10978.361328
10182.641602
9960.144531
6205.392578
0.000000
0.000000
0.000000
16158.581055
16368.938477
15772.251953
16306.670898
15579.891602
15559.550781
14752.970703
14363.530273
14261.753906
13976.872070
13894.929688
13751.976562
13297.986328
12966.786133
12300.075195
12226.789062
11573.328125
11631.709961
11095.139648
10308.822266
10176.422852
7963.416016
9753.318359
0.000000
6427.863281
5188.852539
0.000000
0.000000
16755.146484
16822.812500
16393.392578
15962.174805
16131.795898
15247.982422
15324.025391
14711.217773
14645.617188
14273.796875
13927.593750
13412.565430
13301.348633
12809.905273
13000.781250
12280.147461
12202.400391
11663.640625
10407.307617
11641.001953
9675.729492
9746.983398
9292.941406
0.000000
14228.833008
0.000000
0.000000
0.000000
16507.035156
16421.039062
15744.252930
16092.506836
15046.256836
14771.502930
15494.925781
14516.238281
14341.185547
13813.971680
13960.690430
13354.892578
13406.559570
12748.731445
12464.786133
12459.702148
11646.990234
12225.520508
11669.931641
10772.042969
10835.350586
9746.220703
9937.717773
15434.625977
16332.643555
0.000000
0.000000
0.000000
16824.855469
16732.982422
16527.408203
16157.083008
15991.207031
15659.521484
14735.768555
14848.610352
14528.329102
14801.824219
14253.921875
13937.108398
13612.708984
13257.420898
12722.944336
12631.690430
12338.421875
11836.394531
11018.880859
11517.441406
10346.077148
10135.765625
10003.576172
9017.885742
16030.268555
0.000000
0.000000
0.000000
17287.511719
16042.883789
15977.134766
16052.679688
15334.153320
15147.610352
15082.542969
15411.321289
13916.779297
14487.804688
14001.501953
13450.485352
13738.319336
13071.148438
12984.995117
12491.653320
11958.891602
11951.440430
11279.556641
10612.346680
10934.965820
9825.128906
8898.496094
8600.034180
17012.728516
0.000000
0.000000
0.000000
17956.648438
16931.632812
16649.898438
16407.726562
15669.022461
16025.230469
14649.509766
15143.077148
14857.279297
15179.665039
13568.583008
14832.709961
13150.375000
13536.429688
12804.668945
12571.674805
12060.326172
11947.102539
11687.931641
10954.284180
10455.825195
10246.843750
10123.611328
7699.164062
17671.601562
0.000000
0.000000
0.000000
17622.050781
16478.085938
15962.514648
16138.195312
16062.462891
15483.262695
15772.939453
15199.455078
14693.968750
14740.102539
14522.166992
14291.066406
13779.131836
14085.830078
13090.395508
12983.182617
12693.794922
12191.319336
11179.164062
10736.195312
11239.599609
9615.518555
9260.585938
9815.124023
18253.078125
0.000000
0.000000
0.000000
17375.951172
16684.841797
16844.500000
16418.960938
15619.974609
15659.356445
15066.119141
15044.261719
15135.366211
14689.923828
13971.674805
14277.653320
13365.864258
13296.206055
13057.369141
12491.007812
12240.850586
11726.718750
12078.149414
10793.708008
10691.089844
9351.013672
9456.297852
7286.036133
18647.056641
0.000000
0.000000
0.000000
16655.199219
16767.462891
16264.513672
16212.951172
16118.672852
15896.333008
15311.887695
15689.024414
14747.973633
14874.434570
15031.469727
14650.671875
14169.109375
14127.012695
13205.175781
13230.033203
12267.846680
12203.333984
11323.554688
11215.653320
10116.983398
10135.176758
9298.963867
0.000000
18235.564453
0.000000
0.000000
0.000000
16607.808594
16839.115234
16812.832031
16376.153320
16089.409180
16161.011719
15742.310547
15638.433594
15286.027344
14928.782227
13760.331055
14236.418945
13601.902344
13481.339844
13437.637695
12760.859375
12743.189453
12123.435547
11698.639648
11239.662109
10838.077148
10927.783203
9741.191406
8876.380859
16356.394531
0.000000
0.000000
0.000000
16326.751953
16871.144531
16548.521484
16499.761719
16181.674805
15743.646484
15666.353516
15365.243164
15091.837891
15261.936523
15089.372070
15137.093750
13938.420898
14250.980469
13127.572266
13137.767578
12582.508789