<?xml version='1.0' encoding='UTF-8'?>
<VTKFile xmlns='VTK' byte_order='LittleEndian' version='0.1' type='UnstructuredGrid'>
<UnstructuredGrid>
<Piece NumberOfCells='1344' NumberOfPoints='1344'>
<Points>
<DataArray NumberOfComponents='3' type='Float32' Name='Position' format='ascii'>
-0.075000 -0.075000 0.000000
-0.075000 -0.050000 0.000000
-0.075000 -0.025000 0.000000
-0.075000 0.000000 0.000000
-0.075000 0.025000 0.000000
-0.075000 0.050000 0.000000
-0.075000 0.075000 0.000000
-0.075000 0.100000 0.000000
-0.075000 0.125000 0.000000
-0.075000 0.150000 0.000000
-0.075000 0.175000 0.000000
-0.075000 0.200000 0.000000
-0.075000 0.225000 0.000000
-0.075000 0.250000 0.000000
-0.075000 0.275000 0.000000
-0.075000 0.300000 0.000000
-0.075000 0.325000 0.000000
-0.075000 0.350000 0.000000
-0.075000 0.375000 0.000000
-0.075000 0.400000 0.000000
-0.075000 0.425000 0.000000
-0.075000 0.450000 0.000000
-0.075000 0.475000 0.000000
-0.075000 0.500000 0.000000
-0.075000 0.525000 0.000000
-0.075000 0.550000 0.000000
-0.075000 0.575000 0.000000
-0.075000 0.600000 0.000000
-0.050000 -0.075000 0.000000
-0.050000 -0.050000 0.000000
-0.050000 -0.025000 0.000000
-0.050000 0.000000 0.000000
-0.050000 0.025000 0.000000
-0.050000 0.050000 0.000000
-0.050000 0.075000 0.000000
-0.050000 0.100000 0.000000
-0.050000 0.125000 0.000000
-0.050000 0.150000 0.000000
-0.050000 0.175000 0.000000
-0.050000 0.200000 0.000000
-0.050000 0.225000 0.000000
-0.050000 0.250000 0.000000
-0.050000 0.275000 0.000000
-0.050000 0.300000 0.000000
-0.050000 0.325000 0.000000
-0.050000 0.350000 0.000000
-0.050000 0.375000 0.000000
-0.050000 0.400000 0.000000
-0.050000 0.425000 0.000000
-0.050000 0.450000 0.000000
-0.050000 0.475000 0.000000
-0.050000 0.500000 0.000000
-0.050000 0.525000 0.000000
-0.050000 0.550000 0.000000
-0.050000 0.575000 0.000000
-0.050000 0.600000 0.000000
-0.025000 -0.075000 0.000000
-0.025000 -0.050000 0.000000
-0.025000 -0.025000 0.000000
-0.025000 0.000000 0.000000
-0.025000 0.025000 0.000000
-0.025000 0.050000 0.000000
-0.025000 0.075000 0.000000
-0.025000 0.100000 0.000000
-0.025000 0.125000 0.000000
-0.025000 0.150000 0.000000
-0.025000 0.175000 0.000000
-0.025000 0.200000 0.000000
-0.025000 0.225000 0.000000
-0.025000 0.250000 0.000000
-0.025000 0.275000 0.000000
-0.025000 0.300000 0.000000
-0.025000 0.325000 0.000000
-0.025000 0.350000 0.000000
-0.025000 0.375000 0.000000
-0.025000 0.400000 0.000000
-0.025000 0.425000 0.000000
-0.025000 0.450000 0.000000
-0.025000 0.475000 0.000000
-0.025000 0.500000 0.000000
-0.025000 0.525000 0.000000
-0.025000 0.550000 0.000000
-0.025000 0.575000 0.000000
-0.025000 0.600000 0.000000
0.000000 -0.075000 0.000000
0.000000 -0.050000 0.000000
0.000000 -0.025000 0.000000
0.000000 0.000000 0.000000
0.000000 0.025000 0.000000
0.000000 0.050000 0.000000
0.000000 0.075000 0.000000
0.000000 0.100000 0.000000
0.000000 0.125000 0.000000
0.000000 0.150000 0.000000
0.000000 0.175000 0.000000
0.000000 0.200000 0.000000
0.000000 0.225000 0.000000
0.000000 0.250000 0.000000
0.000000 0.275000 0.000000
0.000000 0.300000 0.000000
0.000000 0.325000 0.000000
0.000000 0.350000 0.000000
0.000000 0.375000 0.000000
0.000000 0.400000 0.000000
0.000000 0.425000 0.000000
0.000000 0.450000 0.000000
0.000000 0.475000 0.000000
0.000000 0.500000 0.000000
0.000000 0.525000 0.000000
0.000000 0.550000 0.000000
0.000000 0.575000 0.000000
0.000000 0.600000 0.000000
0.025000 -0.075000 0.000000
0.025000 -0.050000 0.000000
0.025000 -0.025000 0.000000
0.025000 0.000000 0.000000
0.024907 0.024876 0.000000
0.025031 0.050023 0.000000
0.024984 0.074922 0.000000
0.025009 0.100000 0.000000
0.024983 0.124951 0.000000
0.025016 0.149999 0.000000
0.024986 0.174961 0.000000
0.025011 0.200002 0.000000
0.024993 0.224973 0.000000
0.025005 0.250000 0.000000
0.024999 0.274988 0.000000
0.025000 0.299995 0.000000
0.024999 0.325017 0.000000
0.025009 0.349952 0.000000
0.024967 0.375113 0.000000
0.025069 0.399829 0.000000
0.024879 0.425267 0.000000
0.025126 0.449714 0.000000
0.024849 0.475443 0.000000
0.025134 0.499596 0.000000
0.024605 0.525658 0.000000
0.024794 0.549579 0.000000
0.028996 0.575011 0.000000
0.029000 0.600000 0.000000
0.050000 -0.075000 0.000000
0.050000 -0.050000 0.000000
0.050000 -0.025000 0.000000
0.050000 0.000000 0.000000
0.050018 0.024966 0.000000
0.049942 0.049940 0.000000
0.050016 0.074976 0.000000
0.049976 0.099980 0.000000
0.049999 0.124963 0.000000
0.049993 0.149995 0.000000
0.049991 0.174970 0.000000
0.050000 0.200005 0.000000
0.049991 0.224974 0.000000
0.050000 0.250008 0.000000
0.049996 0.274989 0.000000
0.049998 0.299995 0.000000
0.049994 0.325038 0.000000
0.050009 0.349919 0.000000
0.049957 0.375182 0.000000
0.050052 0.399793 0.000000
0.049922 0.425311 0.000000
0.050035 0.449748 0.000000
0.049941 0.475359 0.000000
0.049952 0.499820 0.000000
0.049978 0.525413 0.000000
0.049924 0.549379 0.000000
0.053998 0.575025 0.000000
0.054000 0.600000 0.000000
0.075000 -0.075000 0.000000
0.075000 -0.050000 0.000000
0.075000 -0.025000 0.000000
0.075000 0.000000 0.000000
0.074947 0.024953 0.000000
0.075016 0.050024 0.000000
0.074974 0.074953 0.000000
0.074990 0.099990 0.000000
0.074995 0.124980 0.000000
0.074986 0.149986 0.000000
0.074996 0.174979 0.000000
0.074992 0.200000 0.000000
0.074991 0.224976 0.000000
0.074994 0.250008 0.000000
0.074992 0.274989 0.000000
0.074994 0.299991 0.000000
0.074990 0.325051 0.000000
0.075009 0.349890 0.000000
0.074972 0.375190 0.000000
0.075011 0.399789 0.000000
0.074988 0.425245 0.000000
0.074970 0.449794 0.000000
0.074972 0.475308 0.000000
0.074985 0.499655 0.000000
0.074867 0.525463 0.000000
0.075030 0.549567 0.000000
0.079002 0.575027 0.000000
0.079000 0.600000 0.000000
0.100000 -0.075000 0.000000
0.100000 -0.050000 0.000000
0.100000 -0.025000 0.000000
0.100000 0.000000 0.000000
0.099986 0.024942 0.000000
0.099985 0.049977 0.000000
0.099977 0.074956 0.000000
0.100007 0.100006 0.000000
0.099972 0.124954 0.000000
0.099995 0.149999 0.000000
0.099986 0.174976 0.000000
0.099989 0.200000 0.000000
0.099989 0.224979 0.000000
0.099989 0.250009 0.000000
0.099989 0.274991 0.000000
0.099991 0.299986 0.000000
0.099983 0.325063 0.000000
0.099997 0.349890 0.000000
0.099984 0.375190 0.000000
0.099988 0.399822 0.000000
0.099988 0.425260 0.000000
0.100014 0.449748 0.000000
0.099930 0.475374 0.000000
0.099987 0.499739 0.000000
0.099973 0.525440 0.000000
0.099989 0.549532 0.000000
0.104002 0.575024 0.000000
0.104000 0.600000 0.000000
0.125000 -0.075000 0.000000
0.125000 -0.050000 0.000000
0.125000 -0.025000 0.000000
0.125000 0.000000 0.000000
0.124970 0.024947 0.000000
0.124981 0.050006 0.000000
0.124992 0.074968 0.000000
0.124972 0.099985 0.000000
0.124985 0.124971 0.000000
0.124991 0.150003 0.000000
0.124981 0.174970 0.000000
0.124989 0.200006 0.000000
0.124987 0.224976 0.000000
0.124987 0.250008 0.000000
0.124987 0.274993 0.000000
0.124989 0.299982 0.000000
0.124984 0.325062 0.000000
0.124988 0.349889 0.000000
0.124982 0.375182 0.000000
0.124987 0.399799 0.000000
0.124953 0.425278 0.000000
0.124995 0.449756 0.000000
0.124988 0.475315 0.000000
0.124981 0.499696 0.000000
0.124960 0.525430 0.000000
0.124979 0.549603 0.000000
0.129002 0.575021 0.000000
0.129000 0.600000 0.000000
0.150000 -0.075000 0.000000
0.150000 -0.050000 0.000000
0.150000 -0.025000 0.000000
0.150000 0.000000 0.000000
0.149982 0.024950 0.000000
0.149984 0.049992 0.000000
0.149973 0.074954 0.000000
0.149987 0.099998 0.000000
0.149988 0.124972 0.000000
0.149980 0.149994 0.000000
0.149984 0.174974 0.000000
0.149985 0.200006 0.000000
0.149983 0.224976 0.000000
0.149986 0.250009 0.000000
0.149984 0.274994 0.000000
0.149986 0.299982 0.000000
0.149984 0.325065 0.000000
0.149988 0.349887 0.000000
0.149979 0.375194 0.000000
0.149996 0.399795 0.000000
0.149982 0.425265 0.000000
0.149968 0.449783 0.000000
0.149963 0.475342 0.000000
0.149985 0.499725 0.000000
0.150001 0.525431 0.000000
0.150007 0.549563 0.000000
0.154001 0.575018 0.000000
0.154000 0.600000 0.000000
0.175000 -0.075000 0.000000
0.175000 -0.050000 0.000000
0.175000 -0.025000 0.000000
0.175000 0.000000 0.000000
0.174970 0.024947 0.000000
0.174978 0.050000 0.000000
0.174982 0.074967 0.000000
0.174983 0.099997 0.000000
0.174975 0.124966 0.000000
0.174981 0.150000 0.000000
0.174981 0.174975 0.000000
0.174980 0.200004 0.000000
0.174981 0.224977 0.000000
0.174981 0.250009 0.000000
0.174981 0.274995 0.000000
0.174982 0.299980 0.000000
0.174980 0.325067 0.000000
0.174985 0.349882 0.000000
0.174977 0.375189 0.000000
0.174979 0.399805 0.000000
0.174983 0.425256 0.000000
0.174988 0.449753 0.000000
0.174971 0.475321 0.000000
0.174966 0.499722 0.000000
0.174960 0.525430 0.000000
0.174963 0.549601 0.000000
0.179001 0.575019 0.000000
0.179000 0.600000 0.000000
0.200000 -0.075000 0.000000
0.200000 -0.050000 0.000000
0.200000 -0.025000 0.000000
0.200000 0.000000 0.000000
0.199979 0.024950 0.000000
0.199980 0.049999 0.000000
0.199975 0.074959 0.000000
0.199975 0.099994 0.000000
0.199979 0.124971 0.000000
0.199979 0.150000 0.000000
0.199977 0.174973 0.000000
0.199979 0.200006 0.000000
0.199979 0.224977 0.000000
0.199979 0.250009 0.000000
0.199979 0.274996 0.000000
0.199980 0.299979 0.000000
0.199977 0.325069 0.000000
0.199980 0.349885 0.000000
0.199979 0.375187 0.000000
0.199979 0.399805 0.000000
0.199972 0.425265 0.000000
0.199981 0.449774 0.000000
0.199988 0.475323 0.000000
0.199995 0.499724 0.000000
0.200001 0.525420 0.000000
0.199998 0.549586 0.000000
0.204001 0.575018 0.000000
0.204000 0.600000 0.000000
0.225000 -0.075000 0.000000
0.225000 -0.050000 0.000000
0.225000 -0.025000 0.000000
0.225000 0.000000 0.000000
0.224970 0.024948 0.000000
0.224972 0.049999 0.000000
0.224974 0.074963 0.000000
0.224977 0.099998 0.000000
0.224976 0.124971 0.000000
0.224975 0.149999 0.000000
0.224976 0.174975 0.000000
0.224976 0.200007 0.000000
0.224976 0.224977 0.000000
0.224976 0.250008 0.000000
0.224976 0.274997 0.000000
0.224977 0.299978 0.000000
0.224976 0.325069 0.000000
0.224977 0.349884 0.000000
0.224975 0.375187 0.000000
[...]
<PointData>
<DataArray NumberOfComponents='1' type='Int32' Name='ParticleType' format='ascii'>
3
3
3
3
3
3
3
3
3
3
3
3
3
3
3
3
3
3
3
3
3
3
3
3
3
3
3
3
3
3
3
3
3
3
3
3
3
3
3
3
3
3
3
3
3
3
3
3
3
3
3
3
3
3
3
3
3
3
2
2
2
2
2
2
2
2
2
2
2
2
2
2
2
2
2
2
2
2
2
2
2
2
2
2
3
3
2
2
2
2
2
2
2
2
2
2
2
2
2
2
2
2
2
2
2
2
2
2
2
2
2
2
3
3
2
2
0
0
0
0
0
0
0
0
0
0
0
0
0
0
0
0
0
0
0
0
0
0
0
0
3
3
2
2
0
0
0
0
0
0
0
0
0
0
0
0
0
0
0
0
0
0
0
0
0
0
0
0
3
3
2
2
0
0
0
0
0
0
0
0
0
0
0
0
0
0
0
0
0
0
0
0
0
0
0
0
3
3
2
2
0
0
0
0
0
0
0
0
0
0
0
0
0
0
0
0
0
0
0
0
0
0
0
0
3
3
2
2
0
0
0
0
0
0
0
0
0
0
0
0
0
0
0
0
0
0
0
0
0
0
0
0
3
3
2
2
0
0
0
0
0
0
0
0
0
0
0
0
0
0
0
0
0
0
0
0
0
0
0
0
3
3
2
2
0
0
0
0
0
0
0
0
0
0
0
0
0
0
0
0
0
0
0
0
0
0
0
0
3
3
2
2
0
0
0
0
0
0
0
0
0
0
0
0
0
0
0
0
0
0
0
0
0
0
0
0
3
3
2
2
0
0
0
0
0
0
0
0
0
0
0
0
0
0
0
0
0
0
0
0
0
0
0
0
3
3
2
2
0
0
0
0
0
0
0
0
0
0
0
0
0
0
0
0
0
0
0
0
0
0
0
0
3
3
2
2
0
0
0
0
0
0
0
0
0
0
0
0
0
0
0
0
0
0
0
0
0
0
0
0
3
3
2
2
0
0
0
0
0
0
0
0
0
0
0
0
0
0
0
0
0
0
0
0
0
0
0
0
3
3
2
2
0
0
0
0
0
0
0
0
0
0
0
0
0
0
0
0
0
0
0
0
0
0
0
0
3
3
2
2
0
0
0
0
0
0
0
0
0
0
0
0
0
0
0
0
0
0
0
0
0
0
0
0
3
3
2
2
0
0
0
0
0
0
0
0
0
0
0
0
0
0
0
0
0
0
0
0
0
0
0
0
3
3
2
2
0
0
0
0
0
0
0
0
0
0
0
0
0
0
0
0
0
0
0
0
0
0
0
0
3
3
2
2
0
0
0
0
0
0
0
0
0
0
0
0
0
0
0
0
0
0
0
0
0
0
0
0
3
3
2
2
0
0
0
0
0
0
0
0
0
0
0
0
0
0
0
0
0
0
0
0
0
0
0
0
3
3
2
2
0
0
0
0
0
0
0
0
0
0
0
0
0
0
0
0
0
0
0
0
0
0
0
0
3
3
2
2
0
0
0
0
0
0
0
0
0
0
0
0
0
0
0
0
0
0
0
0
0
0
0
0
3
3
2
2
0
0
0
0
0
0
0
0
0
0
0
0
0
0
0
0
0
0
0
0
0
0
0
0
3
3
2
2
0
0
0
0
0
0
0
0
0
0
0
0
0
0
0
0
0
0
0
0
0
0
0
0
3
3
2
2
0
0
0
0
0
0
0
0
0
0
0
0
0
0
0
0
0
0
0
0
0
0
0
0
3
3
2
2
0
0
0
0
0
0
0
0
0
0
0
0
0
0
0
0
0
0
0
0
0
0
0
0
3
3
2
2
0
0
0
0
0
0
0
0
0
0
0
0
0
0
0
0
0
0
0
0
0
0
0
0
3
3
2
2
0
0
0
0
0
0
0
0
0
0
0
0
0
0
0
0
0
0
0
0
0
0
0
0
3
3
2
2
0
0
0
0
0
0
0
0
0
0
0
0
0
0
0
0
0
0
0
0
0
0
0
0
3
3
2
2
0
0
0
0
0
0
0
0
0
0
0
0
0
0
0
0
0
0
0
0
0
0
0
0
3
3
2
2
0
0
0
0
0
0
0
0
0
0
0
0
0
0
0
0
0
0
0
0
0
0
0
0
3
3
2
2
0
0
0
0
0
0
0
0
0
0
0
0
0
0
0
0
0
0
0
0
0
0
0
0
3
3
2
2
0
0
0
0
0
0
0
0
0
0
0
0
0
0
0
0
0
0
0
0
0
0
0
0
3
3
2
2
0
0
0
0
0
0
0
0
0
0
0
0
0
0
0
0
0
0
0
0
0
0
0
0
3
3
2
2
0
0
0
0
0
0
0
0
0
0
0
0
0
0
0
0
0
0
0
0
0
0
0
0
3
3
2
2
0
0
0
0
0
0
0
0
0
0
0
0
0
0
0
0
0
0
0
0
0
0
0
0
3
3
2
2
0
0
0
0
0
0
0
0
0
0
0
0
0
0
0
0
0
0
0
0
0
0
0
0
3
3
2
2
0
0
0
0
0
0
0
0
0
0
0
0
0
0
0
0
0
0
0
0
0
0
0
0
3
3
2
2
0
0
0
0
0
0
0
0
0
0
0
0
0
0
0
0
0
0
0
0
0
0
0
0
3
3
2
2
0
0
0
0
0
0
0
0
0
0
0
0
0
0
0
0
0
0
0
0
0
0
0
0
3
3
2
2
0
0
0
0
0
0
0
0
0
0
0
0
0
0
0
0
0
0
0
0
0
0
0
0
3
3
2
2
0
0
0
0
0
0
0
0
0
0
0
0
0
0
0
0
0
0
0
0
0
0
0
0
3
3
2
2
2
2
2
2
2
2
2
2
2
2
2
2
2
2
2
2
2
2
2
2
2
2
2
2
3
3
2
2
2
2
2
2
2
2
2
2
2
2
2
2
2
2
2
2
2
2
2
2
2
2
2
2
3
3
3
3
3
3
3
3
3
3
3
3
3
3
3
3
3
3
3
3
3
3
3
3
3
3
3
3
3
3
3
3
3
3
3
3
3
3
3
3
3
3
3
3
3
3
3
3
3
3
3
3
3
3
3
3
</DataArray>
<DataArray NumberOfComponents='1' type='Float32' Name='Velocity' format='ascii'>
0.000000
0.000000
0.000000
0.000000
0.000000
0.000000
0.000000
0.000000
0.000000
0.000000
0.000000
0.000000
0.000000
0.000000
0.000000
0.000000
0.000000
0.000000
0.000000
0.000000
0.000000
0.000000
0.000000
0.000000
0.000000
0.000000
0.000000
0.000000
0.000000
0.000000
0.000000
0.000000
0.000000
0.000000
0.000000
0.000000
0.000000
0.000000
0.000000
0.000000
0.000000
0.000000
0.000000
0.000000
0.000000
0.000000
0.000000
0.000000
0.000000
0.000000
0.000000
0.000000
0.000000
0.000000
0.000000
0.000000
0.000000
0.000000
0.000000
0.000000
0.000000
0.000000
0.000000
0.000000
0.000000
0.000000
0.000000
0.000000
0.000000
0.000000
0.000000
0.000000
0.000000
0.000000
0.000000
0.000000
0.000000
0.000000
0.000000
0.000000
0.000000
0.000000
0.000000
0.000000
0.000000
0.000000
0.000000
0.000000
0.000000
0.000000
0.000000
0.000000
0.000000
0.000000
0.000000
0.000000
0.000000
0.000000
0.000000
0.000000
0.000000
0.000000
0.000000
0.000000
0.000000
0.000000
0.000000
0.000000
0.000000
0.000000
0.000000
0.000000
0.000000
0.000000
0.000000
0.000000
0.000232
0.000318
0.000690
0.001023
0.001321
0.000279
0.000994
0.001245
0.000614
0.001835
0.000342
0.001525
0.006233
0.011789
0.018822
0.017844
0.017335
0.006387
0.012959
0.002731
0.022042
0.029258
0.100000
0.100000
0.000000
0.000000
0.000000
0.000000
0.000604
0.000661
0.001337
0.001275
0.001379
0.001587
0.002315
0.000814
0.001201
0.001828
0.001152
0.002411
0.011492
0.017089
0.021054
0.009836
0.006264
0.005070
0.003589
0.007257
0.006678
0.017387
0.100000
0.100000
0.000000
0.000000
0.000000
0.000000
0.000851
0.001188
0.001723
0.002081
0.001498
0.000473
0.002402
0.001303
0.001628
0.001566
0.002067
0.004039
0.014927
0.016894
0.015290
0.001717
0.005912
0.001659
0.003364
0.004747
0.003702
0.014877
0.100000
0.100000
0.000000
0.000000
0.000000
0.000000
0.001206
0.001038
0.001892
0.001064
0.001889
0.001819
0.001807
0.000187
0.001553
0.001167
0.002986
0.005356
0.015310
0.014001
0.012439
0.002705
0.009013
0.006688
0.002418
0.004560
0.003314
0.014265
0.100000
0.100000
0.000000
0.000000
0.000000
0.000000
0.000782
0.000912
0.001344
0.002152
0.002883
0.000766
0.001606
0.000848
0.001321
0.001035
0.003489
0.005439
0.014414
0.013171
0.013511
0.004785
0.007230
0.007798
0.002822
0.004157
0.008410
0.012273
0.100000
0.100000
0.000000
0.000000
0.000000
0.000000
0.001326
0.001055
0.001092
0.001304
0.001313
0.001542
0.002341
0.000840
0.001653
0.001459
0.003645
0.005094
0.014828
0.013464
0.015074
0.001665
0.005121
0.002727
0.005171
0.007877
0.006869
0.006100
0.100000
0.100000
0.000000
0.000000
0.000000
0.000000
0.001021
0.000740
0.001121
0.001643
0.002003
0.000812
0.002230
0.001076
0.001751
0.001516
0.003879
0.005235
0.015269
0.013214
0.013239
0.002111
0.006044
0.003558
0.004593
0.005010
0.006401
0.007760
0.100000
0.100000
0.000000
0.000000
0.000000
0.000000
0.001165
0.001483
0.001802
0.001235
0.001770
0.001029
0.002198
0.000992
0.001838
0.001448
0.004108
0.005317
0.015093
0.012202
0.013277
0.000821
0.006241
0.006240
0.004037
0.005709
0.006447
0.003851
0.100000
0.100000
0.000000
0.000000
0.000000
0.000000
0.001567
0.001251
0.001284
0.000981
0.001829
0.001453
0.002420
0.001248
0.002055
0.001661
0.004290
0.005241
0.014947
0.012091
0.013574
0.000514
0.005035
0.004009
0.003235
0.005982
0.007056
0.004880
0.100000
0.100000
0.000000
0.000000
0.000000
0.000000
0.001346
0.001335
0.001630
0.001661
0.002007
0.001385
0.002534
0.001483
0.002201
0.001835
0.004459
0.005205
0.015157
0.011862
0.013415
0.001326
0.005805
0.005164
0.003264
0.005365
0.006298
0.003265
0.100000
0.100000
0.000000
0.000000
0.000000
0.000000
0.001895
0.001858
0.001872
0.001630
0.002070
0.001627
0.002660
0.001619
0.002343
0.001968
0.004575
0.005293
0.015125
0.011661
0.013240
0.001314
0.005591
0.005494
0.003485
0.005975
0.006549
0.003553
0.100000
0.100000
0.000000
0.000000
0.000000
0.000000
0.001829
0.001723
0.001836
0.001786
0.002237
0.001829
0.002784
0.001828
0.002521
0.002157
0.004749
0.005296
0.015163
0.011462
0.013325
0.001420
0.005475
0.005591
0.003065
0.005701
0.006338
0.003217
0.100000
0.100000
0.000000
0.000000
0.000000
0.000000
0.002145
0.002096
0.002168
0.002063
0.002412
0.002003
0.002930
0.002037
0.002684
0.002342
0.004873
0.005382
0.015200
0.011429
0.013288
0.001967
0.005568
0.006054
0.003270
0.006011
0.006375
0.003386
0.100000
0.100000
0.000000
0.000000
0.000000
0.000000
0.002261
0.002173
0.002247
0.002169
0.002536
0.002190
0.003061
0.002229
0.002845
0.002527
0.004999
0.005452
0.015245
0.011342
0.013279
0.002106
0.005452
0.006298
0.003174
0.006123
0.006338
0.003526
0.100000
0.100000
0.000000
0.000000
0.000000
0.000000
0.002450
0.002377
0.002452
0.002381
0.002713
0.002387
0.003204
0.002439
0.003017
0.002728
0.005142
0.005575
0.015288
0.011329
0.013282
0.002512
0.005426
0.006680
0.003258
0.006361
0.006315
0.003774
0.100000
0.100000
0.000000
0.000000
0.000000
0.000000
0.002601
0.002528
0.002595
0.002541
0.002853
0.002567
0.003338
0.002640
0.003183
0.002918
0.005277
0.005712
0.015332
0.011319
0.013247
0.002837
0.005370
0.007025
0.003299
0.006612
0.006325
0.004080
0.100000
0.100000
0.000000
0.000000
0.000000
0.000000
0.002753
0.002689
0.002752
0.002714
0.003004
0.002756
0.003474
0.002844
0.003355
0.003115
0.005418
0.005881
0.015366
0.011336
0.013215
0.003203
0.005336
0.007425
0.003385
0.006880
0.006343
0.004472
0.100000
0.100000
0.000000
0.000000
0.000000
0.000000
0.002896
0.002835
0.002897
0.002872
0.003146
0.002935
0.003605
0.003043
0.003525
0.003311
0.005553
0.006072
0.015390
0.011377
0.013175
0.003581
0.005303
0.007831
0.003517
0.007197
0.006371
0.004951
0.100000
0.100000
0.000000
0.000000
0.000000
0.000000
0.003029
0.002972
0.003035
0.003023
0.003282
0.003108
0.003734
0.003238
0.003694
0.003510
0.005682
0.006289
0.015409
0.011453
0.013119
0.003988
0.005286
0.008254
0.003669
0.007547
0.006406
0.005538
0.100000
0.100000
0.000000
0.000000
0.000000
0.000000
0.003151
0.003100
0.003162
0.003163
0.003409
0.003274
0.003855
0.003428
0.003858
0.003710
0.005804
0.006534
0.015420
0.011560
0.013046
0.004418
0.005287
0.008709
0.003852
0.007917
0.006428
0.006222
0.100000
0.100000
0.000000
0.000000
0.000000
0.000000
0.003259
0.003216
0.003276
0.003293
0.003525
0.003432
0.003967
0.003615
0.004016
0.003910
0.005918
0.006807
0.015414
0.011703
0.012953
0.004875
0.005317
0.009196
0.004084
0.008332
0.006471
0.006984
0.100000
0.100000
0.000000
0.000000
0.000000
0.000000
0.003352
0.003317
0.003376
0.003412
0.003627
0.003580
0.004067
0.003795
0.004166
0.004109
0.006022
0.007108
0.015390
0.011885
0.012834
0.005363
0.005377
0.009703
0.004363
0.008784
0.006527
0.007865
0.100000
0.100000
0.000000
0.000000
0.000000
0.000000
0.003426
0.003402
0.003459
0.003516
0.003714
0.003717
0.004154
0.003967
0.004307
0.004307
0.006113
0.007440
0.015343
0.012108
0.012677
0.005890
0.005494
0.010239
0.004694
0.009272
0.006605
0.008880
0.100000
0.100000
0.000000
0.000000
0.000000
0.000000
0.003481
0.003469
0.003523
0.003601
0.003781
0.003842
0.004223
0.004130
0.004437
0.004502
0.006190
0.007804
0.015266
0.012369
0.012470
0.006454
0.005684
0.010796
0.005091
0.009828
0.006705
0.010032
0.100000
0.100000
0.000000
0.000000
0.000000
0.000000
0.003516
0.003519
0.003571
0.003676
0.003834
0.003954
0.004276
0.004285
0.004553
0.004694
0.006252
0.008203
0.015151
0.012672
0.012207
0.007056
0.005972
0.011390
0.005561
0.010448
0.006856
0.011347
0.100000
0.100000
0.000000
0.000000
0.000000
0.000000
0.003518
0.003531
0.003575
0.003710
0.003847
0.004040
0.004304
0.004423
0.004650
0.004878
0.006290
0.008630
0.014986
0.013011
0.011867
0.007688
0.006370
0.011994
0.006068
0.011085
0.007040
0.012857
0.100000
0.100000
0.000000
0.000000
0.000000
0.000000
0.003527
0.003569
0.003612
0.003772
0.003872
0.004124
0.004311
0.004554
0.004739
0.005061
0.006311
0.009101
0.014771
0.013386
0.011461
0.008413
0.006948
0.012651
0.006761
0.011881
0.007301
0.014634
0.100000
0.100000
0.000000
0.000000
0.000000
0.000000
0.003425
0.003449
0.003481
0.003700
0.003810
0.004170
0.004284
0.004651
0.004792
0.005229
0.006288
0.009588
0.014464
0.013775
0.010905
0.009066
0.007595
0.013238
0.007368
0.012614
0.007441
0.016520
0.100000
0.100000
0.000000
0.000000
0.000000
0.000000
0.003498
0.003590
0.003592
0.003775
0.003758
0.004197
0.004259
0.004761
0.004831
0.005408
0.006262
0.010120
0.014101
0.014209
0.010343
0.009993
0.008777
0.014058
0.008339
0.013816
0.008155
0.018819
0.100000
0.100000
0.000000
0.000000
0.000000
0.000000
0.003141
0.003190
0.003274
0.003673
0.003746
0.004199
0.004115
0.004828
0.004839
0.005542
0.006146
0.010678
0.013535
0.014506
0.009528
0.010667
0.009437
0.014391
0.009015
0.014365
0.007975
0.021052
0.100000
0.100000
0.000000
0.000000
0.000000
0.000000
0.003397
0.003416
0.003205
0.003447
0.003448
0.004249
0.004045
0.004857
0.004846
0.005741
0.006053
0.011219
0.012941
0.014967
0.008985
0.011615
0.011335
0.016001
0.010609
0.016710
0.009967
0.024077
0.100000
0.100000
0.000000
0.000000
0.000000
0.000000
0.002785
0.003133
0.003373
0.003755
0.003283
0.004050
0.003947
0.004908
0.004703
0.005849
0.005786
0.011701
0.011940
0.015241
0.007891
0.012292
0.013337
0.014874
0.010128
0.016704
0.008966
0.026517
0.100000
0.100000
0.000000
0.000000
0.000000
0.000000
0.002829
0.002664
0.002372
0.003233
0.003692
0.004171
0.003565
0.005023
0.004724
0.006073
0.005673
0.012380
0.010905
0.014807
0.008521
0.013988
0.013319
0.018278
0.016398
0.020849
0.014293
0.030584
0.100000
0.100000
0.000000
0.000000
0.000000
0.000000
0.002556
0.003128
0.002857
0.002949
0.002233
0.004012
0.003316
0.004886
0.004516
0.006129
0.005110
0.012672
0.009196
0.015232
0.009537
0.012044
0.016745
0.017374
0.008949
0.018209
0.012402
0.032187
0.100000
0.100000
0.000000
0.000000
0.000000
0.000000
0.001789
0.002520
0.002357
0.004119
0.002756
0.004050
0.003545
0.004989
0.004392
0.006315
0.005004
0.012692
0.007818
0.015766
0.008917
0.015081
0.022527
0.016630
0.022879
0.031733
0.021867
0.042127
0.100000
0.100000
0.000000
0.000000
0.000000
0.000000
0.002095
0.002045
0.001747
0.002764
0.003602
0.003569
0.002978
0.004871
0.004024
0.006587
0.004455
0.012746
0.005459
0.013233
0.012081
0.014326
0.013386
0.019147
0.024446
0.006531
0.025945
0.034979
0.100000
0.100000
0.000000
0.000000
0.000000
0.000000
0.001313
0.001687
0.002741
0.002890
0.002653
0.003616
0.002819
0.005157
0.003825
0.006888
0.004199
0.012673
0.004508
0.012593
0.016681
0.010909
0.021662
0.025606
0.012085
0.044881
0.043931
0.060740
0.100000
0.100000
0.000000
0.000000
0.000000
0.000000
0.000727
0.002340
0.001593
0.002640
0.001980
0.003328
0.002184
0.005402
0.003626
0.006556
0.003919
0.012445
0.002846
0.014420
0.013972
0.009908
0.028990
0.011432
0.051144
0.018656
0.040125
0.053975
0.100000
0.100000
0.000000
0.000000
0.000000
0.000000
0.000770
0.001048
0.001572
0.002675
0.002319
0.003716
0.002427
0.004787
0.004214
0.005869
0.004623
0.011335
0.003235
0.015231
0.007741
0.018347
0.013483
0.029868
0.042622
0.011182
0.131869
0.033032
0.100000
0.100000
0.000000
0.000000
0.000000
0.000000
0.000333
0.001198
0.000933
0.002411
0.001682
0.003309
0.003133
0.003955
0.005440
0.005711
0.006327
0.010644
0.006769
0.016797
0.009299
0.028557
0.006510
0.054325
0.013274
0.079321
0.065275
0.178356
0.100000
0.100000
0.000000
0.000000
0.000000
0.000000
0.000000
0.000000
0.000000
0.000000
0.000000
0.000000
0.000000
0.000000
0.000000
0.000000
0.000000
0.000000
0.000000
0.000000
0.000000
0.000000
0.000000
0.000000
0.000000
0.000000
0.000000
0.000000
0.000000
0.000000
0.000000
0.000000
0.000000
0.000000
0.000000
0.000000
0.000000
0.000000
0.000000
0.000000
0.000000
0.000000
0.000000
0.000000
0.000000
0.000000
0.000000
0.000000
0.000000
0.000000
0.000000
0.000000
0.000000
0.000000
0.000000
0.000000
0.000000
0.000000
0.000000
0.000000
0.000000
0.000000
0.000000
0.000000
0.000000
0.000000
0.000000
0.000000
0.000000
0.000000
0.000000
0.000000
0.000000
0.000000
0.000000
0.000000
0.000000
0.000000
0.000000
0.000000
0.000000
0.000000
0.000000
0.000000
0.000000
0.000000
0.000000
0.000000
0.000000
0.000000
0.000000
0.000000
0.000000
0.000000
0.000000
0.000000
0.000000
0.000000
0.000000
0.000000
0.000000
0.000000
0.000000
0.000000
0.000000
0.000000
0.000000
0.000000
0.000000
0.000000
0.000000
0.000000
0.000000
0.000000
</DataArray>
<DataArray NumberOfComponents='1' type='Float32' Name='pressure' format='ascii'>
0.000000
0.000000
0.000000
0.000000
0.000000
0.000000
0.000000
0.000000
0.000000
0.000000
0.000000
0.000000
0.000000
0.000000
0.000000
0.000000
0.000000
0.000000
0.000000
0.000000
0.000000
0.000000
0.000000
0.000000
0.000000
0.000000
0.000000
0.000000
0.000000
0.000000
0.000000
0.000000
0.000000
0.000000
0.000000
0.000000
0.000000
0.000000
0.000000
0.000000
0.000000
0.000000
0.000000
0.000000
0.000000
0.000000
0.000000
0.000000
0.000000
0.000000
0.000000
0.000000
0.000000
0.000000
0.000000
0.000000
0.000000
0.000000
5483.116699
5430.854492
5334.820801
5098.515625
4880.837402
4631.373535
4393.895020
4135.419434
3896.084229
3639.870117
3398.571045
3149.316406
2908.986084
2668.395020
2433.725830
2197.627441
1983.799561
1721.312500
1557.143921
1240.712524
1080.699219
669.315430
379.140564
0.000000
0.000000
0.000000
0.000000
0.000000
5518.779785
5542.431641
5396.157227
5125.048828
4886.492188
4635.187012
4398.344727
4136.092773
3898.330078
3637.114014
3401.169922
3144.556396
2910.531006
2659.672119
2445.045166
2167.543213
2027.864136
1664.006592
1621.515991
1193.387573
1158.884399
747.937439
722.972107
0.000000
0.000000
0.000000
0.000000
0.000000
5595.099609
5622.395020
5393.531250
5125.165527
4893.959473
4640.474121
4391.964844
4145.650879
3896.275879
3642.417725
3405.177246
3142.999023
2915.045410
2646.626953
2467.897949
2107.493164
2088.366455
1613.564819
1609.130493
1221.435303
1161.864990
767.963135
789.809631
0.000000
0.000000
0.000000
0.000000
0.000000
5587.155762
5614.587891
5389.898438
5122.859375
4892.745605
4635.809570
4395.010742
4152.774414
3892.158936
3660.203369
3411.455566
3154.335205
2932.386963
2636.816650
2512.742432
2040.578735
2113.695312
1628.822021
1521.575562
1242.784912
1080.806885
800.949829
790.456482
328.491577
0.000000
0.000000
0.000000
0.000000
5596.814941
5608.388184
5390.733398
5123.671387
4898.118652
4631.654297
4403.766113
4150.266602
3895.275635
3669.379395
3407.524658
3162.135742
2943.020996
2629.055176
2552.962891
2042.384277
2081.816406
1707.595947
1458.303833
1227.355713
1087.455322
758.201660
775.181641
336.291290
0.000000
0.000000
0.000000
0.000000
5603.670898
5616.637695
5395.135742
5123.300781
4888.046875
4642.663574
4409.723145
4136.920898
3904.960205
3662.618408
3403.773193
3159.298584
2944.916748
2613.291992
2555.296875
2058.351562
2046.033447
1712.412476
1555.017700
1161.754761
1044.356934
700.580688
706.410217
289.903290
0.000000
0.000000
0.000000
0.000000
5604.271484
5618.281250
5387.842773
5127.737305
4902.269531
4653.334961
4385.805176
4148.136719
3906.970947
3657.138672
3409.269287
3154.417480
2946.317139
2606.525391
2540.424561
2057.587891
2043.500488
1642.829224
1551.079224
1224.755737
1048.666382
675.608215
597.304199
141.698685
0.000000
0.000000
0.000000
0.000000
5604.284668
5617.327148
5395.928223
5129.539062
4895.712402
4630.596680
4396.463867
4159.650391
3898.678711
3663.262695
3415.104248
3154.551270
2949.880615
2607.832764
2537.801025
2044.981567
2051.030762
1635.646851
1464.851318
1167.355713
1055.833252
698.255920
636.039490
134.362198
0.000000
0.000000
0.000000
0.000000
5606.465332
5618.440918
5393.784668
5125.028809
4898.118164
4648.704102
4408.679199
4150.992188
3903.778320
3667.173584
3412.755859
3155.045166
2951.860107
2606.181396
2543.312744
2045.447144
2037.646484
1660.522461
1498.188721
1133.536133
975.837463
618.225403
582.570740
87.565651
0.000000
0.000000
0.000000
0.000000
5607.362305
5618.967285
5396.777344
5135.348145
4907.752441
4646.371582
4398.692383
4153.610840
3907.695312
3664.230957
3413.251465
3153.485596
2950.474365
2601.110352
2537.967285
2047.358643
2023.298462
1633.000488
1496.831421
1159.142822
998.806091
618.756165
548.653442
45.770046
0.000000
0.000000
0.000000
0.000000
5610.610840
5623.715332
5401.699707
5135.065430
4902.555176
4643.822266
4406.102539
4158.986328
3906.754150
3666.031982
3416.721436
3153.466064
2951.378906
2600.191406
2532.731445
2043.859253
2022.804199
1624.479858
1467.752075
1132.780884
983.287964
617.990173
563.202942
57.142235
0.000000
0.000000
0.000000
0.000000
5613.224121
5624.806641
5402.343750
5137.141602
4908.206543
4650.743652
4409.693359
4158.630371
3909.357422
3668.530273
3417.630859
3153.764893
2952.490234
2600.267822
2532.980957
2042.322998
2017.542358
1626.108154
1468.764160
1124.456909
959.890991
589.408386
532.417847
36.418400
0.000000
0.000000
0.000000
0.000000
5617.200684
5630.044434
5409.115723
5143.644043
4911.934570
4652.231445
4411.133789
4161.616699
3912.367432
3669.892334
3419.441895
3154.642090
2953.385010
2599.501465
2532.391113
2043.255371
2013.483887
1621.812622
1466.709839
1129.859741
966.863892
597.963684
536.874756
36.984680
0.000000
0.000000
0.000000
0.000000
5621.325195
5633.613281
5411.687500
5144.936523
4913.633789
4655.263672
4415.111816
4164.816406
3914.770264
3672.294434
3422.189453
3156.046631
2955.105469
2599.925781
2531.540527
2042.912964
2011.144287
1618.229126
1457.928101
1120.791260
953.547729