<?xml version='1.0' encoding='UTF-8'?>
<VTKFile xmlns='VTK' byte_order='LittleEndian' version='0.1' type='UnstructuredGrid'>
<UnstructuredGrid>
<Piece NumberOfCells='1344' NumberOfPoints='1344'>
<Points>
<DataArray NumberOfComponents='3' type='Float32' Name='Position' format='ascii'>
-0.075000 -0.075000 0.000000
-0.075000 -0.050000 0.000000
-0.075000 -0.025000 0.000000
-0.075000 0.000000 0.000000
-0.075000 0.025000 0.000000
-0.075000 0.050000 0.000000
-0.075000 0.075000 0.000000
-0.075000 0.100000 0.000000
-0.075000 0.125000 0.000000
-0.075000 0.150000 0.000000
-0.075000 0.175000 0.000000
-0.075000 0.200000 0.000000
-0.075000 0.225000 0.000000
-0.075000 0.250000 0.000000
-0.075000 0.275000 0.000000
-0.075000 0.300000 0.000000
-0.075000 0.325000 0.000000
-0.075000 0.350000 0.000000
-0.075000 0.375000 0.000000
-0.075000 0.400000 0.000000
-0.075000 0.425000 0.000000
-0.075000 0.450000 0.000000
-0.075000 0.475000 0.000000
-0.075000 0.500000 0.000000
-0.075000 0.525000 0.000000
-0.075000 0.550000 0.000000
-0.075000 0.575000 0.000000
-0.075000 0.600000 0.000000
-0.050000 -0.075000 0.000000
-0.050000 -0.050000 0.000000
-0.050000 -0.025000 0.000000
-0.050000 0.000000 0.000000
-0.050000 0.025000 0.000000
-0.050000 0.050000 0.000000
-0.050000 0.075000 0.000000
-0.050000 0.100000 0.000000
-0.050000 0.125000 0.000000
-0.050000 0.150000 0.000000
-0.050000 0.175000 0.000000
-0.050000 0.200000 0.000000
-0.050000 0.225000 0.000000
-0.050000 0.250000 0.000000
-0.050000 0.275000 0.000000
-0.050000 0.300000 0.000000
-0.050000 0.325000 0.000000
-0.050000 0.350000 0.000000
-0.050000 0.375000 0.000000
-0.050000 0.400000 0.000000
-0.050000 0.425000 0.000000
-0.050000 0.450000 0.000000
-0.050000 0.475000 0.000000
-0.050000 0.500000 0.000000
-0.050000 0.525000 0.000000
-0.050000 0.550000 0.000000
-0.050000 0.575000 0.000000
-0.050000 0.600000 0.000000
-0.025000 -0.075000 0.000000
-0.025000 -0.050000 0.000000
-0.025000 -0.025000 0.000000
-0.025000 0.000000 0.000000
-0.025000 0.025000 0.000000
-0.025000 0.050000 0.000000
-0.025000 0.075000 0.000000
-0.025000 0.100000 0.000000
-0.025000 0.125000 0.000000
-0.025000 0.150000 0.000000
-0.025000 0.175000 0.000000
-0.025000 0.200000 0.000000
-0.025000 0.225000 0.000000
-0.025000 0.250000 0.000000
-0.025000 0.275000 0.000000
-0.025000 0.300000 0.000000
-0.025000 0.325000 0.000000
-0.025000 0.350000 0.000000
-0.025000 0.375000 0.000000
-0.025000 0.400000 0.000000
-0.025000 0.425000 0.000000
-0.025000 0.450000 0.000000
-0.025000 0.475000 0.000000
-0.025000 0.500000 0.000000
-0.025000 0.525000 0.000000
-0.025000 0.550000 0.000000
-0.025000 0.575000 0.000000
-0.025000 0.600000 0.000000
0.000000 -0.075000 0.000000
0.000000 -0.050000 0.000000
0.000000 -0.025000 0.000000
0.000000 0.000000 0.000000
0.000000 0.025000 0.000000
0.000000 0.050000 0.000000
0.000000 0.075000 0.000000
0.000000 0.100000 0.000000
0.000000 0.125000 0.000000
0.000000 0.150000 0.000000
0.000000 0.175000 0.000000
0.000000 0.200000 0.000000
0.000000 0.225000 0.000000
0.000000 0.250000 0.000000
0.000000 0.275000 0.000000
0.000000 0.300000 0.000000
0.000000 0.325000 0.000000
0.000000 0.350000 0.000000
0.000000 0.375000 0.000000
0.000000 0.400000 0.000000
0.000000 0.425000 0.000000
0.000000 0.450000 0.000000
0.000000 0.475000 0.000000
0.000000 0.500000 0.000000
0.000000 0.525000 0.000000
0.000000 0.550000 0.000000
0.000000 0.575000 0.000000
0.000000 0.600000 0.000000
0.025000 -0.075000 0.000000
0.025000 -0.050000 0.000000
0.025000 -0.025000 0.000000
0.025000 0.000000 0.000000
0.024829 0.024990 0.000000
0.025076 0.050240 0.000000
0.024881 0.075184 0.000000
0.025030 0.100396 0.000000
0.024904 0.125468 0.000000
0.024993 0.150631 0.000000
0.024912 0.175806 0.000000
0.024962 0.200960 0.000000
0.024885 0.226233 0.000000
0.024944 0.251409 0.000000
0.024894 0.276782 0.000000
0.024856 0.301942 0.000000
0.024874 0.327535 0.000000
0.024875 0.352684 0.000000
0.024723 0.378414 0.000000
0.024777 0.403825 0.000000
0.024864 0.429509 0.000000
0.024366 0.455185 0.000000
0.025225 0.480937 0.000000
0.024110 0.506384 0.000000
0.023952 0.533445 0.000000
0.021239 0.565574 0.000000
0.043667 0.575891 0.000000
0.043931 0.600000 0.000000
0.050000 -0.075000 0.000000
0.050000 -0.050000 0.000000
0.050000 -0.025000 0.000000
0.050000 0.000000 0.000000
0.049770 0.024905 0.000000
0.049881 0.050130 0.000000
0.049875 0.075030 0.000000
0.049806 0.100191 0.000000
0.049817 0.125137 0.000000
0.049763 0.150265 0.000000
0.049757 0.175232 0.000000
0.049679 0.200341 0.000000
0.049692 0.225321 0.000000
0.049561 0.250385 0.000000
0.049592 0.275395 0.000000
0.049416 0.300493 0.000000
0.049429 0.325362 0.000000
0.049141 0.350570 0.000000
0.049195 0.375510 0.000000
0.048842 0.400592 0.000000
0.048808 0.425586 0.000000
0.048791 0.451215 0.000000
0.048711 0.475741 0.000000
0.048771 0.502120 0.000000
0.049269 0.526442 0.000000
0.042504 0.549914 0.000000
0.068903 0.575687 0.000000
0.068958 0.600000 0.000000
0.075000 -0.075000 0.000000
0.075000 -0.050000 0.000000
0.075000 -0.025000 0.000000
0.075000 0.000000 0.000000
0.074657 0.024980 0.000000
0.074901 0.050254 0.000000
0.074814 0.075105 0.000000
0.074825 0.100402 0.000000
0.074816 0.125302 0.000000
0.074778 0.150555 0.000000
0.074807 0.175520 0.000000
0.074727 0.200740 0.000000
0.074776 0.225730 0.000000
0.074692 0.250973 0.000000
0.074748 0.275934 0.000000
0.074645 0.301165 0.000000
0.074671 0.326132 0.000000
0.074621 0.351420 0.000000
0.074432 0.376029 0.000000
0.074503 0.401687 0.000000
0.074153 0.425960 0.000000
0.073975 0.451463 0.000000
0.074075 0.476136 0.000000
0.073433 0.501395 0.000000
0.073815 0.526693 0.000000
0.070266 0.551382 0.000000
0.094020 0.575700 0.000000
0.094018 0.600000 0.000000
0.100000 -0.075000 0.000000
0.100000 -0.050000 0.000000
0.100000 -0.025000 0.000000
0.100000 0.000000 0.000000
0.099542 0.024918 0.000000
0.099825 0.050132 0.000000
0.099720 0.074955 0.000000
0.099718 0.100219 0.000000
0.099644 0.125051 0.000000
0.099665 0.150325 0.000000
0.099580 0.175173 0.000000
0.099577 0.200410 0.000000
0.099513 0.225295 0.000000
0.099470 0.250471 0.000000
0.099413 0.275386 0.000000
0.099368 0.300620 0.000000
0.099245 0.325452 0.000000
0.099229 0.350756 0.000000
0.099059 0.375718 0.000000
0.099029 0.400955 0.000000
0.098902 0.425754 0.000000
0.098651 0.451511 0.000000
0.099045 0.475829 0.000000
0.097737 0.501522 0.000000
0.099957 0.526639 0.000000
0.094455 0.550060 0.000000
0.119010 0.575701 0.000000
0.118996 0.600000 0.000000
0.125000 -0.075000 0.000000
0.125000 -0.050000 0.000000
0.125000 -0.025000 0.000000
0.125000 0.000000 0.000000
0.124483 0.024946 0.000000
0.124836 0.050264 0.000000
0.124683 0.075080 0.000000
0.124707 0.100438 0.000000
0.124639 0.125248 0.000000
0.124667 0.150578 0.000000
0.124593 0.175434 0.000000
0.124647 0.200725 0.000000
0.124555 0.225598 0.000000
0.124610 0.250897 0.000000
0.124520 0.275774 0.000000
0.124517 0.301034 0.000000
0.124466 0.325955 0.000000
0.124358 0.351279 0.000000
0.124309 0.375870 0.000000
0.124149 0.401475 0.000000
0.124060 0.426099 0.000000
0.123592 0.451148 0.000000
0.124210 0.476461 0.000000
0.122528 0.501179 0.000000
0.124738 0.526836 0.000000
0.121229 0.551080 0.000000
0.143999 0.575719 0.000000
0.144006 0.600000 0.000000
0.150000 -0.075000 0.000000
0.150000 -0.050000 0.000000
0.150000 -0.025000 0.000000
0.150000 0.000000 0.000000
0.149351 0.024892 0.000000
0.149692 0.050201 0.000000
0.149596 0.074987 0.000000
0.149598 0.100318 0.000000
0.149517 0.125069 0.000000
0.149548 0.150395 0.000000
0.149462 0.175169 0.000000
0.149459 0.200472 0.000000
0.149411 0.225287 0.000000
0.149326 0.250580 0.000000
0.149342 0.275376 0.000000
0.149147 0.300790 0.000000
0.149254 0.325459 0.000000
0.149020 0.350873 0.000000
0.149111 0.375828 0.000000
0.148820 0.400888 0.000000
0.149113 0.425922 0.000000
0.148242 0.451221 0.000000
0.149317 0.476025 0.000000
0.147120 0.500837 0.000000
0.150072 0.526287 0.000000
0.146022 0.550058 0.000000
0.169006 0.575727 0.000000
0.168999 0.600000 0.000000
0.175000 -0.075000 0.000000
0.175000 -0.050000 0.000000
0.175000 -0.025000 0.000000
0.175000 0.000000 0.000000
0.174309 0.024962 0.000000
0.174675 0.050199 0.000000
0.174586 0.075038 0.000000
0.174570 0.100361 0.000000
0.174545 0.125161 0.000000
0.174526 0.150540 0.000000
0.174483 0.175327 0.000000
0.174470 0.200743 0.000000
0.174448 0.225498 0.000000
0.174401 0.250943 0.000000
0.174398 0.275669 0.000000
0.174356 0.300978 0.000000
0.174275 0.325849 0.000000
0.174212 0.351066 0.000000
0.174159 0.375781 0.000000
0.173915 0.401220 0.000000
0.173979 0.426074 0.000000
0.173427 0.450861 0.000000
0.174199 0.476529 0.000000
0.172424 0.500989 0.000000
0.174950 0.526289 0.000000
0.172037 0.550925 0.000000
0.193987 0.575741 0.000000
0.194000 0.600000 0.000000
0.200000 -0.075000 0.000000
0.200000 -0.050000 0.000000
0.200000 -0.025000 0.000000
0.200000 0.000000 0.000000
0.199193 0.024890 0.000000
0.199594 0.050203 0.000000
0.199499 0.074992 0.000000
0.199454 0.100347 0.000000
0.199429 0.125105 0.000000
0.199357 0.150474 0.000000
0.199362 0.175222 0.000000
0.199287 0.200563 0.000000
0.199268 0.225341 0.000000
0.199260 0.250585 0.000000
0.199175 0.275476 0.000000
0.199155 0.300728 0.000000
0.199127 0.325609 0.000000
0.198964 0.350881 0.000000
0.199036 0.376034 0.000000
0.198711 0.400858 0.000000
0.199097 0.426228 0.000000
0.198043 0.451192 0.000000
0.199415 0.476059 0.000000
0.197194 0.500873 0.000000
0.199941 0.526085 0.000000
0.196908 0.550464 0.000000
0.219034 0.575752 0.000000
0.219007 0.600000 0.000000
0.225000 -0.075000 0.000000
0.225000 -0.050000 0.000000
0.225000 -0.025000 0.000000
0.225000 0.000000 0.000000
0.224142 0.024917 0.000000
0.224514 0.050234 0.000000
0.224466 0.075040 0.000000
0.224422 0.100407 0.000000
0.224407 0.125153 0.000000
0.224397 0.150537 0.000000
0.224345 0.175297 0.000000
0.224376 0.200618 0.000000
0.224322 0.225459 0.000000
0.224274 0.250753 0.000000
0.224299 0.275612 0.000000
0.224069 0.300877 0.000000
0.224233 0.325815 0.000000
0.223793 0.350989 0.000000
0.224255 0.375780 0.000000
[...]
<PointData>
<DataArray NumberOfComponents='1' type='Int32' Name='ParticleType' format='ascii'>
3
3
3
3
3
3
3
3
3
3
3
3
3
3
3
3
3
3
3
3
3
3
3
3
3
3
3
3
3
3
3
3
3
3
3
3
3
3
3
3
3
3
3
3
3
3
3
3
3
3
3
3
3
3
3
3
3
3
2
2
2
2
2
2
2
2
2
2
2
2
2
2
2
2
2
2
2
2
2
2
2
2
2
2
3
3
2
2
2
2
2
2
2
2
2
2
2
2
2
2
2
2
2
2
2
2
2
2
2
2
2
2
3
3
2
2
0
0
0
0
0
0
0
0
0
0
0
0
0
0
0
0
0
0
0
0
0
0
0
0
3
3
2
2
0
0
0
0
0
0
0
0
0
0
0
0
0
0
0
0
0
0
0
0
0
0
0
0
3
3
2
2
0
0
0
0
0
0
0
0
0
0
0
0
0
0
0
0
0
0
0
0
0
0
0
0
3
3
2
2
0
0
0
0
0
0
0
0
0
0
0
0
0
0
0
0
0
0
0
0
0
0
0
0
3
3
2
2
0
0
0
0
0
0
0
0
0
0
0
0
0
0
0
0
0
0
0
0
0
0
0
0
3
3
2
2
0
0
0
0
0
0
0
0
0
0
0
0
0
0
0
0
0
0
0
0
0
0
0
0
3
3
2
2
0
0
0
0
0
0
0
0
0
0
0
0
0
0
0
0
0
0
0
0
0
0
0
0
3
3
2
2
0
0
0
0
0
0
0
0
0
0
0
0
0
0
0
0
0
0
0
0
0
0
0
0
3
3
2
2
0
0
0
0
0
0
0
0
0
0
0
0
0
0
0
0
0
0
0
0
0
0
0
0
3
3
2
2
0
0
0
0
0
0
0
0
0
0
0
0
0
0
0
0
0
0
0
0
0
0
0
0
3
3
2
2
0
0
0
0
0
0
0
0
0
0
0
0
0
0
0
0
0
0
0
0
0
0
0
0
3
3
2
2
0
0
0
0
0
0
0
0
0
0
0
0
0
0
0
0
0
0
0
0
0
0
0
0
3
3
2
2
0
0
0
0
0
0
0
0
0
0
0
0
0
0
0
0
0
0
0
0
0
0
0
0
3
3
2
2
0
0
0
0
0
0
0
0
0
0
0
0
0
0
0
0
0
0
0
0
0
0
0
0
3
3
2
2
0
0
0
0
0
0
0
0
0
0
0
0
0
0
0
0
0
0
0
0
0
0
0
0
3
3
2
2
0
0
0
0
0
0
0
0
0
0
0
0
0
0
0
0
0
0
0
0
0
0
0
0
3
3
2
2
0
0
0
0
0
0
0
0
0
0
0
0
0
0
0
0
0
0
0
0
0
0
0
0
3
3
2
2
0
0
0
0
0
0
0
0
0
0
0
0
0
0
0
0
0
0
0
0
0
0
0
0
3
3
2
2
0
0
0
0
0
0
0
0
0
0
0
0
0
0
0
0
0
0
0
0
0
0
0
0
3
3
2
2
0
0
0
0
0
0
0
0
0
0
0
0
0
0
0
0
0
0
0
0
0
0
0
0
3
3
2
2
0
0
0
0
0
0
0
0
0
0
0
0
0
0
0
0
0
0
0
0
0
0
0
0
3
3
2
2
0
0
0
0
0
0
0
0
0
0
0
0
0
0
0
0
0
0
0
0
0
0
0
0
3
3
2
2
0
0
0
0
0
0
0
0
0
0
0
0
0
0
0
0
0
0
0
0
0
0
0
0
3
3
2
2
0
0
0
0
0
0
0
0
0
0
0
0
0
0
0
0
0
0
0
0
0
0
0
0
3
3
2
2
0
0
0
0
0
0
0
0
0
0
0
0
0
0
0
0
0
0
0
0
0
0
0
0
3
3
2
2
0
0
0
0
0
0
0
0
0
0
0
0
0
0
0
0
0
0
0
0
0
0
0
0
3
3
2
2
0
0
0
0
0
0
0
0
0
0
0
0
0
0
0
0
0
0
0
0
0
0
0
0
3
3
2
2
0
0
0
0
0
0
0
0
0
0
0
0
0
0
0
0
0
0
0
0
0
0
0
0
3
3
2
2
0
0
0
0
0
0
0
0
0
0
0
0
0
0
0
0
0
0
0
0
0
0
0
0
3
3
2
2
0
0
0
0
0
0
0
0
0
0
0
0
0
0
0
0
0
0
0
0
0
0
0
0
3
3
2
2
0
0
0
0
0
0
0
0
0
0
0
0
0
0
0
0
0
0
0
0
0
0
0
0
3
3
2
2
0
0
0
0
0
0
0
0
0
0
0
0
0
0
0
0
0
0
0
0
0
0
0
0
3
3
2
2
0
0
0
0
0
0
0
0
0
0
0
0
0
0
0
0
0
0
0
0
0
0
0
0
3
3
2
2
0
0
0
0
0
0
0
0
0
0
0
0
0
0
0
0
0
0
0
0
0
0
0
0
3
3
2
2
0
0
0
0
0
0
0
0
0
0
0
0
0
0
0
0
0
0
0
0
0
0
0
0
3
3
2
2
0
0
0
0
0
0
0
0
0
0
0
0
0
0
0
0
0
0
0
0
0
0
0
0
3
3
2
2
0
0
0
0
0
0
0
0
0
0
0
0
0
0
0
0
0
0
0
0
0
0
0
0
3
3
2
2
0
0
0
0
0
0
0
0
0
0
0
0
0
0
0
0
0
0
0
0
0
0
0
0
3
3
2
2
0
0
0
0
0
0
0
0
0
0
0
0
0
0
0
0
0
0
0
0
0
0
0
0
3
3
2
2
0
0
0
0
0
0
0
0
0
0
0
0
0
0
0
0
0
0
0
0
0
0
0
0
3
3
2
2
2
2
2
2
2
2
2
2
2
2
2
2
2
2
2
2
2
2
2
2
2
2
2
2
3
3
2
2
2
2
2
2
2
2
2
2
2
2
2
2
2
2
2
2
2
2
2
2
2
2
2
2
3
3
3
3
3
3
3
3
3
3
3
3
3
3
3
3
3
3
3
3
3
3
3
3
3
3
3
3
3
3
3
3
3
3
3
3
3
3
3
3
3
3
3
3
3
3
3
3
3
3
3
3
3
3
3
3
</DataArray>
<DataArray NumberOfComponents='1' type='Float32' Name='Velocity' format='ascii'>
0.000000
0.000000
0.000000
0.000000
0.000000
0.000000
0.000000
0.000000
0.000000
0.000000
0.000000
0.000000
0.000000
0.000000
0.000000
0.000000
0.000000
0.000000
0.000000
0.000000
0.000000
0.000000
0.000000
0.000000
0.000000
0.000000
0.000000
0.000000
0.000000
0.000000
0.000000
0.000000
0.000000
0.000000
0.000000
0.000000
0.000000
0.000000
0.000000
0.000000
0.000000
0.000000
0.000000
0.000000
0.000000
0.000000
0.000000
0.000000
0.000000
0.000000
0.000000
0.000000
0.000000
0.000000
0.000000
0.000000
0.000000
0.000000
0.000000
0.000000
0.000000
0.000000
0.000000
0.000000
0.000000
0.000000
0.000000
0.000000
0.000000
0.000000
0.000000
0.000000
0.000000
0.000000
0.000000
0.000000
0.000000
0.000000
0.000000
0.000000
0.000000
0.000000
0.000000
0.000000
0.000000
0.000000
0.000000
0.000000
0.000000
0.000000
0.000000
0.000000
0.000000
0.000000
0.000000
0.000000
0.000000
0.000000
0.000000
0.000000
0.000000
0.000000
0.000000
0.000000
0.000000
0.000000
0.000000
0.000000
0.000000
0.000000
0.000000
0.000000
0.000000
0.000000
0.000000
0.000000
0.001551
0.005429
0.002706
0.008331
0.004562
0.013003
0.008156
0.018555
0.012954
0.025575
0.020128
0.032573
0.026159
0.046805
0.029133
0.061647
0.040923
0.081367
0.046220
0.072493
0.067079
0.141294
0.100000
0.100000
0.000000
0.000000
0.000000
0.000000
0.002279
0.005068
0.004357
0.006330
0.005373
0.006556
0.008083
0.007257
0.008909
0.008354
0.012847
0.009218
0.018010
0.012325
0.019895
0.010387
0.030431
0.004483
0.015115
0.010753
0.027193
0.075274
0.100000
0.100000
0.000000
0.000000
0.000000
0.000000
0.004389
0.003162
0.002886
0.005295
0.003379
0.007462
0.006025
0.008965
0.008062
0.010712
0.010816
0.010555
0.010127
0.018574
0.012205
0.018683
0.014784
0.017541
0.023135
0.037096
0.025041
0.089992
0.100000
0.100000
0.000000
0.000000
0.000000
0.000000
0.004184
0.000406
0.001946
0.004374
0.003189
0.004776
0.005216
0.006149
0.006605
0.008037
0.007981
0.006037
0.007699
0.009476
0.008936
0.017337
0.016676
0.013552
0.005249
0.008304
0.033066
0.049992
0.100000
0.100000
0.000000
0.000000
0.000000
0.000000
0.003831
0.003476
0.002049
0.005320
0.003923
0.005326
0.007412
0.006563
0.007431
0.009297
0.007345
0.014275
0.001334
0.021985
0.008764
0.014542
0.012028
0.019239
0.010308
0.019809
0.018312
0.065718
0.100000
0.100000
0.000000
0.000000
0.000000
0.000000
0.006675
0.001001
0.001045
0.004569
0.002188
0.005903
0.003129
0.008282
0.002282
0.010426
0.004077
0.008091
0.009930
0.002778
0.012893
0.012865
0.017180
0.006908
0.017852
0.023178
0.012882
0.035914
0.100000
0.100000
0.000000
0.000000
0.000000
0.000000
0.007601
0.003886
0.001949
0.006280
0.002100
0.007444
0.005320
0.007453
0.008236
0.003444
0.015287
0.003390
0.012662
0.010179
0.012548
0.005656
0.021543
0.013479
0.002735
0.039440
0.007305
0.038651
0.100000
0.100000
0.000000
0.000000
0.000000
0.000000
0.009999
0.003149
0.004931
0.004812
0.007095
0.004362
0.009508
0.002614
0.013566
0.005195
0.008308
0.009045
0.002557
0.010661
0.006153
0.019097
0.009157
0.027039
0.011121
0.036315
0.018082
0.032834
0.100000
0.100000
0.000000
0.000000
0.000000
0.000000
0.009477
0.002051
0.003636
0.003631
0.006845
0.002974
0.009619
0.003303
0.005722
0.011142
0.002761
0.013419
0.005254
0.018739
0.008114
0.012481
0.023193
0.006372
0.013472
0.027824
0.015470
0.022999
0.100000
0.100000
0.000000
0.000000
0.000000
0.000000
0.010861
0.001428
0.004230
0.004363
0.005284
0.006585
0.003706
0.010919
0.003542
0.008051
0.008228
0.006028
0.009866
0.003508
0.017825
0.006913
0.003130
0.027742
0.006701
0.035505
0.014538
0.023769
0.100000
0.100000
0.000000
0.000000
0.000000
0.000000
0.011694
0.001457
0.003020
0.005877
0.002361
0.008054
0.004564
0.004540
0.011002
0.001043
0.014172
0.003505
0.010612
0.020013
0.007507
0.029933
0.010156
0.019684
0.016204
0.028077
0.019443
0.020396
0.100000
0.100000
0.000000
0.000000
0.000000
0.000000
0.011400
0.004055
0.003490
0.005641
0.007202
0.003364
0.011473
0.003805
0.011095
0.005724
0.002761
0.017659
0.007214
0.019702
0.006385
0.013425
0.003953
0.028772
0.008856
0.034074
0.015839
0.023389
0.100000
0.100000
0.000000
0.000000
0.000000
0.000000
0.012198
0.004489
0.005974
0.005339
0.007744
0.004442
0.006329
0.008529
0.000984
0.014901
0.003913
0.010817
0.012313
0.010923
0.007335
0.025078
0.005231
0.017504
0.013524
0.027408
0.018765
0.019925
0.100000
0.100000
0.000000
0.000000
0.000000
0.000000
0.014529
0.004337
0.005680
0.009054
0.004909
0.011421
0.001911
0.010868
0.007169
0.005362
0.011321
0.006120
0.004894
0.021990
0.002486
0.020790
0.003137
0.033536
0.007515
0.035324
0.012986
0.026087
0.100000
0.100000
0.000000
0.000000
0.000000
0.000000
0.011839
0.005771
0.003702
0.008173
0.003860
0.006961
0.009119
0.007576
0.010999
0.009096
0.005521
0.018196
0.006136
0.016476
0.010106
0.023125
0.004401
0.018274
0.010308
0.024396
0.017836
0.022042
0.100000
0.100000
0.000000
0.000000
0.000000
0.000000
0.015432
0.004486
0.006398
0.009467
0.010991
0.009020
0.009610
0.009819
0.003470
0.011417
0.003942
0.007660
0.006706
0.016255
0.005834
0.021723
0.008623
0.028546
0.003936
0.034043
0.007076
0.027617
0.100000
0.100000
0.000000
0.000000
0.000000
0.000000
0.016769
0.005494
0.007581
0.007745
0.006084
0.009570
0.002862
0.009461
0.008193
0.008091
0.011115
0.014191
0.009024
0.018861
0.011304
0.020105
0.003886
0.020192
0.006520
0.022631
0.014219
0.025618
0.100000
0.100000
0.000000
0.000000
0.000000
0.000000
0.014100
0.007396
0.006431
0.011204
0.006783
0.008750
0.011316
0.008380
0.009885
0.009137
0.006033
0.008292
0.008637
0.012497
0.009504
0.020896
0.011021
0.024282
0.007927
0.032213
0.003814
0.026034
0.100000
0.100000
0.000000
0.000000
0.000000
0.000000
0.018723
0.001329
0.006361
0.010538
0.009814
0.012551
0.007807
0.009798
0.007421
0.008894
0.011565
0.011809
0.013045
0.016079
0.013796
0.015807
0.008478
0.016855
0.005327
0.020584
0.008785
0.028857
0.100000
0.100000
0.000000
0.000000
0.000000
0.000000
0.017994
0.007108
0.008786
0.004722
0.010266
0.008420
0.008398
0.010714
0.009075
0.010298
0.008720
0.006848
0.010006
0.010374
0.012855
0.015713
0.014058
0.021143
0.014836
0.028512
0.008827
0.022777
0.100000
0.100000
0.000000
0.000000
0.000000
0.000000
0.015294
0.007125
0.006797
0.014825
0.005304
0.008525
0.009687
0.007632
0.011419
0.008907
0.012276
0.010561
0.016390
0.010296
0.016606
0.013704
0.015801
0.012790
0.011519
0.020641
0.006054
0.029066
0.100000
0.100000
0.000000
0.000000
0.000000
0.000000
0.018353
0.000214
0.006646
0.007815
0.011106
0.016609
0.010317
0.012266
0.008407
0.008218
0.011726
0.005669
0.011473
0.009163
0.017210
0.008030
0.020550
0.019331
0.020702
0.023306
0.016076
0.020152
0.100000
0.100000
0.000000
0.000000
0.000000
0.000000
0.015685
0.008478
0.005392
0.006680
0.008717
0.005324
0.007538
0.013849
0.009864
0.015078
0.011523
0.011011
0.017834
0.006787
0.017977
0.016845
0.019570
0.010839
0.017660
0.022789
0.009867
0.026374
0.100000
0.100000
0.000000
0.000000
0.000000
0.000000
0.014486
0.005300
0.006423
0.015371
0.010141
0.012275
0.009734
0.005315
0.011379
0.007713
0.011985
0.012448
0.010656
0.011457
0.019668
0.005378
0.023461
0.021272
0.026024
0.020298
0.021846
0.019817
0.100000
0.100000
0.000000
0.000000
0.000000
0.000000
0.014139
0.005441
0.000713
0.008602
0.003086
0.017397
0.010807
0.020688
0.009654
0.013904
0.012959
0.005899
0.020949
0.008433
0.018338
0.017690
0.023113
0.007358
0.018526
0.022354
0.014265
0.020364
0.100000
0.100000
0.000000
0.000000
0.000000
0.000000
0.013606
0.005075
0.004651
0.009410
0.008655
0.006281
0.009698
0.011401
0.010778
0.018107
0.007135
0.021683
0.006719
0.007361
0.018129
0.010398
0.018792
0.024693
0.033484
0.022768
0.028268
0.023304
0.100000
0.100000
0.000000
0.000000
0.000000
0.000000
0.013913
0.007962
0.002568
0.010249
0.004282
0.016365
0.008384
0.012904
0.009963
0.007139
0.013905
0.007076
0.015722
0.019487
0.014902
0.013305
0.023880
0.008641
0.014967
0.016276
0.019498
0.012229
0.100000
0.100000
0.000000
0.000000
0.000000
0.000000
0.012770
0.005571
0.007495
0.011378
0.007045
0.011248
0.008168
0.019188
0.011688
0.021734
0.006709
0.014144
0.007392
0.008627
0.019670
0.014576
0.022528
0.021329
0.041623
0.020495
0.036643
0.024990
0.100000
0.100000
0.000000
0.000000
0.000000
0.000000
0.015069
0.003439
0.002180
0.008085
0.004949
0.015359
0.006785
0.012434
0.005427
0.013150
0.005627
0.023920
0.006982
0.028681
0.007102
0.009657
0.020333
0.011537
0.013066
0.015053
0.028157
0.009379
0.100000
0.100000
0.000000
0.000000
0.000000
0.000000
0.013336
0.003096
0.003929
0.004478
0.007068
0.005582
0.009145
0.016441
0.010936
0.014452
0.007266
0.000607
0.018374
0.007287
0.006901
0.029730
0.016700
0.028424
0.032858
0.023549
0.027047
0.025674
0.100000
0.100000
0.000000
0.000000
0.000000
0.000000
0.016219
0.004466
0.004137
0.007930
0.004398
0.012143
0.005453
0.008229
0.005588
0.018020
0.008953
0.026347
0.004887
0.010681
0.020647
0.013622
0.024462
0.017684
0.012126
0.013459
0.053444
0.008732
0.100000
0.100000
0.000000
0.000000
0.000000
0.000000
0.012412
0.004445
0.001907
0.002797
0.001680
0.006130
0.004904
0.015976
0.002816
0.009069
0.016603
0.010577
0.007893
0.037714
0.014716
0.041378
0.006367
0.036289
0.036830
0.043250
0.019899
0.035062
0.100000
0.100000
0.000000
0.000000
0.000000
0.000000
0.015071
0.000793
0.006497
0.002469
0.004485
0.005216
0.006678
0.003690
0.004954
0.017440
0.010439
0.009324
0.023070
0.020910
0.032998
0.016307
0.001977
0.058453
0.013710
0.009211
0.069307
0.012706
0.100000
0.100000
0.000000
0.000000
0.000000
0.000000
0.009306
0.001975
0.004416
0.002601
0.005993
0.006368
0.004941
0.012635
0.010421
0.002060
0.016860
0.022388
0.008746
0.039419
0.007778
0.008917
0.056873
0.032441
0.041686
0.057646
0.077646
0.010811
0.100000
0.100000
0.000000
0.000000
0.000000
0.000000
0.009752
0.003597
0.002618
0.002629
0.003454
0.002017
0.004363
0.004980
0.004971
0.013618
0.008038
0.010512
0.031338
0.020283
0.020806
0.077558
0.047822
0.051655
0.035991
0.056837
0.088025
0.083165
0.100000
0.100000
0.000000
0.000000
0.000000
0.000000
0.006299
0.002397
0.004112
0.002691
0.003868
0.004891
0.005034
0.007254
0.011140
0.001191
0.013788
0.011600
0.016854
0.009144
0.053667
0.018794
0.022162
0.051901
0.055776
0.068901
0.059650
0.034427
0.100000
0.100000
0.000000
0.000000
0.000000
0.000000
0.004975
0.004955
0.001994
0.002110
0.004633
0.002140
0.004093
0.002406
0.008342
0.005184
0.011516
0.011642
0.015752
0.010514
0.023099
0.019982
0.059283
0.031268
0.082507
0.014233
0.012343
0.190651
0.100000
0.100000
0.000000
0.000000
0.000000
0.000000
0.002811
0.005572
0.003619
0.006057
0.005124
0.008288
0.002755
0.012597
0.009690
0.004699
0.026134
0.007181
0.013127
0.027211
0.006713
0.040652
0.029745
0.049916
0.028971
0.044229
0.030173
0.141018
0.100000
0.100000
0.000000
0.000000
0.000000
0.000000
0.003930
0.002378
0.002769
0.005299
0.005729
0.007292
0.005630
0.015727
0.004183
0.017946
0.008632
0.039502
0.026621
0.031359
0.016073
0.039521
0.063568
0.042980
0.089002
0.110674
0.106867
0.034544
0.100000
0.100000
0.000000
0.000000
0.000000
0.000000
0.005993
0.005095
0.008299
0.003942
0.014106
0.006210
0.020175
0.011375
0.028267
0.010836
0.048574
0.015853
0.060318
0.008419
0.053020
0.047063
0.024130
0.082982
0.086981
0.127202
0.176533
0.264942
0.380149
0.100000
0.000000
0.000000
0.000000
0.000000
0.000000
0.000000
0.000000
0.000000
0.000000
0.000000
0.000000
0.000000
0.000000
0.000000
0.000000
0.000000
0.000000
0.000000
0.000000
0.000000
0.000000
0.000000
0.000000
0.000000
0.000000
0.000000
0.000000
0.000000
0.000000
0.000000
0.000000
0.000000
0.000000
0.000000
0.000000
0.000000
0.000000
0.000000
0.000000
0.000000
0.000000
0.000000
0.000000
0.000000
0.000000
0.000000
0.000000
0.000000
0.000000
0.000000
0.000000
0.000000
0.000000
0.000000
0.000000
0.000000
0.000000
0.000000
0.000000
0.000000
0.000000
0.000000
0.000000
0.000000
0.000000
0.000000
0.000000
0.000000
0.000000
0.000000
0.000000
0.000000
0.000000
0.000000
0.000000
0.000000
0.000000
0.000000
0.000000
0.000000
0.000000
0.000000
0.000000
0.000000
0.000000
0.000000
0.000000
0.000000
0.000000
0.000000
0.000000
0.000000
0.000000
0.000000
0.000000
0.000000
0.000000
0.000000
0.000000
0.000000
0.000000
0.000000
0.000000
0.000000
0.000000
0.000000
0.000000
0.000000
0.000000
0.000000
0.000000
0.000000
</DataArray>
<DataArray NumberOfComponents='1' type='Float32' Name='pressure' format='ascii'>
0.000000
0.000000
0.000000
0.000000
0.000000
0.000000
0.000000
0.000000
0.000000
0.000000
0.000000
0.000000
0.000000
0.000000
0.000000
0.000000
0.000000
0.000000
0.000000
0.000000
0.000000
0.000000
0.000000
0.000000
0.000000
0.000000
0.000000
0.000000
0.000000
0.000000
0.000000
0.000000
0.000000
0.000000
0.000000
0.000000
0.000000
0.000000
0.000000
0.000000
0.000000
0.000000
0.000000
0.000000
0.000000
0.000000
0.000000
0.000000
0.000000
0.000000
0.000000
0.000000
0.000000
0.000000
0.000000
0.000000
0.000000
0.000000
5674.625488
5631.969727
5573.668457
5308.950684
5147.465820
4866.070312
4668.540039
4401.576660
4189.472168
3936.811035
3722.076660
3464.933594
3241.843506
3016.924805
2765.724121
2530.660156
2325.329346
2054.158203
1756.263916
1647.650513
1143.112549
1312.536987
1096.509766
1401.826172
694.827759
0.000000
0.000000
0.000000
5703.695801
5723.267090
5646.894531
5321.732910
5157.018555
4855.883301
4668.352539
4388.437012
4179.772949
3929.854004
3707.289062
3450.387451
3228.118408
3009.352051
2724.372314
2554.459717
2270.892334
2096.700684
1713.808105
1605.734863
1205.919067
1354.985352
655.539551
588.398560
0.000000
0.000000
0.000000
0.000000
5745.908691
5759.076660
5584.912598
5275.625977
5080.895020
4785.063477
4571.328125
4296.396973
4056.103516
3804.749268
3540.564209
3317.042969
3036.298096
2820.659912
2529.910645
2355.235107
1978.566528
1913.211426
1496.344482
1420.544678
851.313171
830.477295
577.726318
0.000000
0.000000
0.000000
0.000000
0.000000
5809.093750
5853.109863
5609.499512
5353.673340
5132.707031
4862.595215
4657.504395
4387.729980
4167.254883
3927.880127
3681.552734
3455.664795
3191.009766
3002.422852
2683.978271
2539.546631
2199.035400
2061.599609
1684.393311
1505.566772
1303.381958
1104.231689
552.231628
579.674866
479.026855
0.000000
0.000000
0.000000
5808.491211
5836.641113
5549.001465
5312.792480
5073.235352
4794.703613
4589.439453
4287.765625
4092.561768
3792.864014
3583.078125
3315.376953
3077.116943
2835.885742
2567.018555
2394.852539
2031.530273
1947.068359
1563.206055
1406.745972
1054.994385
922.098328
726.807556
295.574707
278.149353
0.000000
0.000000
0.000000
5842.444336
5879.688965
5582.617676
5371.727051
5123.138184
4850.316895
4667.839355
4345.965820
4196.356934
3865.215088
3708.344238
3396.970459
3192.707275
2959.513916
2651.114014
2518.549072
2111.382568
2055.725098
1613.806396
1546.544678
1148.894775
1015.124268
707.653320
400.337738
392.226257
0.000000
0.000000
0.000000
5842.166016
5870.445801
5517.983887
5350.853027
5051.339355
4816.005859
4591.614746
4295.164062
4103.177734
3808.263184
3589.192383
3347.291260
3075.750732
2884.896729
2557.444336
2449.058105
2062.460938
1948.838745
1607.906372
1452.977661
1155.898560
863.581665
782.791443
313.865479
245.865616
0.000000
0.000000
0.000000
5863.609375
5896.867188
5544.251465
5398.334961
5079.334961
4881.643066
4619.513184
4382.028320
4138.778320
3906.850586
3642.622314
3427.144287
3146.990723
2941.604492
2675.663330
2411.519287
2198.355469
1946.615112
1706.432251
1395.208374
1331.370850
922.442139
731.430420
413.487457
417.639099
0.000000
0.000000
0.000000
5843.129883
5869.405762
5513.708496
5366.294434
5036.890625
4852.649902
4557.967285
4349.861816
4070.656982
3847.843750
3593.383057
3342.490479
3139.168457
2830.568604
2652.152832
2412.679932
2126.989502
1918.395386
1699.156616
1389.042969
1152.817871
921.396423
847.708069
314.184021
491.036346
0.000000
0.000000
0.000000
5866.151367
5904.261230
5532.429688
5400.652832
5063.319824
4887.166504
4603.149414
4375.974121
4139.395508
3868.670166
3676.421143
3372.042480
3162.470947
2952.371582
2616.941895
2463.072266
2164.359375
1947.865479
1675.807007
1478.710449
1316.737305
888.630188
817.939087
440.465088
342.457397
0.000000
0.000000
0.000000
5852.615723
5884.919434
5506.974121
5376.039551
5032.648438
4858.745117
4570.786133
4339.119629
4105.235352
3845.377441
3590.967529
3408.570312
3071.761963
2919.655029
2616.468506
2429.756836
2139.866943
1923.166870
1742.954224
1338.419922
1249.141235
906.825684
850.521912
391.291504
512.583435
0.000000
0.000000
0.000000
5842.498047
5868.995605
5540.971680
5390.173340
5054.213379
4892.468262
4581.216797
4397.436035
4085.334473
3925.367188
3603.164062
3409.738770
3156.558838
2907.582520
2671.160645
2419.393555
2229.209229
1877.572998
1747.831909
1438.341797
1339.119629
902.790527
850.242371
468.420197
426.121857
0.000000
0.000000
0.000000
5823.035645
5839.360352
5529.693848
5363.217285
5040.321289
4873.424316
4549.123535
4387.773438
4072.548828
3870.658936
3625.544189
3344.288818
3163.181152
2862.967041
2665.650635
2407.282471
2136.842773
1953.397827
1735.236084
1351.995483
1269.430908
906.268616
898.704285
422.500732
449.285889
0.000000
0.000000
0.000000
5839.214844
5876.428223
5551.574219
5372.882812
5062.072754
4878.802734
4590.150391
4363.485352
4137.697754
3846.314697
3664.999268
3381.116211
3146.103516
2936.089600
2628.202637
2471.918213
2199.935547