<?xml version='1.0' encoding='UTF-8'?>
<VTKFile xmlns='VTK' byte_order='LittleEndian' version='0.1' type='UnstructuredGrid'>
<UnstructuredGrid>
<Piece NumberOfCells='1344' NumberOfPoints='1344'>
<Points>
<DataArray NumberOfComponents='3' type='Float32' Name='Position' format='ascii'>
-0.075000 -0.075000 0.000000
-0.075000 -0.050000 0.000000
-0.075000 -0.025000 0.000000
-0.075000 0.000000 0.000000
-0.075000 0.025000 0.000000
-0.075000 0.050000 0.000000
-0.075000 0.075000 0.000000
-0.075000 0.100000 0.000000
-0.075000 0.125000 0.000000
-0.075000 0.150000 0.000000
-0.075000 0.175000 0.000000
-0.075000 0.200000 0.000000
-0.075000 0.225000 0.000000
-0.075000 0.250000 0.000000
-0.075000 0.275000 0.000000
-0.075000 0.300000 0.000000
-0.075000 0.325000 0.000000
-0.075000 0.350000 0.000000
-0.075000 0.375000 0.000000
-0.075000 0.400000 0.000000
-0.075000 0.425000 0.000000
-0.075000 0.450000 0.000000
-0.075000 0.475000 0.000000
-0.075000 0.500000 0.000000
-0.075000 0.525000 0.000000
-0.075000 0.550000 0.000000
-0.075000 0.575000 0.000000
-0.075000 0.600000 0.000000
-0.050000 -0.075000 0.000000
-0.050000 -0.050000 0.000000
-0.050000 -0.025000 0.000000
-0.050000 0.000000 0.000000
-0.050000 0.025000 0.000000
-0.050000 0.050000 0.000000
-0.050000 0.075000 0.000000
-0.050000 0.100000 0.000000
-0.050000 0.125000 0.000000
-0.050000 0.150000 0.000000
-0.050000 0.175000 0.000000
-0.050000 0.200000 0.000000
-0.050000 0.225000 0.000000
-0.050000 0.250000 0.000000
-0.050000 0.275000 0.000000
-0.050000 0.300000 0.000000
-0.050000 0.325000 0.000000
-0.050000 0.350000 0.000000
-0.050000 0.375000 0.000000
-0.050000 0.400000 0.000000
-0.050000 0.425000 0.000000
-0.050000 0.450000 0.000000
-0.050000 0.475000 0.000000
-0.050000 0.500000 0.000000
-0.050000 0.525000 0.000000
-0.050000 0.550000 0.000000
-0.050000 0.575000 0.000000
-0.050000 0.600000 0.000000
-0.025000 -0.075000 0.000000
-0.025000 -0.050000 0.000000
-0.025000 -0.025000 0.000000
-0.025000 0.000000 0.000000
-0.025000 0.025000 0.000000
-0.025000 0.050000 0.000000
-0.025000 0.075000 0.000000
-0.025000 0.100000 0.000000
-0.025000 0.125000 0.000000
-0.025000 0.150000 0.000000
-0.025000 0.175000 0.000000
-0.025000 0.200000 0.000000
-0.025000 0.225000 0.000000
-0.025000 0.250000 0.000000
-0.025000 0.275000 0.000000
-0.025000 0.300000 0.000000
-0.025000 0.325000 0.000000
-0.025000 0.350000 0.000000
-0.025000 0.375000 0.000000
-0.025000 0.400000 0.000000
-0.025000 0.425000 0.000000
-0.025000 0.450000 0.000000
-0.025000 0.475000 0.000000
-0.025000 0.500000 0.000000
-0.025000 0.525000 0.000000
-0.025000 0.550000 0.000000
-0.025000 0.575000 0.000000
-0.025000 0.600000 0.000000
0.000000 -0.075000 0.000000
0.000000 -0.050000 0.000000
0.000000 -0.025000 0.000000
0.000000 0.000000 0.000000
0.000000 0.025000 0.000000
0.000000 0.050000 0.000000
0.000000 0.075000 0.000000
0.000000 0.100000 0.000000
0.000000 0.125000 0.000000
0.000000 0.150000 0.000000
0.000000 0.175000 0.000000
0.000000 0.200000 0.000000
0.000000 0.225000 0.000000
0.000000 0.250000 0.000000
0.000000 0.275000 0.000000
0.000000 0.300000 0.000000
0.000000 0.325000 0.000000
0.000000 0.350000 0.000000
0.000000 0.375000 0.000000
0.000000 0.400000 0.000000
0.000000 0.425000 0.000000
0.000000 0.450000 0.000000
0.000000 0.475000 0.000000
0.000000 0.500000 0.000000
0.000000 0.525000 0.000000
0.000000 0.550000 0.000000
0.000000 0.575000 0.000000
0.000000 0.600000 0.000000
0.025000 -0.075000 0.000000
0.025000 -0.050000 0.000000
0.025000 -0.025000 0.000000
0.025000 0.000000 0.000000
0.036249 0.021138 0.000000
0.058792 0.035034 0.000000
0.022044 0.038374 0.000000
0.023138 0.116006 0.000000
0.051044 0.186568 0.000000
0.076585 0.269378 0.000000
0.024135 0.208742 0.000000
0.051010 0.247218 0.000000
0.025527 0.255782 0.000000
0.022852 0.282333 0.000000
0.026844 0.357083 0.000000
0.021260 0.406494 0.000000
0.022725 0.439189 0.000000
0.025441 0.471735 0.000000
0.025185 0.495755 0.000000
0.022604 0.546034 0.000000
0.043557 0.558666 0.000000
0.068727 0.560139 0.000000
0.084637 0.579024 0.000000
0.050714 0.584401 0.000000
0.036329 0.600000 0.000000
0.015229 0.600000 0.000000
0.140818 0.600000 0.000000
0.160117 0.600000 0.000000
0.050000 -0.075000 0.000000
0.050000 -0.050000 0.000000
0.050000 -0.025000 0.000000
0.050000 0.000000 0.000000
0.077668 0.024280 0.000000
0.067280 0.055640 0.000000
0.023183 0.071204 0.000000
0.031730 0.094920 0.000000
0.023923 0.145885 0.000000
0.023419 0.179562 0.000000
0.087890 0.248877 0.000000
0.049973 0.270887 0.000000
0.031945 0.303164 0.000000
0.042542 0.335926 0.000000
0.021852 0.326275 0.000000
0.026675 0.378681 0.000000
0.044307 0.428511 0.000000
0.041052 0.455721 0.000000
0.047329 0.493640 0.000000
0.023748 0.522510 0.000000
0.052603 0.535046 0.000000
0.087333 0.515225 0.000000
0.024158 0.577409 0.000000
0.080297 0.600000 0.000000
0.100418 0.600000 0.000000
0.060315 0.600000 0.000000
0.171180 0.579723 0.000000
0.179844 0.600000 0.000000
0.075000 -0.075000 0.000000
0.075000 -0.050000 0.000000
0.075000 -0.025000 0.000000
0.075000 0.000000 0.000000
0.107881 0.052062 0.000000
0.039999 0.058781 0.000000
0.056049 0.082118 0.000000
0.044075 0.134730 0.000000
0.067588 0.232456 0.000000
0.047969 0.214568 0.000000
0.100367 0.231413 0.000000
0.026326 0.232198 0.000000
0.056682 0.292399 0.000000
0.058006 0.314702 0.000000
0.084888 0.340919 0.000000
0.062892 0.348640 0.000000
0.050030 0.370413 0.000000
0.045088 0.400729 0.000000
0.065716 0.452396 0.000000
0.064437 0.476817 0.000000
0.112495 0.508836 0.000000
0.107655 0.533774 0.000000
0.080644 0.537946 0.000000
0.099867 0.557383 0.000000
0.113215 0.579891 0.000000
0.120582 0.600000 0.000000
0.199842 0.600000 0.000000
0.219305 0.600000 0.000000
0.100000 -0.075000 0.000000
0.100000 -0.050000 0.000000
0.100000 -0.025000 0.000000
0.100000 0.000000 0.000000
0.127285 0.059622 0.000000
0.066170 0.140149 0.000000
0.068915 0.171581 0.000000
0.051880 0.110939 0.000000
0.069509 0.206091 0.000000
0.039438 0.166066 0.000000
0.124852 0.290063 0.000000
0.123034 0.259977 0.000000
0.099616 0.273466 0.000000
0.081099 0.313404 0.000000
0.103075 0.361763 0.000000
0.074792 0.372025 0.000000
0.065181 0.420696 0.000000
0.089889 0.412737 0.000000
0.086939 0.445661 0.000000
0.093106 0.470213 0.000000
0.056197 0.515839 0.000000
0.080425 0.492922 0.000000
0.134118 0.531551 0.000000
0.170192 0.539605 0.000000
0.126620 0.555454 0.000000
0.143580 0.577664 0.000000
0.229676 0.578631 0.000000
0.239153 0.600000 0.000000
0.125000 -0.075000 0.000000
0.125000 -0.050000 0.000000
0.125000 -0.025000 0.000000
0.125000 0.000000 0.000000
0.103557 0.085550 0.000000
0.088047 0.059645 0.000000
0.083855 0.150896 0.000000
0.118166 0.211301 0.000000
0.093152 0.206405 0.000000
0.144314 0.213407 0.000000
0.125610 0.235653 0.000000
0.114236 0.311656 0.000000
0.091043 0.294068 0.000000
0.105573 0.332048 0.000000
0.096710 0.385153 0.000000
0.068480 0.396461 0.000000
0.123071 0.415533 0.000000
0.104481 0.429761 0.000000
0.128125 0.441197 0.000000
0.117966 0.461623 0.000000
0.112422 0.486016 0.000000
0.138290 0.502037 0.000000
0.155667 0.519260 0.000000
0.185404 0.557665 0.000000
0.201282 0.577477 0.000000
0.151712 0.553237 0.000000
0.257812 0.576685 0.000000
0.258306 0.600000 0.000000
0.150000 -0.075000 0.000000
0.150000 -0.050000 0.000000
0.150000 -0.025000 0.000000
0.150000 0.000000 0.000000
0.101893 0.024372 0.000000
0.132796 0.083325 0.000000
0.105911 0.106694 0.000000
0.077263 0.087338 0.000000
0.088668 0.182492 0.000000
0.113005 0.175758 0.000000
0.131059 0.191178 0.000000
0.151114 0.237468 0.000000
0.141870 0.266680 0.000000
0.143365 0.300239 0.000000
0.125357 0.360494 0.000000
0.118345 0.390255 0.000000
0.141176 0.385408 0.000000
0.148797 0.409608 0.000000
0.172725 0.403793 0.000000
0.156702 0.431184 0.000000
0.150250 0.454570 0.000000
0.139738 0.476662 0.000000
0.182229 0.512662 0.000000
0.209078 0.511530 0.000000
0.198454 0.534628 0.000000
0.215097 0.555060 0.000000
0.276895 0.600000 0.000000
0.296634 0.600000 0.000000
0.175000 -0.075000 0.000000
0.175000 -0.050000 0.000000
0.175000 -0.025000 0.000000
0.175000 0.000000 0.000000
0.125897 0.025624 0.000000
0.151138 0.069436 0.000000
0.132795 0.106354 0.000000
0.095778 0.128752 0.000000
0.120784 0.127593 0.000000
0.111505 0.154871 0.000000
0.150532 0.174409 0.000000
0.164788 0.150459 0.000000
0.165328 0.193880 0.000000
0.172662 0.213253 0.000000
0.168361 0.260966 0.000000
0.131876 0.329794 0.000000
0.143326 0.348643 0.000000
0.191281 0.381876 0.000000
0.192558 0.414464 0.000000
0.179505 0.438226 0.000000
0.193484 0.463027 0.000000
0.170419 0.468811 0.000000
0.162865 0.492586 0.000000
0.190073 0.489044 0.000000
0.234397 0.506141 0.000000
0.226271 0.532235 0.000000
0.313176 0.576538 0.000000
0.316263 0.600000 0.000000
0.200000 -0.075000 0.000000
0.200000 -0.050000 0.000000
0.200000 -0.025000 0.000000
0.200000 0.000000 0.000000
0.161898 0.022002 0.000000
0.143124 0.037720 0.000000
0.165884 0.090583 0.000000
0.074925 0.110784 0.000000
0.180035 0.132242 0.000000
0.135647 0.154709 0.000000
0.225909 0.109998 0.000000
0.246194 0.129064 0.000000
0.180484 0.168313 0.000000
0.175850 0.239440 0.000000
0.162462 0.284502 0.000000
0.182300 0.303660 0.000000
0.162430 0.315842 0.000000
0.166068 0.338760 0.000000
0.161453 0.377629 0.000000
0.211212 0.396847 0.000000
0.201982 0.439688 0.000000
0.213891 0.485809 0.000000
0.244261 0.483853 0.000000
0.261340 0.508817 0.000000
0.252635 0.531044 0.000000
0.241858 0.554523 0.000000
0.340641 0.576236 0.000000
0.335500 0.600000 0.000000
0.225000 -0.075000 0.000000
0.225000 -0.050000 0.000000
0.225000 -0.025000 0.000000
0.225000 0.000000 0.000000
0.190635 0.024466 0.000000
0.173814 0.044461 0.000000
0.160675 0.113114 0.000000
0.149192 0.132511 0.000000
0.213638 0.065734 0.000000
0.188383 0.089184 0.000000
0.250723 0.158182 0.000000
0.206705 0.128812 0.000000
0.203087 0.154160 0.000000
0.193337 0.187466 0.000000
0.194709 0.264044 0.000000
0.210160 0.310544 0.000000
0.187666 0.333366 0.000000
0.201711 0.352179 0.000000
0.178237 0.363510 0.000000
[...]
<PointData>
<DataArray NumberOfComponents='1' type='Int32' Name='ParticleType' format='ascii'>
3
3
3
3
3
3
3
3
3
3
3
3
3
3
3
3
3
3
3
3
3
3
3
3
3
3
3
3
3
3
3
3
3
3
3
3
3
3
3
3
3
3
3
3
3
3
3
3
3
3
3
3
3
3
3
3
3
3
2
2
2
2
2
2
2
2
2
2
2
2
2
2
2
2
2
2
2
2
2
2
2
2
2
2
3
3
2
2
2
2
2
2
2
2
2
2
2
2
2
2
2
2
2
2
2
2
2
2
2
2
2
2
3
3
2
2
0
0
0
0
0
0
0
0
0
0
0
0
0
0
0
0
0
0
0
0
0
0
0
0
3
3
2
2
0
0
0
0
0
0
0
0
0
0
0
0
0
0
0
0
0
0
0
0
0
0
0
0
3
3
2
2
0
0
0
0
0
0
0
0
0
0
0
0
0
0
0
0
0
0
0
0
0
0
0
0
3
3
2
2
0
0
0
0
0
0
0
0
0
0
0
0
0
0
0
0
0
0
0
0
0
0
0
0
3
3
2
2
0
0
0
0
0
0
0
0
0
0
0
0
0
0
0
0
0
0
0
0
0
0
0
0
3
3
2
2
0
0
0
0
0
0
0
0
0
0
0
0
0
0
0
0
0
0
0
0
0
0
0
0
3
3
2
2
0
0
0
0
0
0
0
0
0
0
0
0
0
0
0
0
0
0
0
0
0
0
0
0
3
3
2
2
0
0
0
0
0
0
0
0
0
0
0
0
0
0
0
0
0
0
0
0
0
0
0
0
3
3
2
2
0
0
0
0
0
0
0
0
0
0
0
0
0
0
0
0
0
0
0
0
0
0
0
0
3
3
2
2
0
0
0
0
0
0
0
0
0
0
0
0
0
0
0
0
0
0
0
0
0
0
0
0
3
3
2
2
0
0
0
0
0
0
0
0
0
0
0
0
0
0
0
0
0
0
0
0
0
0
0
0
3
3
2
2
0
0
0
0
0
0
0
0
0
0
0
0
0
0
0
0
0
0
0
0
0
0
0
0
3
3
2
2
0
0
0
0
0
0
0
0
0
0
0
0
0
0
0
0
0
0
0
0
0
0
0
0
3
3
2
2
0
0
0
0
0
0
0
0
0
0
0
0
0
0
0
0
0
0
0
0
0
0
0
0
3
3
2
2
0
0
0
0
0
0
0
0
0
0
0
0
0
0
0
0
0
0
0
0
0
0
0
0
3
3
2
2
0
0
0
0
0
0
0
0
0
0
0
0
0
0
0
0
0
0
0
0
0
0
0
0
3
3
2
2
0
0
0
0
0
0
0
0
0
0
0
0
0
0
0
0
0
0
0
0
0
0
0
0
3
3
2
2
0
0
0
0
0
0
0
0
0
0
0
0
0
0
0
0
0
0
0
0
0
0
0
0
3
3
2
2
0
0
0
0
0
0
0
0
0
0
0
0
0
0
0
0
0
0
0
0
0
0
0
0
3
3
2
2
0
0
0
0
0
0
0
0
0
0
0
0
0
0
0
0
0
0
0
0
0
0
0
0
3
3
2
2
0
0
0
0
0
0
0
0
0
0
0
0
0
0
0
0
0
0
0
0
0
0
0
0
3
3
2
2
0
0
0
0
0
0
0
0
0
0
0
0
0
0
0
0
0
0
0
0
0
0
0
0
3
3
2
2
0
0
0
0
0
0
0
0
0
0
0
0
0
0
0
0
0
0
0
0
0
0
0
0
3
3
2
2
0
0
0
0
0
0
0
0
0
0
0
0
0
0
0
0
0
0
0
0
0
0
0
0
3
3
2
2
0
0
0
0
0
0
0
0
0
0
0
0
0
0
0
0
0
0
0
0
0
0
0
0
3
3
2
2
0
0
0
0
0
0
0
0
0
0
0
0
0
0
0
0
0
0
0
0
0
0
0
0
3
3
2
2
0
0
0
0
0
0
0
0
0
0
0
0
0
0
0
0
0
0
0
0
0
0
0
0
3
3
2
2
0
0
0
0
0
0
0
0
0
0
0
0
0
0
0
0
0
0
0
0
0
0
0
0
3
3
2
2
0
0
0
0
0
0
0
0
0
0
0
0
0
0
0
0
0
0
0
0
0
0
0
0
3
3
2
2
0
0
0
0
0
0
0
0
0
0
0
0
0
0
0
0
0
0
0
0
0
0
0
0
3
3
2
2
0
0
0
0
0
0
0
0
0
0
0
0
0
0
0
0
0
0
0
0
0
0
0
0
3
3
2
2
0
0
0
0
0
0
0
0
0
0
0
0
0
0
0
0
0
0
0
0
0
0
0
0
3
3
2
2
0
0
0
0
0
0
0
0
0
0
0
0
0
0
0
0
0
0
0
0
0
0
0
0
3
3
2
2
0
0
0
0
0
0
0
0
0
0
0
0
0
0
0
0
0
0
0
0
0
0
0
0
3
3
2
2
0
0
0
0
0
0
0
0
0
0
0
0
0
0
0
0
0
0
0
0
0
0
0
0
3
3
2
2
0
0
0
0
0
0
0
0
0
0
0
0
0
0
0
0
0
0
0
0
0
0
0
0
3
3
2
2
0
0
0
0
0
0
0
0
0
0
0
0
0
0
0
0
0
0
0
0
0
0
0
0
3
3
2
2
0
0
0
0
0
0
0
0
0
0
0
0
0
0
0
0
0
0
0
0
0
0
0
0
3
3
2
2
0
0
0
0
0
0
0
0
0
0
0
0
0
0
0
0
0
0
0
0
0
0
0
0
3
3
2
2
0
0
0
0
0
0
0
0
0
0
0
0
0
0
0
0
0
0
0
0
0
0
0
0
3
3
2
2
2
2
2
2
2
2
2
2
2
2
2
2
2
2
2
2
2
2
2
2
2
2
2
2
3
3
2
2
2
2
2
2
2
2
2
2
2
2
2
2
2
2
2
2
2
2
2
2
2
2
2
2
3
3
3
3
3
3
3
3
3
3
3
3
3
3
3
3
3
3
3
3
3
3
3
3
3
3
3
3
3
3
3
3
3
3
3
3
3
3
3
3
3
3
3
3
3
3
3
3
3
3
3
3
3
3
3
3
</DataArray>
<DataArray NumberOfComponents='1' type='Float32' Name='Velocity' format='ascii'>
0.000000
0.000000
0.000000
0.000000
0.000000
0.000000
0.000000
0.000000
0.000000
0.000000
0.000000
0.000000
0.000000
0.000000
0.000000
0.000000
0.000000
0.000000
0.000000
0.000000
0.000000
0.000000
0.000000
0.000000
0.000000
0.000000
0.000000
0.000000
0.000000
0.000000
0.000000
0.000000
0.000000
0.000000
0.000000
0.000000
0.000000
0.000000
0.000000
0.000000
0.000000
0.000000
0.000000
0.000000
0.000000
0.000000
0.000000
0.000000
0.000000
0.000000
0.000000
0.000000
0.000000
0.000000
0.000000
0.000000
0.000000
0.000000
0.000000
0.000000
0.000000
0.000000
0.000000
0.000000
0.000000
0.000000
0.000000
0.000000
0.000000
0.000000
0.000000
0.000000
0.000000
0.000000
0.000000
0.000000
0.000000
0.000000
0.000000
0.000000
0.000000
0.000000
0.000000
0.000000
0.000000
0.000000
0.000000
0.000000
0.000000
0.000000
0.000000
0.000000
0.000000
0.000000
0.000000
0.000000
0.000000
0.000000
0.000000
0.000000
0.000000
0.000000
0.000000
0.000000
0.000000
0.000000
0.000000
0.000000
0.000000
0.000000
0.000000
0.000000
0.000000
0.000000
0.000000
0.000000
0.071562
0.035212
0.115969
0.091276
0.029799
0.358945
0.085057
0.214274
0.057357
0.429761
0.296069
0.350231
0.254527
0.073585
0.097501
0.195861
0.247726
0.122148
0.100000
0.100000
0.100000
0.100000
0.100000
0.100000
0.000000
0.000000
0.000000
0.000000
0.052240
0.053146
0.098652
0.280819
0.057348
0.098410
0.010409
0.099834
0.500118
0.235571
0.365209
0.234986
0.387175
0.113972
0.186398
0.285248
0.149787
0.118045
0.100000
0.100000
0.100000
0.100000
0.100000
0.100000
0.000000
0.000000
0.000000
0.000000
0.109791
0.236000
0.142685
0.100290
0.207817
0.145375
0.030352
0.214024
0.248254
0.202771
0.041884
0.188662
0.311178
0.245446
0.103715
0.057117
0.200196
0.115760
0.084828
0.308279
0.100000
0.100000
0.100000
0.100000
0.000000
0.000000
0.000000
0.000000
0.054762
0.324154
0.019392
0.224732
0.065595
0.075934
0.500499
0.294276
0.099121
0.272639
0.452732
0.052738
0.296967
0.335517
0.150478
0.143473
0.347724
0.219328
0.099819
0.323173
0.023817
0.100000
0.100000
0.100000
0.000000
0.000000
0.000000
0.000000
0.116177
0.088029
0.033509
0.002061
0.046164
0.163872
0.258831
0.572631
0.214920
0.323174
0.312070
0.247193
0.192063
0.011382
0.451241
0.289066
0.461601
0.336046
0.148777
0.275674
0.100000
0.112958
0.100000
0.100000
0.000000
0.000000
0.000000
0.000000
0.033148
0.174718
0.096618
0.212646
0.281827
0.323746
0.022238
0.324906
0.039565
0.340859
0.325148
0.261017
0.166013
0.246012
0.406042
0.065008
0.206603
0.164936
0.088228
0.188232
0.145093
0.083444
0.100000
0.100000
0.000000
0.000000
0.000000
0.000000
0.139283
0.289579
0.172185
0.294560
0.065104
0.119503
0.052825
0.288999
0.047515
0.143443
0.300492
0.307548
0.104007
0.170376
0.317484
0.021106
0.171109
0.199251
0.070348
0.189373
0.090199
0.208050
0.100000
0.100000
0.000000
0.000000
0.000000
0.000000
0.075301
0.210496
0.303644
0.059174
0.224283
0.432375
0.018424
0.223675
0.170474
0.116933
0.159891
0.184730
0.190235
0.283872
0.276312
0.246812
0.164043
0.051548
0.062128
0.063851
0.127670
0.244326
0.100000
0.100000
0.000000
0.000000
0.000000
0.000000
0.145197
0.133482
0.032288
0.182392
0.203897
0.064462
0.209498
0.089472
0.218070
0.101314
0.250299
0.215061
0.321368
0.167576
0.201853
0.224109
0.231598
0.163488
0.137677
0.313931
0.356548
0.142274
0.100000
0.100000
0.000000
0.000000
0.000000
0.000000
0.020660
0.143047
0.093376
0.262127
0.229142
0.097283
0.174219
0.237919
0.180931
0.057688
0.175682
0.306246
0.281073
0.180058
0.094822
0.052839
0.097391
0.135577
0.187326
0.078686
0.097292
0.147235
0.100000
0.100000
0.000000
0.000000
0.000000
0.000000
0.078755
0.098727
0.252337
0.122828
0.067601
0.195961
0.179218
0.164310
0.225853
0.135660
0.218974
0.163664
0.181382
0.216214
0.131518
0.088098
0.100816
0.187117
0.134849
0.442544
0.118562
0.100000
0.100000
0.100000
0.000000
0.000000
0.000000
0.000000
0.079978
0.080166
0.139502
0.187215
0.224204
0.075993
0.061847
0.061115
0.233470
0.065353
0.130286
0.177357
0.171294
0.259714
0.095451
0.274221
0.064743
0.157706
0.168128
0.300931
0.612640
0.209101
0.100000
0.100000
0.000000
0.000000
0.000000
0.000000
0.063058
0.172625
0.070607
0.050135
0.114818
0.015130
0.271838
0.126401
0.255703
0.161197
0.149022
0.197652
0.059156
0.226838
0.059131
0.204710
0.195113
0.160039
0.143039
0.373572
0.548437
0.531549
0.100000
0.100000
0.000000
0.000000
0.000000
0.000000
0.042214
0.155614
0.067570
0.327065
0.096326
0.081599
0.134452
0.129748
0.395259
0.174672
0.346148
0.261273
0.267716
0.089602
0.162953
0.139331
0.202768
0.151901
0.388385
0.085849
0.170269
0.100000
0.100000
0.100000
0.000000
0.000000
0.000000
0.000000
0.034570
0.276542
0.116906
0.137414
0.192723
0.064900
0.157632
0.298239
0.118816
0.197924
0.113306
0.125054
0.279814
0.213886
0.283642
0.117496
0.059115
0.134984
0.082882
0.202114
0.133697
0.442579
0.100000
0.100000
0.000000
0.000000
0.000000
0.000000
0.070283
0.082950
0.136172
0.037595
0.101390
0.422882
0.316201
0.076065
0.068148
0.217524
0.141175
0.049891
0.157328
0.283774
0.210597
0.256354
0.069266
0.138290
0.058199
0.200007
0.330120
0.592121
0.100000
0.100000
0.000000
0.000000
0.000000
0.000000
0.088508
0.276407
0.061551
0.023050
0.069590
0.287938
0.031642
0.154905
0.105011
0.121013
0.301828
0.048657
0.267766
0.064745
0.227371
0.042768
0.301485
0.249433
0.086374
0.135567
0.184324
0.100000
0.100000
0.100000
0.000000
0.000000
0.000000
0.000000
0.140309
0.074910
0.088680
0.173392
0.043264
0.172759
0.195994
0.224142
0.309437
0.185898
0.218714
0.111261
0.173922
0.132425
0.259891
0.329725
0.211930
0.172283
0.123259
0.230703
0.531622
0.268337
0.069916
0.100000
0.000000
0.000000
0.000000
0.000000
0.060303
0.188928
0.145673
0.062489
0.267788
0.298693
0.208499
0.105593
0.134938
0.234079
0.019190
0.160149
0.024309
0.212848
0.038732
0.209464
0.267926
0.130636
0.125727
0.208912
0.226638
0.224369
0.313468
0.100000
0.000000
0.000000
0.000000
0.000000
0.111940
0.108673
0.046614
0.099246
0.233975
0.213314
0.172058
0.237832
0.104189
0.195955
0.064391
0.172742
0.179665
0.096559
0.184770
0.112749
0.043924
0.188551
0.062313
0.225427
0.157031
0.100000
0.100000
0.100000
0.000000
0.000000
0.000000
0.000000
0.156904
0.057211
0.160570
0.242701
0.197573
0.147199
0.308833
0.073452
0.144970
0.108871
0.076438
0.131653
0.160624
0.058001
0.099724
0.322974
0.279144
0.092416
0.184218
0.082711
0.235523
0.404934
0.266893
0.100000
0.000000
0.000000
0.000000
0.000000
0.094492
0.026750
0.104558
0.257330
0.113123
0.108410
0.285998
0.091045
0.102723
0.103645
0.102282
0.092865
0.073963
0.100383
0.266869
0.180150
0.186384
0.098365
0.174764
0.177091
0.103925
0.127970
0.301236
0.100000
0.000000
0.000000
0.000000
0.000000
0.052559
0.133242
0.116132
0.199038
0.312519
0.142598
0.224970
0.060550
0.166558
0.145429
0.041350
0.108043
0.101055
0.062361
0.205967
0.158045
0.160166
0.089115
0.146857
0.180324
0.145460
0.249150
0.146852
0.100000
0.000000
0.000000
0.000000
0.000000
0.019673
0.169694
0.163410
0.016824
0.010144
0.114516
0.111139
0.137033
0.102826
0.084103
0.093300
0.244604
0.083320
0.199273
0.100552
0.255713
0.225044
0.290016
0.241425
0.044697
0.260770
0.263833
0.393124
0.100000
0.000000
0.000000
0.000000
0.000000
0.056415
0.142866
0.015448
0.163135
0.104106
0.116229
0.175040
0.208264
0.181392
0.178272
0.221658
0.073018
0.102497
0.095383
0.107052
0.083575
0.129561
0.186620
0.104191
0.187349
0.070601
0.315567
0.337097
0.100000
0.000000
0.000000
0.000000
0.000000
0.066185
0.100497
0.367714
0.153473
0.147841
0.032863
0.151902
0.102690
0.302005
0.069092
0.212857
0.077333
0.031649
0.100416
0.027520
0.343289
0.016250
0.128227
0.200527
0.075521
0.242223
0.233924
0.100000
0.100000
0.000000
0.000000
0.000000
0.000000
0.092874
0.093892
0.041692
0.260145
0.126501
0.175612
0.098241
0.042364
0.027574
0.068428
0.195167
0.185509
0.146774
0.079057
0.096187
0.049704
0.114857
0.294450
0.180813
0.133117
0.225347
0.295604
0.586004
0.100000
0.000000
0.000000
0.000000
0.000000
0.094833
0.130821
0.194427
0.233743
0.103116
0.049143
0.197928
0.167251
0.258640
0.385051
0.102540
0.176900
0.061530
0.016887
0.040321
0.098487
0.120149
0.069629
0.145826
0.242631
0.035943
0.140556
0.363527
0.100000
0.000000
0.000000
0.000000
0.000000
0.090888
0.162944
0.365131
0.139672
0.091243
0.098446
0.079282
0.170232
0.065241
0.204162
0.059630
0.061477
0.160288
0.279800
0.116914
0.160162
0.222091
0.158338
0.155028
0.419941
0.099870
0.393445
0.100000
0.100000
0.000000
0.000000
0.000000
0.000000
0.061629
0.200410
0.194193
0.088068
0.271671
0.171047
0.154201
0.182920
0.188371
0.265912
0.072742
0.236943
0.112620
0.117158
0.273614
0.037237
0.176841
0.258524
0.063749
0.060481
0.381202
0.393923
0.636488
0.100000
0.000000
0.000000
0.000000
0.000000
0.048077
0.137032
0.259934
0.152778
0.226321
0.099592
0.188176
0.073450
0.141360
0.160780
0.245362
0.159782
0.149205
0.097460
0.215139
0.173071
0.113395
0.202465
0.208931
0.312088
0.236709
0.240717
0.560356
0.100000
0.000000
0.000000
0.000000
0.000000
0.110391
0.166129
0.111620
0.217781
0.240267
0.159209
0.214317
0.222947
0.183860
0.078632
0.271047
0.157183
0.045613
0.218611
0.203347
0.189978
0.230635
0.237531
0.169905
0.293454
0.416650
0.416342
0.090793
0.100000
0.000000
0.000000
0.000000
0.000000
0.141911
0.182195
0.270262
0.137377
0.115100
0.240057
0.253826
0.280503
0.041483
0.198073
0.124533
0.087715
0.055071
0.340200
0.105915
0.079779
0.108094
0.088566
0.228347
0.213442
0.258154
0.478125
0.023458
0.100000
0.000000
0.000000
0.000000
0.000000
0.157152
0.176198
0.099323
0.101048
0.122191
0.206253
0.119416
0.149593
0.191116
0.325729
0.064423
0.075746
0.096435
0.222367
0.067587
0.132462
0.260755
0.182007
0.147729
0.280515
0.285787
0.255821
0.345151
0.100000
0.000000
0.000000
0.000000
0.000000
0.098168
0.083128
0.202528
0.121245
0.368155
0.131077
0.177471
0.169821
0.152690
0.114085
0.397182
0.029225
0.175471
0.217042
0.167291
0.171898
0.099681
0.232699
0.233572
0.254560
0.109150
0.235278
0.292133
0.100000
0.000000
0.000000
0.000000
0.000000
0.002464
0.178805
0.294104
0.041327
0.168321
0.032447
0.074005
0.126604
0.124842
0.051669
0.031650
0.170230
0.219030
0.069802
0.175087
0.092850
0.187790
0.371656
0.139060
0.181333
0.257617
0.484373
0.109343
0.100000
0.000000
0.000000
0.000000
0.000000
0.024808
0.081104
0.168437
0.151683
0.092525
0.202068
0.163853
0.065630
0.306837
0.048839
0.099107
0.123382
0.152917
0.254395
0.429555
0.158363
0.143972
0.175644
0.233381
0.203086
0.117525
0.275876
0.064382
0.100000
0.000000
0.000000
0.000000
0.000000
0.092390
0.244357
0.256790
0.181890
0.126272
0.076573
0.035335
0.125087
0.314876
0.094493
0.112516
0.175930
0.270591
0.230452
0.161988
0.242426
0.308580
0.175641
0.090184
0.187530
0.085397
0.154633
0.551459
0.100000
0.000000
0.000000
0.000000
0.000000
0.055912
0.116832
0.246365
0.180115
0.140207
0.057710
0.110800
0.096886
0.209889
0.251031
0.156495
0.092413
0.081040
0.154287
0.215632
0.218154
0.259241
0.269609
0.181979
0.310198
0.225313
0.242829
0.781308
0.100000
0.000000
0.000000
0.000000
0.000000
0.060897
0.027294
0.093557
0.137832
0.181796
0.130491
0.060421
0.113461
0.062352
0.171304
0.113578
0.193504
0.049055
0.033011
0.145133
0.320263
0.154465
0.093148
0.209040
0.238695
0.242639
0.331351
0.114040
0.100000
0.000000
0.000000
0.000000
0.000000
0.000000
0.000000
0.000000
0.000000
0.000000
0.000000
0.000000
0.000000
0.000000
0.000000
0.000000
0.000000
0.000000
0.000000
0.000000
0.000000
0.000000
0.000000
0.000000
0.000000
0.000000
0.000000
0.000000
0.000000
0.000000
0.000000
0.000000
0.000000
0.000000
0.000000
0.000000
0.000000
0.000000
0.000000
0.000000
0.000000
0.000000
0.000000
0.000000
0.000000
0.000000
0.000000
0.000000
0.000000
0.000000
0.000000
0.000000
0.000000
0.000000
0.000000
0.000000
0.000000
0.000000
0.000000
0.000000
0.000000
0.000000
0.000000
0.000000
0.000000
0.000000
0.000000
0.000000
0.000000
0.000000
0.000000
0.000000
0.000000
0.000000
0.000000
0.000000
0.000000
0.000000
0.000000
0.000000
0.000000
0.000000
0.000000
0.000000
0.000000
0.000000
0.000000
0.000000
0.000000
0.000000
0.000000
0.000000
0.000000
0.000000
0.000000
0.000000
0.000000
0.000000
0.000000
0.000000
0.000000
0.000000
0.000000
0.000000
0.000000
0.000000
0.000000
0.000000
0.000000
0.000000
0.000000
0.000000
0.000000
</DataArray>
<DataArray NumberOfComponents='1' type='Float32' Name='pressure' format='ascii'>
0.000000
0.000000
0.000000
0.000000
0.000000
0.000000
0.000000
0.000000
0.000000
0.000000
0.000000
0.000000
0.000000
0.000000
0.000000
0.000000
0.000000
0.000000
0.000000
0.000000
0.000000
0.000000
0.000000
0.000000
0.000000
0.000000
0.000000
0.000000
0.000000
0.000000
0.000000
0.000000
0.000000
0.000000
0.000000
0.000000
0.000000
0.000000
0.000000
0.000000
0.000000
0.000000
0.000000
0.000000
0.000000
0.000000
0.000000
0.000000
0.000000
0.000000
0.000000
0.000000
0.000000
0.000000
0.000000
0.000000
0.000000
0.000000
40847.257812
40794.742188
41198.753906
41447.851562
41204.058594
39929.089844
40351.046875
40280.968750
40118.257812
39138.660156
38339.562500
38123.386719
38678.992188
37543.253906
38394.875000
35822.636719
35431.667969
36834.714844
35863.964844
34218.761719
32620.781250
31733.994141
30972.441406
27482.917969
21305.281250
0.000000
0.000000
0.000000
41038.910156
40289.261719
39297.324219
41637.078125
41359.687500
37990.070312
39996.246094
40581.074219
39981.699219
38340.152344
38900.371094
38323.589844
38543.988281
36700.328125
39179.843750
35563.789062
34805.792969
37067.207031
34046.550781
33220.792969
32317.154297
32408.750000
32384.333984
30422.968750
28065.683594
0.000000
0.000000
0.000000
42171.230469
41131.800781
41822.324219
40669.773438
41211.308594
40114.281250
38659.523438
37640.843750
39139.511719
38779.000000
38114.636719
38469.554688
36204.937500
35172.953125
34312.281250
32620.097656
32139.740234
30278.097656
31692.687500
30487.406250
33169.738281
35698.835938
0.000000
18882.208984
0.000000
0.000000
0.000000
0.000000
42144.644531
40722.093750
40493.421875
41386.328125
40590.140625
40139.101562
38861.304688
39156.421875
38812.851562
38172.558594
37233.187500
38215.511719
37255.644531
36281.617188
34191.226562
33410.285156
31626.244141
30526.093750
30094.019531
30695.619141
31681.419922
21742.718750
0.000000
24348.335938
24889.015625
0.000000
0.000000
0.000000
41801.148438
41628.968750
40942.023438
40036.445312
39929.750000
40093.390625
38383.621094
38618.714844
37921.042969
39048.906250
38323.277344
37138.945312
36933.109375
36971.800781
36003.324219
35087.867188
33105.371094
32456.933594
30400.199219
29050.853516
29855.871094
28373.552734
28445.429688
12749.030273
22702.363281
27743.201172
0.000000
0.000000
41710.308594
41994.734375
41014.710938
39034.468750
40033.890625
39744.781250
39575.835938
39606.957031
37901.531250
38472.308594
37786.695312
36871.468750
36077.542969
35778.816406
34983.714844
33491.679688
33207.496094
31535.398438
30884.583984
30585.308594
27162.748047
28689.255859
25123.916016
24233.498047
36741.031250
25384.875000
0.000000
0.000000
41260.109375
40913.972656
39719.410156
40481.789062
39938.363281
39529.675781
39248.402344
37889.992188
38678.437500
37333.898438
38659.015625
38422.207031
35857.363281
35744.398438
33496.191406
34564.652344
33721.031250
32276.478516
30980.234375
29036.027344
29809.630859
27209.548828
33347.699219
24016.957031
36036.156250
0.000000
0.000000
0.000000
41973.957031
41182.390625
41024.164062
40410.410156
40190.632812
40174.613281
38133.753906
39347.343750
39422.355469
38391.511719
37924.925781
38520.320312
36471.601562
35709.507812
35961.343750
35099.281250
34994.640625
34138.589844
33037.984375
31830.207031
29890.533203
31867.056641
29769.792969
31058.212891
27182.365234
33317.945312
0.000000
0.000000
42074.679688
41685.707031
40677.722656
40114.636719
39626.781250
39439.703125
40302.546875
39879.187500
39214.371094
40214.175781
39111.980469
39437.511719
38306.207031
36011.781250
37104.722656
35186.953125
35566.222656
33789.906250
33083.519531
33129.242188
30591.363281
31976.244141
33206.656250
32325.312500
47196.378906
39529.562500
0.000000
0.000000
41388.308594
40195.843750
41488.386719
40624.292969
40168.386719
40102.406250
38232.359375
38575.285156
39943.867188
39560.886719
39328.257812
38785.343750
37487.621094
38141.105469
37297.765625
37294.089844
35473.402344
36320.648438
34680.128906
33790.574219
34591.570312
34784.921875
34831.000000
32833.648438
51111.203125
44739.660156
0.000000
0.000000
41681.078125
42235.105469
40876.722656
40937.957031
40519.003906
40181.187500
41019.800781
40261.945312
39818.945312
40264.933594
39888.820312
38785.648438
38381.632812
37152.558594
36583.000000
36640.742188
37112.933594
35819.363281
35023.640625
34555.277344
35663.910156
37066.972656
37350.562500
34845.128906
52775.292969
45709.171875
0.000000
0.000000
41590.871094
41795.226562
40905.757812
40059.289062
41262.675781
40360.886719
40591.812500
39503.910156
39056.164062
39377.503906
39229.429688
39088.707031
38040.816406
39165.031250
37871.875000
36837.113281
35367.878906
36562.000000
36521.058594
35517.406250
39174.027344
37514.906250
38628.050781
36019.167969
47583.503906
46617.449219
0.000000
0.000000
40669.847656
39688.347656
40165.894531
41315.382812
40853.210938
40251.281250
40153.410156
40682.460938
39585.507812
39634.613281
38706.855469
39272.062500
38487.765625