<?xml version='1.0' encoding='UTF-8'?>
<VTKFile xmlns='VTK' byte_order='LittleEndian' version='0.1' type='UnstructuredGrid'>
<UnstructuredGrid>
<Piece NumberOfCells='1344' NumberOfPoints='1344'>
<Points>
<DataArray NumberOfComponents='3' type='Float32' Name='Position' format='ascii'>
-0.075000 -0.075000 0.000000
-0.075000 -0.050000 0.000000
-0.075000 -0.025000 0.000000
-0.075000 0.000000 0.000000
-0.075000 0.025000 0.000000
-0.075000 0.050000 0.000000
-0.075000 0.075000 0.000000
-0.075000 0.100000 0.000000
-0.075000 0.125000 0.000000
-0.075000 0.150000 0.000000
-0.075000 0.175000 0.000000
-0.075000 0.200000 0.000000
-0.075000 0.225000 0.000000
-0.075000 0.250000 0.000000
-0.075000 0.275000 0.000000
-0.075000 0.300000 0.000000
-0.075000 0.325000 0.000000
-0.075000 0.350000 0.000000
-0.075000 0.375000 0.000000
-0.075000 0.400000 0.000000
-0.075000 0.425000 0.000000
-0.075000 0.450000 0.000000
-0.075000 0.475000 0.000000
-0.075000 0.500000 0.000000
-0.075000 0.525000 0.000000
-0.075000 0.550000 0.000000
-0.075000 0.575000 0.000000
-0.075000 0.600000 0.000000
-0.050000 -0.075000 0.000000
-0.050000 -0.050000 0.000000
-0.050000 -0.025000 0.000000
-0.050000 0.000000 0.000000
-0.050000 0.025000 0.000000
-0.050000 0.050000 0.000000
-0.050000 0.075000 0.000000
-0.050000 0.100000 0.000000
-0.050000 0.125000 0.000000
-0.050000 0.150000 0.000000
-0.050000 0.175000 0.000000
-0.050000 0.200000 0.000000
-0.050000 0.225000 0.000000
-0.050000 0.250000 0.000000
-0.050000 0.275000 0.000000
-0.050000 0.300000 0.000000
-0.050000 0.325000 0.000000
-0.050000 0.350000 0.000000
-0.050000 0.375000 0.000000
-0.050000 0.400000 0.000000
-0.050000 0.425000 0.000000
-0.050000 0.450000 0.000000
-0.050000 0.475000 0.000000
-0.050000 0.500000 0.000000
-0.050000 0.525000 0.000000
-0.050000 0.550000 0.000000
-0.050000 0.575000 0.000000
-0.050000 0.600000 0.000000
-0.025000 -0.075000 0.000000
-0.025000 -0.050000 0.000000
-0.025000 -0.025000 0.000000
-0.025000 0.000000 0.000000
-0.025000 0.025000 0.000000
-0.025000 0.050000 0.000000
-0.025000 0.075000 0.000000
-0.025000 0.100000 0.000000
-0.025000 0.125000 0.000000
-0.025000 0.150000 0.000000
-0.025000 0.175000 0.000000
-0.025000 0.200000 0.000000
-0.025000 0.225000 0.000000
-0.025000 0.250000 0.000000
-0.025000 0.275000 0.000000
-0.025000 0.300000 0.000000
-0.025000 0.325000 0.000000
-0.025000 0.350000 0.000000
-0.025000 0.375000 0.000000
-0.025000 0.400000 0.000000
-0.025000 0.425000 0.000000
-0.025000 0.450000 0.000000
-0.025000 0.475000 0.000000
-0.025000 0.500000 0.000000
-0.025000 0.525000 0.000000
-0.025000 0.550000 0.000000
-0.025000 0.575000 0.000000
-0.025000 0.600000 0.000000
0.000000 -0.075000 0.000000
0.000000 -0.050000 0.000000
0.000000 -0.025000 0.000000
0.000000 0.000000 0.000000
0.000000 0.025000 0.000000
0.000000 0.050000 0.000000
0.000000 0.075000 0.000000
0.000000 0.100000 0.000000
0.000000 0.125000 0.000000
0.000000 0.150000 0.000000
0.000000 0.175000 0.000000
0.000000 0.200000 0.000000
0.000000 0.225000 0.000000
0.000000 0.250000 0.000000
0.000000 0.275000 0.000000
0.000000 0.300000 0.000000
0.000000 0.325000 0.000000
0.000000 0.350000 0.000000
0.000000 0.375000 0.000000
0.000000 0.400000 0.000000
0.000000 0.425000 0.000000
0.000000 0.450000 0.000000
0.000000 0.475000 0.000000
0.000000 0.500000 0.000000
0.000000 0.525000 0.000000
0.000000 0.550000 0.000000
0.000000 0.575000 0.000000
0.000000 0.600000 0.000000
0.025000 -0.075000 0.000000
0.025000 -0.050000 0.000000
0.025000 -0.025000 0.000000
0.025000 0.000000 0.000000
0.024768 0.025015 0.000000
0.024963 0.050530 0.000000
0.024934 0.075438 0.000000
0.024867 0.100882 0.000000
0.024932 0.125989 0.000000
0.024867 0.151385 0.000000
0.024873 0.176592 0.000000
0.024841 0.202084 0.000000
0.024869 0.227360 0.000000
0.024767 0.252932 0.000000
0.024762 0.278300 0.000000
0.024881 0.303981 0.000000
0.024641 0.329375 0.000000
0.024619 0.355341 0.000000
0.024547 0.381018 0.000000
0.024707 0.407163 0.000000
0.024368 0.432876 0.000000
0.024975 0.459537 0.000000
0.024872 0.484416 0.000000
0.025209 0.510075 0.000000
0.023091 0.536089 0.000000
0.020577 0.571926 0.000000
0.048576 0.576258 0.000000
0.048909 0.600000 0.000000
0.050000 -0.075000 0.000000
0.050000 -0.050000 0.000000
0.050000 -0.025000 0.000000
0.050000 0.000000 0.000000
0.049620 0.024879 0.000000
0.049765 0.050014 0.000000
0.049779 0.074818 0.000000
0.049650 0.099963 0.000000
0.049679 0.124793 0.000000
0.049569 0.149886 0.000000
0.049539 0.174828 0.000000
0.049413 0.199752 0.000000
0.049344 0.224808 0.000000
0.049222 0.249727 0.000000
0.049129 0.274742 0.000000
0.049032 0.299562 0.000000
0.048895 0.324904 0.000000
0.048938 0.349497 0.000000
0.048522 0.374815 0.000000
0.048774 0.399623 0.000000
0.048057 0.424997 0.000000
0.048420 0.450193 0.000000
0.048985 0.475713 0.000000
0.048990 0.502378 0.000000
0.049025 0.527166 0.000000
0.040110 0.554512 0.000000
0.073893 0.575998 0.000000
0.073948 0.600000 0.000000
0.075000 -0.075000 0.000000
0.075000 -0.050000 0.000000
0.075000 -0.025000 0.000000
0.075000 0.000000 0.000000
0.074512 0.025126 0.000000
0.074934 0.050440 0.000000
0.074817 0.075347 0.000000
0.074738 0.100628 0.000000
0.074763 0.125733 0.000000
0.074716 0.150887 0.000000
0.074696 0.176080 0.000000
0.074633 0.201194 0.000000
0.074665 0.226450 0.000000
0.074506 0.251378 0.000000
0.074616 0.276787 0.000000
0.074389 0.301609 0.000000
0.074499 0.326800 0.000000
0.074136 0.351724 0.000000
0.074269 0.376833 0.000000
0.073990 0.401666 0.000000
0.073861 0.426494 0.000000
0.073645 0.451307 0.000000
0.073549 0.476153 0.000000
0.073672 0.500912 0.000000
0.072564 0.526946 0.000000
0.065385 0.550606 0.000000
0.099026 0.575941 0.000000
0.099019 0.600000 0.000000
0.100000 -0.075000 0.000000
0.100000 -0.050000 0.000000
0.100000 -0.025000 0.000000
0.100000 0.000000 0.000000
0.099239 0.024788 0.000000
0.099751 0.050071 0.000000
0.099647 0.074795 0.000000
0.099470 0.099991 0.000000
0.099533 0.124838 0.000000
0.099353 0.149943 0.000000
0.099400 0.174982 0.000000
0.099188 0.199930 0.000000
0.099254 0.225085 0.000000
0.098992 0.250052 0.000000
0.099143 0.275189 0.000000
0.098831 0.300130 0.000000
0.099005 0.325540 0.000000
0.098795 0.350383 0.000000
0.098695 0.375703 0.000000
0.098878 0.400714 0.000000
0.098342 0.426132 0.000000
0.098681 0.450953 0.000000
0.098885 0.476550 0.000000
0.097952 0.501502 0.000000
0.099035 0.528060 0.000000
0.092298 0.550448 0.000000
0.124011 0.575957 0.000000
0.123993 0.600000 0.000000
0.125000 -0.075000 0.000000
0.125000 -0.050000 0.000000
0.125000 -0.025000 0.000000
0.125000 0.000000 0.000000
0.124294 0.025123 0.000000
0.124827 0.050385 0.000000
0.124790 0.075350 0.000000
0.124562 0.100586 0.000000
0.124645 0.125651 0.000000
0.124498 0.150798 0.000000
0.124525 0.175922 0.000000
0.124401 0.200986 0.000000
0.124473 0.226196 0.000000
0.124280 0.251043 0.000000
0.124364 0.276408 0.000000
0.124150 0.301205 0.000000
0.124149 0.326389 0.000000
0.124008 0.351287 0.000000
0.123884 0.376498 0.000000
0.123758 0.401342 0.000000
0.123707 0.426273 0.000000
0.123043 0.451569 0.000000
0.123976 0.476342 0.000000
0.121453 0.501510 0.000000
0.124838 0.527614 0.000000
0.116894 0.550233 0.000000
0.148977 0.575919 0.000000
0.149000 0.600000 0.000000
0.150000 -0.075000 0.000000
0.150000 -0.050000 0.000000
0.150000 -0.025000 0.000000
0.150000 0.000000 0.000000
0.148891 0.024875 0.000000
0.149677 0.050144 0.000000
0.149502 0.074974 0.000000
0.149328 0.100154 0.000000
0.149375 0.125081 0.000000
0.149239 0.150145 0.000000
0.149225 0.175222 0.000000
0.149122 0.200170 0.000000
0.149105 0.225347 0.000000
0.148961 0.250346 0.000000
0.148993 0.275493 0.000000
0.148811 0.300439 0.000000
0.148926 0.325723 0.000000
0.148666 0.350687 0.000000
0.148776 0.375638 0.000000
0.148657 0.400953 0.000000
0.148564 0.425909 0.000000
0.148236 0.450708 0.000000
0.148934 0.476336 0.000000
0.146326 0.500820 0.000000
0.149769 0.527314 0.000000
0.144299 0.550725 0.000000
0.173990 0.575943 0.000000
0.173994 0.600000 0.000000
0.175000 -0.075000 0.000000
0.175000 -0.050000 0.000000
0.175000 -0.025000 0.000000
0.175000 0.000000 0.000000
0.173961 0.025050 0.000000
0.174728 0.050318 0.000000
0.174639 0.075252 0.000000
0.174407 0.100474 0.000000
0.174517 0.125506 0.000000
0.174302 0.150654 0.000000
0.174400 0.175748 0.000000
0.174175 0.200833 0.000000
0.174300 0.225969 0.000000
0.174058 0.250886 0.000000
0.174239 0.276055 0.000000
0.173909 0.301042 0.000000
0.174058 0.325937 0.000000
0.173854 0.351073 0.000000
0.173743 0.376249 0.000000
0.173674 0.400918 0.000000
0.173659 0.426423 0.000000
0.172731 0.451244 0.000000
0.174102 0.476781 0.000000
0.170314 0.501165 0.000000
0.175198 0.526958 0.000000
0.168803 0.550184 0.000000
0.199006 0.575920 0.000000
0.199005 0.600000 0.000000
0.200000 -0.075000 0.000000
0.200000 -0.050000 0.000000
0.200000 -0.025000 0.000000
0.200000 0.000000 0.000000
0.198615 0.024893 0.000000
0.199542 0.050178 0.000000
0.199426 0.075036 0.000000
0.199142 0.100243 0.000000
0.199286 0.125167 0.000000
0.199052 0.150305 0.000000
0.199124 0.175337 0.000000
0.198969 0.200359 0.000000
0.199056 0.225443 0.000000
0.198871 0.250539 0.000000
0.198943 0.275595 0.000000
0.198817 0.300617 0.000000
0.198785 0.326011 0.000000
0.198615 0.350849 0.000000
0.198734 0.376029 0.000000
0.198290 0.401264 0.000000
0.198735 0.426327 0.000000
0.197467 0.451023 0.000000
0.199257 0.476823 0.000000
0.195424 0.500820 0.000000
0.200591 0.526881 0.000000
0.195492 0.550328 0.000000
0.223996 0.575940 0.000000
0.223998 0.600000 0.000000
0.225000 -0.075000 0.000000
0.225000 -0.050000 0.000000
0.225000 -0.025000 0.000000
0.225000 0.000000 0.000000
0.223611 0.025053 0.000000
0.224601 0.050315 0.000000
0.224465 0.075273 0.000000
0.224268 0.100452 0.000000
0.224319 0.125490 0.000000
0.224177 0.150568 0.000000
0.224184 0.175635 0.000000
0.224110 0.200696 0.000000
0.224031 0.225806 0.000000
0.224023 0.250706 0.000000
0.223917 0.275989 0.000000
0.223766 0.300931 0.000000
0.223840 0.325885 0.000000
0.223550 0.351088 0.000000
0.223739 0.376195 0.000000
[...]
<PointData>
<DataArray NumberOfComponents='1' type='Int32' Name='ParticleType' format='ascii'>
3
3
3
3
3
3
3
3
3
3
3
3
3
3
3
3
3
3
3
3
3
3
3
3
3
3
3
3
3
3
3
3
3
3
3
3
3
3
3
3
3
3
3
3
3
3
3
3
3
3
3
3
3
3
3
3
3
3
2
2
2
2
2
2
2
2
2
2
2
2
2
2
2
2
2
2
2
2
2
2
2
2
2
2
3
3
2
2
2
2
2
2
2
2
2
2
2
2
2
2
2
2
2
2
2
2
2
2
2
2
2
2
3
3
2
2
0
0
0
0
0
0
0
0
0
0
0
0
0
0
0
0
0
0
0
0
0
0
0
0
3
3
2
2
0
0
0
0
0
0
0
0
0
0
0
0
0
0
0
0
0
0
0
0
0
0
0
0
3
3
2
2
0
0
0
0
0
0
0
0
0
0
0
0
0
0
0
0
0
0
0
0
0
0
0
0
3
3
2
2
0
0
0
0
0
0
0
0
0
0
0
0
0
0
0
0
0
0
0
0
0
0
0
0
3
3
2
2
0
0
0
0
0
0
0
0
0
0
0
0
0
0
0
0
0
0
0
0
0
0
0
0
3
3
2
2
0
0
0
0
0
0
0
0
0
0
0
0
0
0
0
0
0
0
0
0
0
0
0
0
3
3
2
2
0
0
0
0
0
0
0
0
0
0
0
0
0
0
0
0
0
0
0
0
0
0
0
0
3
3
2
2
0
0
0
0
0
0
0
0
0
0
0
0
0
0
0
0
0
0
0
0
0
0
0
0
3
3
2
2
0
0
0
0
0
0
0
0
0
0
0
0
0
0
0
0
0
0
0
0
0
0
0
0
3
3
2
2
0
0
0
0
0
0
0
0
0
0
0
0
0
0
0
0
0
0
0
0
0
0
0
0
3
3
2
2
0
0
0
0
0
0
0
0
0
0
0
0
0
0
0
0
0
0
0
0
0
0
0
0
3
3
2
2
0
0
0
0
0
0
0
0
0
0
0
0
0
0
0
0
0
0
0
0
0
0
0
0
3
3
2
2
0
0
0
0
0
0
0
0
0
0
0
0
0
0
0
0
0
0
0
0
0
0
0
0
3
3
2
2
0
0
0
0
0
0
0
0
0
0
0
0
0
0
0
0
0
0
0
0
0
0
0
0
3
3
2
2
0
0
0
0
0
0
0
0
0
0
0
0
0
0
0
0
0
0
0
0
0
0
0
0
3
3
2
2
0
0
0
0
0
0
0
0
0
0
0
0
0
0
0
0
0
0
0
0
0
0
0
0
3
3
2
2
0
0
0
0
0
0
0
0
0
0
0
0
0
0
0
0
0
0
0
0
0
0
0
0
3
3
2
2
0
0
0
0
0
0
0
0
0
0
0
0
0
0
0
0
0
0
0
0
0
0
0
0
3
3
2
2
0
0
0
0
0
0
0
0
0
0
0
0
0
0
0
0
0
0
0
0
0
0
0
0
3
3
2
2
0
0
0
0
0
0
0
0
0
0
0
0
0
0
0
0
0
0
0
0
0
0
0
0
3
3
2
2
0
0
0
0
0
0
0
0
0
0
0
0
0
0
0
0
0
0
0
0
0
0
0
0
3
3
2
2
0
0
0
0
0
0
0
0
0
0
0
0
0
0
0
0
0
0
0
0
0
0
0
0
3
3
2
2
0
0
0
0
0
0
0
0
0
0
0
0
0
0
0
0
0
0
0
0
0
0
0
0
3
3
2
2
0
0
0
0
0
0
0
0
0
0
0
0
0
0
0
0
0
0
0
0
0
0
0
0
3
3
2
2
0
0
0
0
0
0
0
0
0
0
0
0
0
0
0
0
0
0
0
0
0
0
0
0
3
3
2
2
0
0
0
0
0
0
0
0
0
0
0
0
0
0
0
0
0
0
0
0
0
0
0
0
3
3
2
2
0
0
0
0
0
0
0
0
0
0
0
0
0
0
0
0
0
0
0
0
0
0
0
0
3
3
2
2
0
0
0
0
0
0
0
0
0
0
0
0
0
0
0
0
0
0
0
0
0
0
0
0
3
3
2
2
0
0
0
0
0
0
0
0
0
0
0
0
0
0
0
0
0
0
0
0
0
0
0
0
3
3
2
2
0
0
0
0
0
0
0
0
0
0
0
0
0
0
0
0
0
0
0
0
0
0
0
0
3
3
2
2
0
0
0
0
0
0
0
0
0
0
0
0
0
0
0
0
0
0
0
0
0
0
0
0
3
3
2
2
0
0
0
0
0
0
0
0
0
0
0
0
0
0
0
0
0
0
0
0
0
0
0
0
3
3
2
2
0
0
0
0
0
0
0
0
0
0
0
0
0
0
0
0
0
0
0
0
0
0
0
0
3
3
2
2
0
0
0
0
0
0
0
0
0
0
0
0
0
0
0
0
0
0
0
0
0
0
0
0
3
3
2
2
0
0
0
0
0
0
0
0
0
0
0
0
0
0
0
0
0
0
0
0
0
0
0
0
3
3
2
2
0
0
0
0
0
0
0
0
0
0
0
0
0
0
0
0
0
0
0
0
0
0
0
0
3
3
2
2
0
0
0
0
0
0
0
0
0
0
0
0
0
0
0
0
0
0
0
0
0
0
0
0
3
3
2
2
0
0
0
0
0
0
0
0
0
0
0
0
0
0
0
0
0
0
0
0
0
0
0
0
3
3
2
2
0
0
0
0
0
0
0
0
0
0
0
0
0
0
0
0
0
0
0
0
0
0
0
0
3
3
2
2
0
0
0
0
0
0
0
0
0
0
0
0
0
0
0
0
0
0
0
0
0
0
0
0
3
3
2
2
2
2
2
2
2
2
2
2
2
2
2
2
2
2
2
2
2
2
2
2
2
2
2
2
3
3
2
2
2
2
2
2
2
2
2
2
2
2
2
2
2
2
2
2
2
2
2
2
2
2
2
2
3
3
3
3
3
3
3
3
3
3
3
3
3
3
3
3
3
3
3
3
3
3
3
3
3
3
3
3
3
3
3
3
3
3
3
3
3
3
3
3
3
3
3
3
3
3
3
3
3
3
3
3
3
3
3
3
</DataArray>
<DataArray NumberOfComponents='1' type='Float32' Name='Velocity' format='ascii'>
0.000000
0.000000
0.000000
0.000000
0.000000
0.000000
0.000000
0.000000
0.000000
0.000000
0.000000
0.000000
0.000000
0.000000
0.000000
0.000000
0.000000
0.000000
0.000000
0.000000
0.000000
0.000000
0.000000
0.000000
0.000000
0.000000
0.000000
0.000000
0.000000
0.000000
0.000000
0.000000
0.000000
0.000000
0.000000
0.000000
0.000000
0.000000
0.000000
0.000000
0.000000
0.000000
0.000000
0.000000
0.000000
0.000000
0.000000
0.000000
0.000000
0.000000
0.000000
0.000000
0.000000
0.000000
0.000000
0.000000
0.000000
0.000000
0.000000
0.000000
0.000000
0.000000
0.000000
0.000000
0.000000
0.000000
0.000000
0.000000
0.000000
0.000000
0.000000
0.000000
0.000000
0.000000
0.000000
0.000000
0.000000
0.000000
0.000000
0.000000
0.000000
0.000000
0.000000
0.000000
0.000000
0.000000
0.000000
0.000000
0.000000
0.000000
0.000000
0.000000
0.000000
0.000000
0.000000
0.000000
0.000000
0.000000
0.000000
0.000000
0.000000
0.000000
0.000000
0.000000
0.000000
0.000000
0.000000
0.000000
0.000000
0.000000
0.000000
0.000000
0.000000
0.000000
0.000000
0.000000
0.006347
0.006770
0.010006
0.010070
0.019259
0.014596
0.027519
0.021758
0.036165
0.031592
0.042837
0.037812
0.059492
0.049904
0.081868
0.069532
0.087011
0.069765
0.086042
0.063279
0.042551
0.070328
0.100000
0.100000
0.000000
0.000000
0.000000
0.000000
0.006529
0.004761
0.007133
0.012818
0.010911
0.020117
0.013840
0.023558
0.023264
0.024892
0.021580
0.033238
0.021660
0.027432
0.030345
0.035461
0.014676
0.019484
0.013599
0.033423
0.033986
0.108303
0.100000
0.100000
0.000000
0.000000
0.000000
0.000000
0.006027
0.006891
0.007571
0.003816
0.014802
0.005272
0.015582
0.009165
0.017375
0.009941
0.009889
0.015679
0.006490
0.011388
0.011740
0.003704
0.002854
0.029359
0.015175
0.022092
0.011992
0.087422
0.100000
0.100000
0.000000
0.000000
0.000000
0.000000
0.010325
0.004155
0.005359
0.008805
0.008627
0.013924
0.009851
0.015225
0.015933
0.015634
0.012210
0.017416
0.009283
0.009363
0.013611
0.017433
0.000972
0.002727
0.021839
0.018667
0.013058
0.041344
0.100000
0.100000
0.000000
0.000000
0.000000
0.000000
0.009641
0.008918
0.006455
0.003054
0.009119
0.006640
0.007899
0.007594
0.009319
0.006299
0.004092
0.009675
0.000902
0.014398
0.007580
0.011786
0.017215
0.010828
0.017814
0.019287
0.012465
0.085006
0.100000
0.100000
0.000000
0.000000
0.000000
0.000000
0.014782
0.005045
0.007454
0.003831
0.007405
0.008606
0.006249
0.010842
0.010674
0.013340
0.008827
0.016162
0.013564
0.011871
0.012446
0.013407
0.006358
0.011258
0.006816
0.004543
0.019472
0.040231
0.100000
0.100000
0.000000
0.000000
0.000000
0.000000
0.007631
0.007635
0.003833
0.007258
0.001841
0.010079
0.002384
0.009620
0.003011
0.008650
0.006170
0.006275
0.007087
0.013138
0.007081
0.002799
0.010539
0.008562
0.009846
0.043718
0.022714
0.066174
0.100000
0.100000
0.000000
0.000000
0.000000
0.000000
0.015069
0.003433
0.006484
0.005387
0.007739
0.005027
0.007604
0.003886
0.009632
0.002585
0.008887
0.008886
0.003635
0.011946
0.016512
0.002569
0.002481
0.001139
0.013027
0.033609
0.021908
0.028949
0.100000
0.100000
0.000000
0.000000
0.000000
0.000000
0.010890
0.007206
0.002285
0.005017
0.002151
0.005693
0.004708
0.003400
0.003676
0.004071
0.009195
0.012913
0.011571
0.005507
0.003865
0.004334
0.002536
0.021097
0.006219
0.066335
0.028474
0.057424
0.100000
0.100000
0.000000
0.000000
0.000000
0.000000
0.016058
0.003906
0.002883
0.003521
0.004530
0.004777
0.005890
0.009058
0.011529
0.010654
0.006746
0.007016
0.005860
0.007096
0.013942
0.004846
0.003115
0.015698
0.015614
0.048141
0.031890
0.026399
0.100000
0.100000
0.000000
0.000000
0.000000
0.000000
0.014027
0.006388
0.004117
0.007269
0.003897
0.008755
0.006813
0.002572
0.006655
0.004454
0.010416
0.008397
0.012552
0.006594
0.010513
0.004153
0.003683
0.026933
0.003170
0.060364
0.028548
0.043919
0.100000
0.100000
0.000000
0.000000
0.000000
0.000000
0.018122
0.005320
0.005090
0.002411
0.004502
0.005249
0.007510
0.004020
0.009761
0.005652
0.010179
0.009156
0.009313
0.009263
0.012648
0.013570
0.002973
0.022301
0.016524
0.051946
0.030189
0.025183
0.100000
0.100000
0.000000
0.000000
0.000000
0.000000
0.018231
0.010716
0.003970
0.006226
0.006904
0.002116
0.008890
0.004119
0.009030
0.004989
0.010720
0.010255
0.011036
0.004020
0.007396
0.010129
0.003556
0.032644
0.005685
0.058721
0.029596
0.033387
0.100000
0.100000
0.000000
0.000000
0.000000
0.000000
0.025619
0.011485
0.001439
0.003241
0.004276
0.001327
0.002634
0.001854
0.009734
0.008813
0.011441
0.009170
0.020006
0.000208
0.011028
0.011821
0.003113
0.021109
0.011091
0.042738
0.025090
0.022443
0.100000
0.100000
0.000000
0.000000
0.000000
0.000000
0.016685
0.009887
0.004646
0.003640
0.002680
0.004104
0.006676
0.003358
0.009251
0.013289
0.012233
0.006029
0.005841
0.003793
0.007165
0.012820
0.004980
0.033027
0.004934
0.053194
0.022354
0.030694
0.100000
0.100000
0.000000
0.000000
0.000000
0.000000
0.026855
0.010822
0.003931
0.006854
0.005568
0.008310
0.006191
0.007558
0.007389
0.006650
0.005537
0.006761
0.013605
0.005821
0.008923
0.014953
0.002143
0.023307
0.012543
0.040552
0.022086
0.020209
0.100000
0.100000
0.000000
0.000000
0.000000
0.000000
0.021677
0.012961
0.004901
0.005420
0.003617
0.000820
0.005823
0.005349
0.005889
0.002281
0.009415
0.008756
0.003382
0.003401
0.008599
0.012386
0.008203
0.033258
0.001186
0.049506
0.021757
0.027562
0.100000
0.100000
0.000000
0.000000
0.000000
0.000000
0.023764
0.008747
0.004078
0.005881
0.005824
0.006184
0.003693
0.002450
0.007324
0.001682
0.005909
0.007940
0.013274
0.006614
0.007281
0.015432
0.004231
0.021793
0.011136
0.041829
0.020411
0.029920
0.100000
0.100000
0.000000
0.000000
0.000000
0.000000
0.020438
0.007052
0.003834
0.001462
0.003439
0.002292
0.005757
0.005058
0.002944
0.004725
0.006518
0.004781
0.002782
0.006589
0.007933
0.013589
0.011799
0.034507
0.004828
0.046313
0.014137
0.029169
0.100000
0.100000
0.000000
0.000000
0.000000
0.000000
0.020969
0.008818
0.005259
0.008570
0.006398
0.006429
0.008873
0.013448
0.004615
0.006537
0.005101
0.012027
0.010587
0.004965
0.005820
0.011803
0.008142
0.015610
0.010136
0.039933
0.011573
0.032284
0.100000
0.100000
0.000000
0.000000
0.000000
0.000000
0.023506
0.008350
0.006263
0.010707
0.009298
0.012244
0.004580
0.011911
0.004716
0.008088
0.007697
0.005945
0.004370
0.011445
0.007994
0.016016
0.012209
0.035132
0.013985
0.044832
0.010989
0.024148
0.100000
0.100000
0.000000
0.000000
0.000000
0.000000
0.017534
0.001235
0.009920
0.006686
0.004835
0.004043
0.010938
0.012451
0.004434
0.012036
0.003977
0.015729
0.007930
0.006330
0.002122
0.012073
0.011707
0.013163
0.010104
0.035940
0.008739
0.032003
0.100000
0.100000
0.000000
0.000000
0.000000
0.000000
0.023921
0.008579
0.003379
0.007553
0.006063
0.014323
0.006753
0.009566
0.011370
0.012771
0.012887
0.007263
0.001177
0.011705
0.013938
0.013863
0.014169
0.029330
0.026328
0.041099
0.021841
0.022291
0.100000
0.100000
0.000000
0.000000
0.000000
0.000000
0.022378
0.005633
0.008927
0.009338
0.014160
0.009398
0.012448
0.013493
0.009505
0.019476
0.003672
0.020223
0.011471
0.011503
0.003509
0.015535
0.015206
0.014367
0.010794
0.029987
0.009676
0.028991
0.100000
0.100000
0.000000
0.000000
0.000000
0.000000
0.022575
0.007396
0.009585
0.010070
0.005629
0.008716
0.011607
0.009653
0.023688
0.006796
0.009093
0.021205
0.003971
0.015232
0.020272
0.016269
0.003488
0.029689
0.024683
0.033462
0.029607
0.018415
0.100000
0.100000
0.000000
0.000000
0.000000
0.000000
0.021475
0.005932
0.005859
0.007637
0.010734
0.004925
0.005660
0.014459
0.008971
0.010079
0.018579
0.026384
0.017590
0.017091
0.006453
0.016579
0.026094
0.010347
0.012655
0.025736
0.020522
0.025050
0.100000
0.100000
0.000000
0.000000
0.000000
0.000000
0.021987
0.007966
0.007524
0.009528
0.005524
0.008167
0.022432
0.010137
0.012554
0.026637
0.017290
0.027312
0.009678
0.027104
0.021679
0.020986
0.005421
0.026233
0.029665
0.017492
0.030050
0.017461
0.100000
0.100000
0.000000
0.000000
0.000000
0.000000
0.020348
0.008589
0.007849
0.004258
0.008006
0.013888
0.007743
0.002929
0.020454
0.024580
0.029177
0.013137
0.007949
0.039754
0.009141
0.028271
0.019378
0.026132
0.008975
0.026198
0.035421
0.013476
0.100000
0.100000
0.000000
0.000000
0.000000
0.000000
0.017522
0.007041
0.005993
0.000439
0.012979
0.005812
0.004465
0.023149
0.013916
0.024188
0.010201
0.016717
0.043926
0.020042
0.011723
0.025755
0.017613
0.018033
0.033291
0.012095
0.031817
0.022530
0.100000
0.100000
0.000000
0.000000
0.000000
0.000000
0.017930
0.006601
0.006760
0.008242
0.006739
0.005093
0.011446
0.013566
0.012125
0.013773
0.018749
0.047219
0.023862
0.022706
0.031339
0.041653
0.012858
0.032528
0.029945
0.017100
0.053684
0.010600
0.100000
0.100000
0.000000
0.000000
0.000000
0.000000
0.016777
0.008769
0.003352
0.005855
0.004379
0.011415
0.002403
0.015910
0.013742
0.010288
0.033228
0.008835
0.018535
0.044125
0.023993
0.044907
0.036471
0.008158
0.031451
0.015136
0.036413
0.038097
0.100000
0.100000
0.000000
0.000000
0.000000
0.000000
0.013355
0.005076
0.007797
0.004728
0.007849
0.006814
0.003933
0.007260
0.004155
0.020534
0.008860
0.011371
0.034530
0.035198
0.053446
0.026820
0.024468
0.050116
0.038913
0.019911
0.058813
0.052549
0.100000
0.100000
0.000000
0.000000
0.000000
0.000000
0.012977
0.007164
0.005206
0.003820
0.003800
0.005972
0.006153
0.016127
0.006322
0.012379
0.003780
0.023142
0.012794
0.051070
0.005301
0.008646
0.069204
0.022209
0.032625
0.052397
0.065946
0.042351
0.100000
0.100000
0.000000
0.000000
0.000000
0.000000
0.008275
0.009782
0.009017
0.009199
0.002652
0.006053
0.013816
0.004619
0.004891
0.018441
0.009043
0.019412
0.016286
0.020937
0.021716
0.074914
0.040816
0.049705
0.028689
0.021983
0.015967
0.074501
0.100000
0.100000
0.000000
0.000000
0.000000
0.000000
0.011252
0.006193
0.008312
0.005937
0.006239
0.001835
0.005964
0.009045
0.014877
0.013076
0.017816
0.005031
0.008227
0.023450
0.019014
0.017470
0.058715
0.060179
0.033515
0.101157
0.066074
0.081702
0.100000
0.100000
0.000000
0.000000
0.000000
0.000000
0.005009
0.008914
0.009263
0.012160
0.013409
0.012522
0.014082
0.005612
0.004266
0.004687
0.001887
0.000179
0.023148
0.002522
0.007431
0.039986
0.026376
0.010190
0.045372
0.051540
0.032520
0.104370
0.100000
0.100000
0.000000
0.000000
0.000000
0.000000
0.014467
0.010692
0.013971
0.000847
0.006194
0.006673
0.011855
0.011145
0.017822
0.020499
0.012212
0.022171
0.023505
0.023058
0.020966
0.031572
0.024221
0.072214
0.027254
0.103239
0.089700
0.062879
0.100000
0.100000
0.000000
0.000000
0.000000
0.000000
0.008987
0.017791
0.007384
0.016940
0.003107
0.011918
0.019348
0.013677
0.013331
0.010044
0.010289
0.004738
0.038553
0.001119
0.016040
0.042926
0.039567
0.008010
0.028487
0.044270
0.083537
0.085781
0.100000
0.100000
0.000000
0.000000
0.000000
0.000000
0.009490
0.008626
0.026183
0.005201
0.027144
0.015377
0.031819
0.014315
0.026148
0.042155
0.025603
0.048533
0.046436
0.046122
0.008686
0.107290
0.015627
0.057784
0.047873
0.119150
0.098578
0.129490
0.564793
0.100000
0.000000
0.000000
0.000000
0.000000
0.000514
0.015162
0.004876
0.022367
0.004856
0.028488
0.013835
0.016545
0.021410
0.022025
0.035388
0.031573
0.043753
0.035075
0.035895
0.045555
0.032488
0.038962
0.060120
0.026880
0.036505
0.122544
0.029395
0.100000
0.000000
0.000000
0.000000
0.000000
0.000000
0.000000
0.000000
0.000000
0.000000
0.000000
0.000000
0.000000
0.000000
0.000000
0.000000
0.000000
0.000000
0.000000
0.000000
0.000000
0.000000
0.000000
0.000000
0.000000
0.000000
0.000000
0.000000
0.000000
0.000000
0.000000
0.000000
0.000000
0.000000
0.000000
0.000000
0.000000
0.000000
0.000000
0.000000
0.000000
0.000000
0.000000
0.000000
0.000000
0.000000
0.000000
0.000000
0.000000
0.000000
0.000000
0.000000
0.000000
0.000000
0.000000
0.000000
0.000000
0.000000
0.000000
0.000000
0.000000
0.000000
0.000000
0.000000
0.000000
0.000000
0.000000
0.000000
0.000000
0.000000
0.000000
0.000000
0.000000
0.000000
0.000000
0.000000
0.000000
0.000000
0.000000
0.000000
0.000000
0.000000
0.000000
0.000000
0.000000
0.000000
0.000000
0.000000
0.000000
0.000000
0.000000
0.000000
0.000000
0.000000
0.000000
0.000000
0.000000
0.000000
0.000000
0.000000
0.000000
0.000000
0.000000
0.000000
0.000000
0.000000
0.000000
0.000000
0.000000
0.000000
0.000000
0.000000
0.000000
</DataArray>
<DataArray NumberOfComponents='1' type='Float32' Name='pressure' format='ascii'>
0.000000
0.000000
0.000000
0.000000
0.000000
0.000000
0.000000
0.000000
0.000000
0.000000
0.000000
0.000000
0.000000
0.000000
0.000000
0.000000
0.000000
0.000000
0.000000
0.000000
0.000000
0.000000
0.000000
0.000000
0.000000
0.000000
0.000000
0.000000
0.000000
0.000000
0.000000
0.000000
0.000000
0.000000
0.000000
0.000000
0.000000
0.000000
0.000000
0.000000
0.000000
0.000000
0.000000
0.000000
0.000000
0.000000
0.000000
0.000000
0.000000
0.000000
0.000000
0.000000
0.000000
0.000000
0.000000
0.000000
0.000000
0.000000
5398.362305
5366.004395
5338.697754
5094.536621
4881.277832
4668.413086
4413.561035
4196.992188
3958.841553
3727.857666
3481.033691
3264.156250
3007.004883
2701.292725
2528.077148
2263.459961
2005.508667
1623.848633
1392.680298
879.462769
662.544617
432.111420
953.952148
1265.965332
1377.444702
0.000000
0.000000
0.000000
5416.392578
5456.047852
5409.263672
5106.928223
4882.314453
4650.509766
4405.767578
4182.817871
3945.900879
3707.984375
3470.409180
3270.238770
3006.050293
2657.160400
2517.790527
2217.297363
2095.367432
1716.778198
1632.803711
1025.588623
993.996399
767.062622
336.749359
349.376160
0.000000
0.000000
0.000000
0.000000
5433.396484
5429.135742
5228.623535
4905.925293
4709.300293
4414.320801
4196.729492
3910.946045
3693.773438
3422.528320
3193.593506
2949.269287
2702.101807
2527.371582
2269.469971
1975.390259
1803.237915
1547.023682
1286.971802
1257.329956
901.459473
823.380798
552.519531
0.000000
0.000000
0.000000
0.000000
0.000000
5495.969727
5561.739258
5400.852051
5089.912109
4913.318359
4606.789551
4447.835449
4126.759766
3970.952637
3675.896484
3456.210693
3232.072510
2956.180908
2726.010254
2417.042236
2286.999023
1938.877441
1750.679077
1462.612549
1201.794556
809.123047
770.608459
298.118073
346.001740
0.000000
0.000000
0.000000
0.000000
5427.396484
5440.171387
5225.874023
4918.495605
4731.909668
4403.752441
4240.011719
3906.875732
3734.977539
3432.806641
3244.637939
2971.734863
2741.079102
2573.965332
2272.863525
2116.234375
1808.552856
1693.950806
1339.421997
1301.243164
986.252502
954.009094
465.934326
382.450073
0.000000
0.000000
0.000000
0.000000
5535.634766
5587.976562
5380.386230
5078.596680
4898.416016
4580.119141
4430.604004
4086.309082
3948.738525
3613.032959
3430.452637
3162.401367
2903.452148
2663.334717
2370.430664
2200.811768
1854.888184
1720.714966
1361.199341
1239.545654
729.872314
764.463928
397.324280
158.468857
0.000000
0.000000
0.000000
0.000000
5423.772949
5437.302734
5233.243164
4931.192383
4739.591309
4419.138184
4256.967285
3913.424805
3774.744629
3432.453613
3292.820312
2974.347900
2811.823242
2557.316162
2315.542480
2132.694824
1811.605103
1726.981567
1310.377197
1299.478394
910.164246
927.335144
323.536438
366.365326
0.000000
0.000000
0.000000
0.000000
5492.674805
5532.802246
5371.350098
5046.684570
4875.871582
4558.496582
4393.852539
4069.789551
3904.298584
3582.939453
3395.619873
3109.589355
2861.153809
2646.321045
2322.570801
2197.234619
1816.850098
1681.619507
1374.627197
1218.853516
788.880066
679.179199
456.401917
144.110245
0.000000
0.000000
0.000000
0.000000
5432.199219
5446.583984
5246.999023
4940.058594
4751.665039
4436.324707
4264.279297
3939.910156
3778.760010
3470.687500
3297.454102
3017.183594
2811.657715
2579.550537
2340.076660
2088.437500
1881.646729
1674.510498
1328.543823
1180.451782
958.690552
745.159729
389.458130
275.735870
0.000000
0.000000
0.000000
0.000000
5472.897461
5517.953613
5355.771973
5022.661621
4859.180664
4527.854492
4380.767578
4030.251953
3892.974121
3535.500488
3383.202148
3054.141357
2881.514160
2558.906006
2352.620850
2160.176758
1768.051758
1670.130371
1353.382935
1193.774292
816.418579
590.009827
483.148773
26.765944
0.000000
0.000000
0.000000
0.000000
5412.357422
5436.588867
5272.791992
4917.664551
4792.787109
4412.005859
4300.885742
3934.325195
3805.638916
3471.643066
3335.944824
3001.515381
2821.068115
2610.335938
2269.686523
2144.875000
1827.429688
1685.845337
1310.729370
1134.948608
903.812988
698.011780
404.915497
143.742538
0.000000
0.000000
0.000000
0.000000
5446.284180
5476.574707
5358.291504
4987.658203
4850.964355
4509.104004
4354.343262
4022.278320
3853.060791
3534.988525
3319.038330
3084.755859
2815.135254
2580.208740
2348.535889
2120.537598
1804.999023
1621.218262
1355.111816
1171.479980
826.340210
594.542542
473.350311
62.215412
0.000000
0.000000
0.000000
0.000000
5399.096191
5410.083008
5276.149414
4934.635742
4780.459473
4437.999023
4284.589355
3968.604492
3780.808350
3513.125244
3323.413086
3006.348877
2848.559326
2541.512939
2338.327881
2068.291260
1845.465088
1636.799438
1313.293457
1112.614624
943.571228
603.620178
436.275757
97.231956
0.000000
0.000000
0.000000
0.000000
5452.801758
5497.876953
5326.199707
4979.785645
4836.479004
4489.181152
4350.215820
3988.647461
3865.894287
3485.330322
3337.860352
3024.075684
2854.164795
2528.805176
2343.019287
2112.097412
1801.968872
1612.300171
1355.712769
1119.843018
858.586792