<?xml version='1.0' encoding='UTF-8'?>
<VTKFile xmlns='VTK' byte_order='LittleEndian' version='0.1' type='UnstructuredGrid'>
<UnstructuredGrid>
<Piece NumberOfCells='1344' NumberOfPoints='1344'>
<Points>
<DataArray NumberOfComponents='3' type='Float32' Name='Position' format='ascii'>
-0.075000 -0.075000 0.000000
-0.075000 -0.050000 0.000000
-0.075000 -0.025000 0.000000
-0.075000 0.000000 0.000000
-0.075000 0.025000 0.000000
-0.075000 0.050000 0.000000
-0.075000 0.075000 0.000000
-0.075000 0.100000 0.000000
-0.075000 0.125000 0.000000
-0.075000 0.150000 0.000000
-0.075000 0.175000 0.000000
-0.075000 0.200000 0.000000
-0.075000 0.225000 0.000000
-0.075000 0.250000 0.000000
-0.075000 0.275000 0.000000
-0.075000 0.300000 0.000000
-0.075000 0.325000 0.000000
-0.075000 0.350000 0.000000
-0.075000 0.375000 0.000000
-0.075000 0.400000 0.000000
-0.075000 0.425000 0.000000
-0.075000 0.450000 0.000000
-0.075000 0.475000 0.000000
-0.075000 0.500000 0.000000
-0.075000 0.525000 0.000000
-0.075000 0.550000 0.000000
-0.075000 0.575000 0.000000
-0.075000 0.600000 0.000000
-0.050000 -0.075000 0.000000
-0.050000 -0.050000 0.000000
-0.050000 -0.025000 0.000000
-0.050000 0.000000 0.000000
-0.050000 0.025000 0.000000
-0.050000 0.050000 0.000000
-0.050000 0.075000 0.000000
-0.050000 0.100000 0.000000
-0.050000 0.125000 0.000000
-0.050000 0.150000 0.000000
-0.050000 0.175000 0.000000
-0.050000 0.200000 0.000000
-0.050000 0.225000 0.000000
-0.050000 0.250000 0.000000
-0.050000 0.275000 0.000000
-0.050000 0.300000 0.000000
-0.050000 0.325000 0.000000
-0.050000 0.350000 0.000000
-0.050000 0.375000 0.000000
-0.050000 0.400000 0.000000
-0.050000 0.425000 0.000000
-0.050000 0.450000 0.000000
-0.050000 0.475000 0.000000
-0.050000 0.500000 0.000000
-0.050000 0.525000 0.000000
-0.050000 0.550000 0.000000
-0.050000 0.575000 0.000000
-0.050000 0.600000 0.000000
-0.025000 -0.075000 0.000000
-0.025000 -0.050000 0.000000
-0.025000 -0.025000 0.000000
-0.025000 0.000000 0.000000
-0.025000 0.025000 0.000000
-0.025000 0.050000 0.000000
-0.025000 0.075000 0.000000
-0.025000 0.100000 0.000000
-0.025000 0.125000 0.000000
-0.025000 0.150000 0.000000
-0.025000 0.175000 0.000000
-0.025000 0.200000 0.000000
-0.025000 0.225000 0.000000
-0.025000 0.250000 0.000000
-0.025000 0.275000 0.000000
-0.025000 0.300000 0.000000
-0.025000 0.325000 0.000000
-0.025000 0.350000 0.000000
-0.025000 0.375000 0.000000
-0.025000 0.400000 0.000000
-0.025000 0.425000 0.000000
-0.025000 0.450000 0.000000
-0.025000 0.475000 0.000000
-0.025000 0.500000 0.000000
-0.025000 0.525000 0.000000
-0.025000 0.550000 0.000000
-0.025000 0.575000 0.000000
-0.025000 0.600000 0.000000
0.000000 -0.075000 0.000000
0.000000 -0.050000 0.000000
0.000000 -0.025000 0.000000
0.000000 0.000000 0.000000
0.000000 0.025000 0.000000
0.000000 0.050000 0.000000
0.000000 0.075000 0.000000
0.000000 0.100000 0.000000
0.000000 0.125000 0.000000
0.000000 0.150000 0.000000
0.000000 0.175000 0.000000
0.000000 0.200000 0.000000
0.000000 0.225000 0.000000
0.000000 0.250000 0.000000
0.000000 0.275000 0.000000
0.000000 0.300000 0.000000
0.000000 0.325000 0.000000
0.000000 0.350000 0.000000
0.000000 0.375000 0.000000
0.000000 0.400000 0.000000
0.000000 0.425000 0.000000
0.000000 0.450000 0.000000
0.000000 0.475000 0.000000
0.000000 0.500000 0.000000
0.000000 0.525000 0.000000
0.000000 0.550000 0.000000
0.000000 0.575000 0.000000
0.000000 0.600000 0.000000
0.025000 -0.075000 0.000000
0.025000 -0.050000 0.000000
0.025000 -0.025000 0.000000
0.025000 0.000000 0.000000
0.042472 0.022865 0.000000
0.070558 0.025702 0.000000
0.022997 0.031299 0.000000
0.023215 0.110839 0.000000
0.045992 0.178953 0.000000
0.071129 0.278857 0.000000
0.024187 0.186163 0.000000
0.046883 0.227838 0.000000
0.026173 0.237647 0.000000
0.023837 0.260275 0.000000
0.032469 0.370578 0.000000
0.023557 0.418873 0.000000
0.023550 0.458326 0.000000
0.025343 0.483112 0.000000
0.026211 0.507095 0.000000
0.026383 0.555317 0.000000
0.051378 0.575490 0.000000
0.077416 0.578115 0.000000
0.104414 0.578043 0.000000
0.056091 0.600000 0.000000
0.037826 0.600000 0.000000
0.015225 0.600000 0.000000
0.155298 0.600000 0.000000
0.174741 0.600000 0.000000
0.050000 -0.075000 0.000000
0.050000 -0.050000 0.000000
0.050000 -0.025000 0.000000
0.050000 0.000000 0.000000
0.095273 0.024237 0.000000
0.088231 0.047602 0.000000
0.025183 0.058182 0.000000
0.024319 0.084649 0.000000
0.029126 0.134844 0.000000
0.024940 0.156029 0.000000
0.062795 0.249623 0.000000
0.048736 0.266871 0.000000
0.023879 0.288979 0.000000
0.047693 0.349341 0.000000
0.022106 0.347834 0.000000
0.023041 0.391487 0.000000
0.036152 0.439874 0.000000
0.051100 0.464563 0.000000
0.051567 0.491367 0.000000
0.023440 0.531316 0.000000
0.048195 0.540154 0.000000
0.107701 0.534380 0.000000
0.026107 0.579202 0.000000
0.096066 0.600000 0.000000
0.115866 0.600000 0.000000
0.075590 0.600000 0.000000
0.186585 0.579141 0.000000
0.194448 0.600000 0.000000
0.075000 -0.075000 0.000000
0.075000 -0.050000 0.000000
0.075000 -0.025000 0.000000
0.075000 0.000000 0.000000
0.117573 0.049317 0.000000
0.059301 0.045693 0.000000
0.045778 0.065278 0.000000
0.051715 0.120647 0.000000
0.074620 0.225388 0.000000
0.053378 0.206391 0.000000
0.126189 0.248233 0.000000
0.023683 0.209375 0.000000
0.045418 0.292928 0.000000
0.024092 0.315808 0.000000
0.074990 0.349061 0.000000
0.069588 0.322967 0.000000
0.045925 0.399313 0.000000
0.052796 0.421730 0.000000
0.067171 0.446907 0.000000
0.071745 0.478720 0.000000
0.139039 0.531131 0.000000
0.122647 0.551959 0.000000
0.067463 0.553038 0.000000
0.093474 0.554102 0.000000
0.130922 0.577231 0.000000
0.135821 0.600000 0.000000
0.214508 0.600000 0.000000
0.233984 0.600000 0.000000
0.100000 -0.075000 0.000000
0.100000 -0.050000 0.000000
0.100000 -0.025000 0.000000
0.100000 0.000000 0.000000
0.135582 0.078516 0.000000
0.070316 0.129865 0.000000
0.068985 0.172631 0.000000
0.046991 0.097399 0.000000
0.076265 0.198850 0.000000
0.049775 0.155133 0.000000
0.092592 0.282399 0.000000
0.107426 0.263938 0.000000
0.088694 0.246958 0.000000
0.043004 0.325803 0.000000
0.081330 0.384582 0.000000
0.059988 0.369616 0.000000
0.080961 0.430953 0.000000
0.090498 0.464962 0.000000
0.099697 0.487165 0.000000
0.077375 0.507033 0.000000
0.052081 0.515538 0.000000
0.078062 0.530338 0.000000
0.165135 0.525101 0.000000
0.189170 0.533296 0.000000
0.148986 0.552529 0.000000
0.158275 0.577680 0.000000
0.245848 0.578139 0.000000
0.252597 0.600000 0.000000
0.125000 -0.075000 0.000000
0.125000 -0.050000 0.000000
0.125000 -0.025000 0.000000
0.125000 0.000000 0.000000
0.118057 0.099393 0.000000
0.103022 0.067036 0.000000
0.080319 0.151714 0.000000
0.134109 0.227094 0.000000
0.099725 0.228351 0.000000
0.156557 0.210761 0.000000
0.141954 0.264160 0.000000
0.094722 0.321977 0.000000
0.070846 0.302124 0.000000
0.093952 0.362419 0.000000
0.101325 0.409954 0.000000
0.070311 0.403258 0.000000
0.128491 0.437553 0.000000
0.114689 0.459520 0.000000
0.148053 0.454034 0.000000
0.125594 0.479114 0.000000
0.102737 0.510674 0.000000
0.126621 0.506913 0.000000
0.149534 0.505195 0.000000
0.200833 0.556365 0.000000
0.217175 0.577191 0.000000
0.173068 0.552010 0.000000
0.274422 0.577048 0.000000
0.272375 0.600000 0.000000
0.150000 -0.075000 0.000000
0.150000 -0.050000 0.000000
0.150000 -0.025000 0.000000
0.150000 0.000000 0.000000
0.122280 0.025372 0.000000
0.142216 0.100727 0.000000
0.098113 0.089613 0.000000
0.071543 0.069999 0.000000
0.097336 0.181074 0.000000
0.100815 0.204106 0.000000
0.126537 0.206569 0.000000
0.158206 0.238978 0.000000
0.122589 0.283826 0.000000
0.109092 0.303799 0.000000
0.140748 0.343408 0.000000
0.104517 0.433986 0.000000
0.106442 0.385724 0.000000
0.124666 0.411419 0.000000
0.133571 0.388730 0.000000
0.154726 0.432028 0.000000
0.175107 0.466143 0.000000
0.150217 0.478542 0.000000
0.190348 0.509123 0.000000
0.215864 0.510211 0.000000
0.215503 0.534849 0.000000
0.231293 0.554183 0.000000
0.291765 0.600000 0.000000
0.310871 0.600000 0.000000
0.175000 -0.075000 0.000000
0.175000 -0.050000 0.000000
0.175000 -0.025000 0.000000
0.175000 0.000000 0.000000
0.146795 0.023193 0.000000
0.161399 0.082601 0.000000
0.120101 0.124286 0.000000
0.088381 0.112341 0.000000
0.099942 0.134675 0.000000
0.106628 0.160810 0.000000
0.153720 0.183447 0.000000
0.154860 0.156446 0.000000
0.175703 0.192188 0.000000
0.176306 0.224630 0.000000
0.162200 0.271013 0.000000
0.107778 0.340600 0.000000
0.145745 0.370666 0.000000
0.189698 0.397522 0.000000
0.153274 0.405963 0.000000
0.178656 0.441929 0.000000
0.226646 0.457592 0.000000
0.201359 0.461091 0.000000
0.171171 0.492523 0.000000
0.197973 0.483212 0.000000
0.239554 0.507501 0.000000
0.243663 0.532558 0.000000
0.331499 0.575492 0.000000
0.330329 0.600000 0.000000
0.200000 -0.075000 0.000000
0.200000 -0.050000 0.000000
0.200000 -0.025000 0.000000
0.200000 0.000000 0.000000
0.160476 0.041159 0.000000
0.139290 0.053747 0.000000
0.193600 0.112713 0.000000
0.069343 0.091436 0.000000
0.170179 0.133680 0.000000
0.129868 0.184864 0.000000
0.261894 0.128934 0.000000
0.259627 0.107076 0.000000
0.178242 0.170274 0.000000
0.184015 0.246103 0.000000
0.167782 0.294449 0.000000
0.142878 0.297766 0.000000
0.127193 0.323088 0.000000
0.154128 0.317470 0.000000
0.122483 0.360119 0.000000
0.175582 0.415314 0.000000
0.202515 0.433445 0.000000
0.222784 0.484085 0.000000
0.263325 0.504975 0.000000
0.286646 0.511315 0.000000
0.269827 0.531493 0.000000
0.259076 0.553326 0.000000
0.359665 0.577686 0.000000
0.349184 0.600000 0.000000
0.225000 -0.075000 0.000000
0.225000 -0.050000 0.000000
0.225000 -0.025000 0.000000
0.225000 0.000000 0.000000
0.183988 0.023821 0.000000
0.170410 0.063567 0.000000
0.140697 0.137238 0.000000
0.129094 0.158569 0.000000
0.203092 0.080340 0.000000
0.216197 0.099704 0.000000
0.244168 0.153058 0.000000
0.199328 0.133266 0.000000
0.194973 0.154747 0.000000
0.207266 0.183286 0.000000
0.188216 0.271793 0.000000
0.189294 0.338529 0.000000
0.164654 0.342302 0.000000
0.178516 0.364334 0.000000
0.167794 0.384192 0.000000
[...]
<PointData>
<DataArray NumberOfComponents='1' type='Int32' Name='ParticleType' format='ascii'>
3
3
3
3
3
3
3
3
3
3
3
3
3
3
3
3
3
3
3
3
3
3
3
3
3
3
3
3
3
3
3
3
3
3
3
3
3
3
3
3
3
3
3
3
3
3
3
3
3
3
3
3
3
3
3
3
3
3
2
2
2
2
2
2
2
2
2
2
2
2
2
2
2
2
2
2
2
2
2
2
2
2
2
2
3
3
2
2
2
2
2
2
2
2
2
2
2
2
2
2
2
2
2
2
2
2
2
2
2
2
2
2
3
3
2
2
0
0
0
0
0
0
0
0
0
0
0
0
0
0
0
0
0
0
0
0
0
0
0
0
3
3
2
2
0
0
0
0
0
0
0
0
0
0
0
0
0
0
0
0
0
0
0
0
0
0
0
0
3
3
2
2
0
0
0
0
0
0
0
0
0
0
0
0
0
0
0
0
0
0
0
0
0
0
0
0
3
3
2
2
0
0
0
0
0
0
0
0
0
0
0
0
0
0
0
0
0
0
0
0
0
0
0
0
3
3
2
2
0
0
0
0
0
0
0
0
0
0
0
0
0
0
0
0
0
0
0
0
0
0
0
0
3
3
2
2
0
0
0
0
0
0
0
0
0
0
0
0
0
0
0
0
0
0
0
0
0
0
0
0
3
3
2
2
0
0
0
0
0
0
0
0
0
0
0
0
0
0
0
0
0
0
0
0
0
0
0
0
3
3
2
2
0
0
0
0
0
0
0
0
0
0
0
0
0
0
0
0
0
0
0
0
0
0
0
0
3
3
2
2
0
0
0
0
0
0
0
0
0
0
0
0
0
0
0
0
0
0
0
0
0
0
0
0
3
3
2
2
0
0
0
0
0
0
0
0
0
0
0
0
0
0
0
0
0
0
0
0
0
0
0
0
3
3
2
2
0
0
0
0
0
0
0
0
0
0
0
0
0
0
0
0
0
0
0
0
0
0
0
0
3
3
2
2
0
0
0
0
0
0
0
0
0
0
0
0
0
0
0
0
0
0
0
0
0
0
0
0
3
3
2
2
0
0
0
0
0
0
0
0
0
0
0
0
0
0
0
0
0
0
0
0
0
0
0
0
3
3
2
2
0
0
0
0
0
0
0
0
0
0
0
0
0
0
0
0
0
0
0
0
0
0
0
0
3
3
2
2
0
0
0
0
0
0
0
0
0
0
0
0
0
0
0
0
0
0
0
0
0
0
0
0
3
3
2
2
0
0
0
0
0
0
0
0
0
0
0
0
0
0
0
0
0
0
0
0
0
0
0
0
3
3
2
2
0
0
0
0
0
0
0
0
0
0
0
0
0
0
0
0
0
0
0
0
0
0
0
0
3
3
2
2
0
0
0
0
0
0
0
0
0
0
0
0
0
0
0
0
0
0
0
0
0
0
0
0
3
3
2
2
0
0
0
0
0
0
0
0
0
0
0
0
0
0
0
0
0
0
0
0
0
0
0
0
3
3
2
2
0
0
0
0
0
0
0
0
0
0
0
0
0
0
0
0
0
0
0
0
0
0
0
0
3
3
2
2
0
0
0
0
0
0
0
0
0
0
0
0
0
0
0
0
0
0
0
0
0
0
0
0
3
3
2
2
0
0
0
0
0
0
0
0
0
0
0
0
0
0
0
0
0
0
0
0
0
0
0
0
3
3
2
2
0
0
0
0
0
0
0
0
0
0
0
0
0
0
0
0
0
0
0
0
0
0
0
0
3
3
2
2
0
0
0
0
0
0
0
0
0
0
0
0
0
0
0
0
0
0
0
0
0
0
0
0
3
3
2
2
0
0
0
0
0
0
0
0
0
0
0
0
0
0
0
0
0
0
0
0
0
0
0
0
3
3
2
2
0
0
0
0
0
0
0
0
0
0
0
0
0
0
0
0
0
0
0
0
0
0
0
0
3
3
2
2
0
0
0
0
0
0
0
0
0
0
0
0
0
0
0
0
0
0
0
0
0
0
0
0
3
3
2
2
0
0
0
0
0
0
0
0
0
0
0
0
0
0
0
0
0
0
0
0
0
0
0
0
3
3
2
2
0
0
0
0
0
0
0
0
0
0
0
0
0
0
0
0
0
0
0
0
0
0
0
0
3
3
2
2
0
0
0
0
0
0
0
0
0
0
0
0
0
0
0
0
0
0
0
0
0
0
0
0
3
3
2
2
0
0
0
0
0
0
0
0
0
0
0
0
0
0
0
0
0
0
0
0
0
0
0
0
3
3
2
2
0
0
0
0
0
0
0
0
0
0
0
0
0
0
0
0
0
0
0
0
0
0
0
0
3
3
2
2
0
0
0
0
0
0
0
0
0
0
0
0
0
0
0
0
0
0
0
0
0
0
0
0
3
3
2
2
0
0
0
0
0
0
0
0
0
0
0
0
0
0
0
0
0
0
0
0
0
0
0
0
3
3
2
2
0
0
0
0
0
0
0
0
0
0
0
0
0
0
0
0
0
0
0
0
0
0
0
0
3
3
2
2
0
0
0
0
0
0
0
0
0
0
0
0
0
0
0
0
0
0
0
0
0
0
0
0
3
3
2
2
0
0
0
0
0
0
0
0
0
0
0
0
0
0
0
0
0
0
0
0
0
0
0
0
3
3
2
2
0
0
0
0
0
0
0
0
0
0
0
0
0
0
0
0
0
0
0
0
0
0
0
0
3
3
2
2
0
0
0
0
0
0
0
0
0
0
0
0
0
0
0
0
0
0
0
0
0
0
0
0
3
3
2
2
0
0
0
0
0
0
0
0
0
0
0
0
0
0
0
0
0
0
0
0
0
0
0
0
3
3
2
2
2
2
2
2
2
2
2
2
2
2
2
2
2
2
2
2
2
2
2
2
2
2
2
2
3
3
2
2
2
2
2
2
2
2
2
2
2
2
2
2
2
2
2
2
2
2
2
2
2
2
2
2
3
3
3
3
3
3
3
3
3
3
3
3
3
3
3
3
3
3
3
3
3
3
3
3
3
3
3
3
3
3
3
3
3
3
3
3
3
3
3
3
3
3
3
3
3
3
3
3
3
3
3
3
3
3
3
3
</DataArray>
<DataArray NumberOfComponents='1' type='Float32' Name='Velocity' format='ascii'>
0.000000
0.000000
0.000000
0.000000
0.000000
0.000000
0.000000
0.000000
0.000000
0.000000
0.000000
0.000000
0.000000
0.000000
0.000000
0.000000
0.000000
0.000000
0.000000
0.000000
0.000000
0.000000
0.000000
0.000000
0.000000
0.000000
0.000000
0.000000
0.000000
0.000000
0.000000
0.000000
0.000000
0.000000
0.000000
0.000000
0.000000
0.000000
0.000000
0.000000
0.000000
0.000000
0.000000
0.000000
0.000000
0.000000
0.000000
0.000000
0.000000
0.000000
0.000000
0.000000
0.000000
0.000000
0.000000
0.000000
0.000000
0.000000
0.000000
0.000000
0.000000
0.000000
0.000000
0.000000
0.000000
0.000000
0.000000
0.000000
0.000000
0.000000
0.000000
0.000000
0.000000
0.000000
0.000000
0.000000
0.000000
0.000000
0.000000
0.000000
0.000000
0.000000
0.000000
0.000000
0.000000
0.000000
0.000000
0.000000
0.000000
0.000000
0.000000
0.000000
0.000000
0.000000
0.000000
0.000000
0.000000
0.000000
0.000000
0.000000
0.000000
0.000000
0.000000
0.000000
0.000000
0.000000
0.000000
0.000000
0.000000
0.000000
0.000000
0.000000
0.000000
0.000000
0.000000
0.000000
0.038978
0.201306
0.106500
0.366419
0.333910
0.138469
0.264213
0.175415
0.226827
0.176553
0.099476
0.215287
0.036550
0.203673
0.119387
0.465390
0.100000
0.100000
0.100000
0.100000
0.100000
0.100000
0.100000
0.100000
0.000000
0.000000
0.000000
0.000000
0.283829
0.157140
0.159532
0.339006
0.234947
0.097310
0.181356
0.218290
0.178387
0.088458
0.263863
0.379525
0.089754
0.239577
0.238547
0.078394
0.563203
0.724919
0.100000
0.100000
0.100000
0.100000
0.100000
0.100000
0.000000
0.000000
0.000000
0.000000
0.053961
0.251700
0.352820
0.093880
0.007890
0.042362
0.261096
0.192142
0.111321
0.212972
0.422616
0.105859
0.380627
0.224580
0.283888
0.259633
0.597197
0.468153
0.144024
0.112154
0.100000
0.100000
0.100000
0.100000
0.000000
0.000000
0.000000
0.000000
0.046969
0.147144
0.213624
0.245941
0.100593
0.522494
0.264358
0.317899
0.070165
0.006004
0.288739
0.098035
0.217115
0.205940
0.178644
0.209103
0.291932
0.615812
0.482852
0.342276
0.320015
0.100000
0.100000
0.100000
0.000000
0.000000
0.000000
0.000000
0.084660
0.052814
0.156572
0.091249
0.071161
0.103686
0.110337
0.221843
0.123629
0.304524
0.195371
0.195028
0.065828
0.103231
0.204439
0.279095
0.177703
0.055947
0.082318
0.292375
0.100000
0.244390
0.100000
0.100000
0.000000
0.000000
0.000000
0.000000
0.083781
0.113299
0.176666
0.199167
0.141984
0.260071
0.207328
0.143717
0.110503
0.252825
0.265003
0.286006
0.241808
0.125895
0.110323
0.118259
0.230467
0.174412
0.093642
0.239856
0.432873
0.281565
0.100000
0.100000
0.000000
0.000000
0.000000
0.000000
0.288619
0.178494
0.217881
0.305268
0.174572
0.061930
0.115996
0.134618
0.198866
0.176379
0.125344
0.028633
0.162583
0.223391
0.176102
0.226577
0.222415
0.068444
0.264448
0.181861
0.192693
0.122328
0.100000
0.100000
0.000000
0.000000
0.000000
0.000000
0.220073
0.072931
0.188754
0.268989
0.057267
0.199176
0.236806
0.128235
0.160937
0.070489
0.206628
0.121407
0.153344
0.210876
0.269730
0.249232
0.061357
0.345349
0.256234
0.307002
0.231457
0.014366
0.100000
0.100000
0.000000
0.000000
0.000000
0.000000
0.076353
0.046768
0.084317
0.137958
0.129318
0.196529
0.079659
0.168160
0.052123
0.094651
0.051043
0.315363
0.195974
0.262545
0.173526
0.123144
0.321040
0.127739
0.185450
0.206552
0.160160
0.109694
0.100000
0.100000
0.000000
0.000000
0.000000
0.000000
0.254650
0.130313
0.148846
0.124592
0.108218
0.093312
0.064941
0.242383
0.182805
0.198982
0.071299
0.328357
0.040399
0.203043
0.211260
0.265842
0.161857
0.047830
0.115199
0.140627
0.223028
0.400896
0.100000
0.100000
0.000000
0.000000
0.000000
0.000000
0.196121
0.191367
0.083922
0.233910
0.134139
0.037846
0.194768
0.140693
0.029223
0.157563
0.289267
0.069572
0.103335
0.095943
0.223392
0.124207
0.270304
0.241559
0.146217
0.080056
0.084851
0.100000
0.100000
0.100000
0.000000
0.000000
0.000000
0.000000
0.161716
0.191563
0.114182
0.130686
0.406977
0.377608
0.166940
0.149874
0.022737
0.097236
0.181005
0.237622
0.068106
0.222076
0.111549
0.171123
0.160454
0.121090
0.070401
0.278338
0.239790
0.232075
0.188921
0.100000
0.000000
0.000000
0.000000
0.000000
0.140744
0.061719
0.101346
0.205288
0.250956
0.202466
0.055650
0.240069
0.083366
0.232108
0.246568
0.149167
0.234250
0.068680
0.234605
0.146758
0.142860
0.209524
0.152640
0.195118
0.225057
0.208495
0.100000
0.100000
0.000000
0.000000
0.000000
0.000000
0.146496
0.195622
0.140065
0.195160
0.069101
0.151877
0.183708
0.235288
0.034593
0.196899
0.168883
0.212783
0.074957
0.046676
0.106089
0.128713
0.147840
0.132082
0.061684
0.119522
0.258100
0.100000
0.062625
0.100000
0.000000
0.000000
0.000000
0.000000
0.240248
0.070004
0.114031
0.206334
0.049641
0.207909
0.012942
0.163372
0.092479
0.140439
0.199283
0.072468
0.170204
0.074800
0.124161
0.250334
0.274192
0.169145
0.186346
0.046553
0.135825
0.158418
0.100000
0.100000
0.000000
0.000000
0.000000
0.000000
0.151683
0.015098
0.108940
0.070074
0.086032
0.172374
0.066104
0.167966
0.113563
0.191463
0.183851
0.274735
0.383837
0.063048
0.258516
0.143003
0.249895
0.085892
0.254748
0.170490
0.130292
0.178196
0.100000
0.100000
0.000000
0.000000
0.000000
0.000000
0.072339
0.175726
0.098504
0.175269
0.169851
0.093185
0.032722
0.157240
0.144114
0.295397
0.285018
0.330934
0.097208
0.081991
0.216607
0.210275
0.100692
0.145236
0.062827
0.199459
0.312362
0.100000
0.186341
0.100000
0.000000
0.000000
0.000000
0.000000
0.098808
0.125412
0.067817
0.099085
0.087386
0.098332
0.160599
0.060353
0.081191
0.083035
0.273221
0.128005
0.181117
0.121341
0.030936
0.076575
0.132808
0.163563
0.151752
0.284312
0.185778
0.191736
0.313992
0.100000
0.000000
0.000000
0.000000
0.000000
0.073689
0.134826
0.069183
0.095597
0.170106
0.180224
0.166039
0.129002
0.120398
0.120440
0.111323
0.045650
0.277931
0.337436
0.109708
0.043938
0.191835
0.303736
0.144594
0.260814
0.252480
0.179800
0.271011
0.100000
0.000000
0.000000
0.000000
0.000000
0.046249
0.026311
0.027080
0.106128
0.184468
0.112895
0.075895
0.240466
0.108503
0.212082
0.264524
0.109964
0.099141
0.102032
0.191997
0.149683
0.167420
0.081745
0.071085
0.368086
0.044137
0.115541
0.100000
0.100000
0.000000
0.000000
0.000000
0.000000
0.096214
0.159925
0.097210
0.098563
0.232667
0.042423
0.230818
0.073754
0.319836
0.194812
0.195530
0.087532
0.091479
0.241417
0.041031
0.407689
0.086440
0.317883
0.199527
0.387807
0.117426
0.021757
0.129351
0.100000
0.000000
0.000000
0.000000
0.000000
0.027808
0.158242
0.098944
0.103255
0.100141
0.208849
0.210867
0.106148
0.188071
0.142001
0.173915
0.114586
0.068140
0.205858
0.085480
0.041236
0.135782
0.048477
0.259514
0.388167
0.249346
0.210350
0.298817
0.100000
0.000000
0.000000
0.000000
0.000000
0.170644
0.097030
0.073590
0.049548
0.188137
0.185646
0.151427
0.084297
0.070431
0.128752
0.180708
0.055415
0.090959
0.011579
0.266005
0.039288
0.067801
0.016919
0.109332
0.162832
0.101153
0.533714
0.337517
0.100000
0.000000
0.000000
0.000000
0.000000
0.122344
0.155816
0.095483
0.168631
0.187037
0.136265
0.027331
0.060087
0.091538
0.110988
0.140921
0.095815
0.110719
0.082647
0.129625
0.154671
0.111838
0.321253
0.302255
0.100617
0.224301
0.081783
0.153768
0.100000
0.000000
0.000000
0.000000
0.000000
0.043870
0.012448
0.092175
0.051975
0.337229
0.204514
0.023387
0.174179
0.193425
0.105453
0.130105
0.097562
0.056869
0.090800
0.166017
0.057729
0.217863
0.195938
0.142015
0.130975
0.188021
0.238475
0.111100
0.100000
0.000000
0.000000
0.000000
0.000000
0.185733
0.140084
0.041119
0.189180
0.363543
0.216709
0.219511
0.224936
0.240576
0.101670
0.215493
0.181250
0.110956
0.153978
0.212111
0.009297
0.108106
0.094600
0.104308
0.079088
0.166624
0.292386
0.100000
0.100000
0.000000
0.000000
0.000000
0.000000
0.029804
0.102710
0.216816
0.182253
0.235868
0.199392
0.058162
0.112267
0.247692
0.057708
0.083470
0.168243
0.093507
0.125668
0.126363
0.064555
0.208988
0.042898
0.323964
0.165316
0.060856
0.086134
0.391741
0.100000
0.000000
0.000000
0.000000
0.000000
0.021173
0.070214
0.138180
0.186658
0.183005
0.228790
0.146993
0.055032
0.111233
0.038622
0.199545
0.241043
0.159983
0.106899
0.141688
0.106722
0.042530
0.125377
0.156575
0.260264
0.147249
0.051645
0.379763
0.100000
0.000000
0.000000
0.000000
0.000000
0.070608
0.128090
0.194733
0.138257
0.177226
0.082842
0.123716
0.202550
0.242394
0.051953
0.206103
0.220062
0.087024
0.051004
0.114204
0.030215
0.094337
0.125299
0.041248
0.290810
0.171637
0.297862
0.100000
0.100000
0.000000
0.000000
0.000000
0.000000
0.047723
0.094172
0.321170
0.240886
0.122114
0.046155
0.195191
0.091741
0.188113
0.173594
0.213959
0.209111
0.226780
0.092905
0.098149
0.119328
0.033211
0.117587
0.228869
0.047751
0.531839
0.079674
0.390572
0.100000
0.000000
0.000000
0.000000
0.000000
0.070611
0.151389
0.203739
0.075179
0.106165
0.094063
0.263385
0.114933
0.088864
0.223686
0.088367
0.138776
0.208050
0.111402
0.113434
0.052063
0.133299
0.300431
0.273176
0.155045
0.022396
0.127405
0.382312
0.100000
0.000000
0.000000
0.000000
0.000000
0.133369
0.240748
0.189126
0.082912
0.122345
0.079902
0.055188
0.100333
0.235280
0.138503
0.253149
0.120858
0.147800
0.161137
0.029815
0.149626
0.081936
0.112627
0.056355
0.259252
0.356327
0.236137
0.200917
0.100000
0.000000
0.000000
0.000000
0.000000
0.168635
0.039416
0.035455
0.059985
0.099543
0.024389
0.409386
0.019822
0.180972
0.127545
0.094745
0.066571
0.074964
0.268234
0.140870
0.126720
0.052786
0.182446
0.192023
0.099638
0.217276
0.118400
0.917682
0.100000
0.000000
0.000000
0.000000
0.000000
0.038285
0.038396
0.230374
0.280756
0.144765
0.168975
0.081515
0.080713
0.110946
0.093112
0.156478
0.208047
0.126686
0.168203
0.095232
0.072894
0.207148
0.136996
0.038162
0.210992
0.212671
0.185554
0.269724
0.100000
0.000000
0.000000
0.000000
0.000000
0.074112
0.082393
0.237762
0.061744
0.165672
0.043228
0.276456
0.241721
0.148650
0.336628
0.092060
0.205602
0.069403
0.108818
0.116558
0.206785
0.271540
0.205752
0.312125
0.163561
0.512986
0.169635
0.163803
0.100000
0.000000
0.000000
0.000000
0.000000
0.206679
0.058587
0.110116
0.122208
0.015624
0.220133
0.208651
0.103297
0.239072
0.204542
0.162170
0.231182
0.052056
0.060777
0.142701
0.079243
0.125729
0.130342
0.110871
0.065388
0.063967
0.138119
0.627520
0.100000
0.000000
0.000000
0.000000
0.000000
0.178631
0.132015
0.128484
0.120642
0.325258
0.276176
0.183417
0.247535
0.376146
0.136681
0.101128
0.196324
0.090281
0.163335
0.088826
0.171985
0.250337
0.182976
0.107985
0.132070
0.265611
0.151879
0.479002
0.100000
0.000000
0.000000
0.000000
0.000000
0.055704
0.038718
0.215763
0.065769
0.232352
0.139735
0.071594
0.295059
0.068485
0.093080
0.075638
0.128945
0.095464
0.085089
0.082569
0.123622
0.070781
0.118073
0.172144
0.264966
0.299840
0.170925
0.525647
0.100000
0.000000
0.000000
0.000000
0.000000
0.054952
0.185962
0.152992
0.257098
0.088165
0.187928
0.111148
0.241880
0.047614
0.101921
0.048338
0.127039
0.157154
0.324324
0.231712
0.092575
0.066375
0.141731
0.260269
0.197487
0.256216
0.091963
0.487809
0.100000
0.000000
0.000000
0.000000
0.000000
0.033069
0.076914
0.108227
0.112987
0.204512
0.064492
0.106699
0.146500
0.194715
0.081495
0.053232
0.148154
0.171505
0.360590
0.230783
0.023089
0.037155
0.116947
0.135172
0.035063
0.111340
0.390309
0.102012
0.100000
0.000000
0.000000
0.000000
0.000000
0.000000
0.000000
0.000000
0.000000
0.000000
0.000000
0.000000
0.000000
0.000000
0.000000
0.000000
0.000000
0.000000
0.000000
0.000000
0.000000
0.000000
0.000000
0.000000
0.000000
0.000000
0.000000
0.000000
0.000000
0.000000
0.000000
0.000000
0.000000
0.000000
0.000000
0.000000
0.000000
0.000000
0.000000
0.000000
0.000000
0.000000
0.000000
0.000000
0.000000
0.000000
0.000000
0.000000
0.000000
0.000000
0.000000
0.000000
0.000000
0.000000
0.000000
0.000000
0.000000
0.000000
0.000000
0.000000
0.000000
0.000000
0.000000
0.000000
0.000000
0.000000
0.000000
0.000000
0.000000
0.000000
0.000000
0.000000
0.000000
0.000000
0.000000
0.000000
0.000000
0.000000
0.000000
0.000000
0.000000
0.000000
0.000000
0.000000
0.000000
0.000000
0.000000
0.000000
0.000000
0.000000
0.000000
0.000000
0.000000
0.000000
0.000000
0.000000
0.000000
0.000000
0.000000
0.000000
0.000000
0.000000
0.000000
0.000000
0.000000
0.000000
0.000000
0.000000
0.000000
0.000000
0.000000
0.000000
0.000000
</DataArray>
<DataArray NumberOfComponents='1' type='Float32' Name='pressure' format='ascii'>
0.000000
0.000000
0.000000
0.000000
0.000000
0.000000
0.000000
0.000000
0.000000
0.000000
0.000000
0.000000
0.000000
0.000000
0.000000
0.000000
0.000000
0.000000
0.000000
0.000000
0.000000
0.000000
0.000000
0.000000
0.000000
0.000000
0.000000
0.000000
0.000000
0.000000
0.000000
0.000000
0.000000
0.000000
0.000000
0.000000
0.000000
0.000000
0.000000
0.000000
0.000000
0.000000
0.000000
0.000000
0.000000
0.000000
0.000000
0.000000
0.000000
0.000000
0.000000
0.000000
0.000000
0.000000
0.000000
0.000000
0.000000
0.000000
31595.935547
31824.484375
32660.603516
32358.277344
32311.529297
32672.380859
31755.462891
31435.923828
31445.890625
32312.119141
31568.613281
32102.402344
32481.195312
32689.371094
32563.947266
33219.636719
31360.378906
31246.707031
29897.669922
28568.277344
27240.441406
25754.679688
25641.287109
22896.476562
20144.337891
0.000000
0.000000
0.000000
31497.064453
31155.687500
32697.656250
32232.671875
32712.990234
33243.035156
31356.091797
30743.470703
31280.171875
32160.882812
32112.181641
32047.136719
32629.804688
32442.289062
32274.400391
33536.277344
30373.570312
31624.925781
28849.125000
27972.625000
26972.861328
26052.144531
26880.589844
24545.250000
26470.929688
16021.044922
0.000000
0.000000
31236.181641
30197.787109
32133.923828
31693.203125
32360.845703
31902.394531
31921.949219
30845.886719
32175.097656
31807.957031
31083.462891
31619.339844
30577.736328
28471.759766
28235.138672
26667.738281
25507.035156
24107.410156
22175.835938
25972.330078
24989.263672
0.000000
0.000000
22053.855469
0.000000
0.000000
0.000000
0.000000
32215.525391
32579.664062
31253.464844
31534.765625
31235.753906
31381.167969
31607.951172
31484.382812
30289.785156
30829.593750
31792.822266
31034.451172
31685.843750
32465.234375
28054.990234
25625.345703
25394.203125
26356.412109
23754.488281
22724.019531
28077.406250
15874.383789
12606.290039
15345.577148
16488.763672
6967.288574
0.000000
0.000000
31468.058594
31991.525391
31154.865234
31697.107422
32135.580078
31470.808594
30363.396484
30468.191406
29766.925781
30336.882812
30992.634766
31418.917969
29062.568359
30276.210938
28890.328125
28244.162109
26425.742188
25799.843750
19646.121094
18671.685547
22555.904297
21555.101562
20708.972656
0.000000
7550.006348
0.000000
0.000000
0.000000
31776.712891
31386.740234
30469.052734
31558.576172
31207.099609
31792.523438
30033.636719
29476.013672
29760.617188
29685.884766
29995.958984
31220.068359
28410.625000
29303.216797
26957.003906
26233.763672
23140.082031
24257.896484
24246.554688
21946.566406
18711.486328
19799.396484
17106.613281
16759.833984
19651.341797
0.000000
0.000000
0.000000
31373.412109
31498.324219
31314.902344
31053.861328
31011.220703
30057.607422
29594.025391
29758.898438
29196.513672
28872.878906
30156.798828
28974.439453
26991.302734
27976.892578
25907.853516
24836.095703
24227.779297
23453.015625
24019.636719
22123.197266
21633.005859
15029.935547
17180.144531
14955.876953
27533.738281
18579.671875
0.000000
0.000000
31942.183594
31431.335938
31693.123047
29842.414062
31542.554688
30752.039062
29835.498047
30636.076172
29667.138672
29115.171875
29513.849609
29194.953125
28287.888672
25575.093750
27475.923828
26486.736328
27425.275391
25713.292969
23194.382812
23313.527344
21036.148438
20748.105469
19010.982422
17378.740234
26273.896484
30400.638672
0.000000
0.000000
31364.191406
30248.597656
30800.763672
31120.220703
30128.611328
30430.183594
30564.300781
30642.867188
29231.917969
30067.203125
29284.138672
29258.470703
29338.734375
29261.826172
26781.851562
26329.275391
26511.882812
25120.007812
25052.277344
23849.601562
22632.738281
22685.433594
21981.794922
20339.593750
37574.914062
31714.707031
0.000000
0.000000
31512.957031
31298.080078
30951.904297
30050.843750
29974.494141
31148.541016
29092.177734
29974.208984
30370.779297
29896.394531
30198.193359
28583.816406
29126.701172
28407.751953
28430.408203
28643.197266
27508.941406
25334.642578
25448.703125
21730.304688
22089.187500
23632.064453
22322.703125
20095.908203
36484.054688
31419.375000
0.000000
0.000000
31612.443359
31609.488281
30867.257812
30422.033203
30469.056641
30231.505859
29839.988281
30592.269531
29617.400391
30359.287109
29541.462891
29922.539062
28984.802734
27864.507812
28463.556641
27261.517578
26990.050781
25997.771484
25204.847656
22837.560547
24456.763672
25225.712891
26447.089844
25440.609375
33960.460938
30215.289062
0.000000
0.000000
32080.908203
31704.277344
29676.603516
31053.537109
29828.908203
30064.119141
30436.380859
29256.761719
29519.724609
29214.125000
29164.109375
29118.650391
28926.058594
28068.355469
27269.828125
26768.531250
25689.914062
26680.267578
25811.667969
25045.791016
25738.632812
27113.216797
28564.460938
27157.966797
26835.386719
28043.257812
0.000000
0.000000
31415.800781
30630.546875
31117.572266
29681.427734
30177.804688
31190.791016
29847.734375
30263.248047
29548.935547
29476.980469
29048.910156
28970.011719
27725.398438