<?xml version='1.0' encoding='UTF-8'?>
<VTKFile xmlns='VTK' byte_order='LittleEndian' version='0.1' type='UnstructuredGrid'>
<UnstructuredGrid>
<Piece NumberOfCells='1344' NumberOfPoints='1344'>
<Points>
<DataArray NumberOfComponents='3' type='Float32' Name='Position' format='ascii'>
-0.075000 -0.075000 0.000000
-0.075000 -0.050000 0.000000
-0.075000 -0.025000 0.000000
-0.075000 0.000000 0.000000
-0.075000 0.025000 0.000000
-0.075000 0.050000 0.000000
-0.075000 0.075000 0.000000
-0.075000 0.100000 0.000000
-0.075000 0.125000 0.000000
-0.075000 0.150000 0.000000
-0.075000 0.175000 0.000000
-0.075000 0.200000 0.000000
-0.075000 0.225000 0.000000
-0.075000 0.250000 0.000000
-0.075000 0.275000 0.000000
-0.075000 0.300000 0.000000
-0.075000 0.325000 0.000000
-0.075000 0.350000 0.000000
-0.075000 0.375000 0.000000
-0.075000 0.400000 0.000000
-0.075000 0.425000 0.000000
-0.075000 0.450000 0.000000
-0.075000 0.475000 0.000000
-0.075000 0.500000 0.000000
-0.075000 0.525000 0.000000
-0.075000 0.550000 0.000000
-0.075000 0.575000 0.000000
-0.075000 0.600000 0.000000
-0.050000 -0.075000 0.000000
-0.050000 -0.050000 0.000000
-0.050000 -0.025000 0.000000
-0.050000 0.000000 0.000000
-0.050000 0.025000 0.000000
-0.050000 0.050000 0.000000
-0.050000 0.075000 0.000000
-0.050000 0.100000 0.000000
-0.050000 0.125000 0.000000
-0.050000 0.150000 0.000000
-0.050000 0.175000 0.000000
-0.050000 0.200000 0.000000
-0.050000 0.225000 0.000000
-0.050000 0.250000 0.000000
-0.050000 0.275000 0.000000
-0.050000 0.300000 0.000000
-0.050000 0.325000 0.000000
-0.050000 0.350000 0.000000
-0.050000 0.375000 0.000000
-0.050000 0.400000 0.000000
-0.050000 0.425000 0.000000
-0.050000 0.450000 0.000000
-0.050000 0.475000 0.000000
-0.050000 0.500000 0.000000
-0.050000 0.525000 0.000000
-0.050000 0.550000 0.000000
-0.050000 0.575000 0.000000
-0.050000 0.600000 0.000000
-0.025000 -0.075000 0.000000
-0.025000 -0.050000 0.000000
-0.025000 -0.025000 0.000000
-0.025000 0.000000 0.000000
-0.025000 0.025000 0.000000
-0.025000 0.050000 0.000000
-0.025000 0.075000 0.000000
-0.025000 0.100000 0.000000
-0.025000 0.125000 0.000000
-0.025000 0.150000 0.000000
-0.025000 0.175000 0.000000
-0.025000 0.200000 0.000000
-0.025000 0.225000 0.000000
-0.025000 0.250000 0.000000
-0.025000 0.275000 0.000000
-0.025000 0.300000 0.000000
-0.025000 0.325000 0.000000
-0.025000 0.350000 0.000000
-0.025000 0.375000 0.000000
-0.025000 0.400000 0.000000
-0.025000 0.425000 0.000000
-0.025000 0.450000 0.000000
-0.025000 0.475000 0.000000
-0.025000 0.500000 0.000000
-0.025000 0.525000 0.000000
-0.025000 0.550000 0.000000
-0.025000 0.575000 0.000000
-0.025000 0.600000 0.000000
0.000000 -0.075000 0.000000
0.000000 -0.050000 0.000000
0.000000 -0.025000 0.000000
0.000000 0.000000 0.000000
0.000000 0.025000 0.000000
0.000000 0.050000 0.000000
0.000000 0.075000 0.000000
0.000000 0.100000 0.000000
0.000000 0.125000 0.000000
0.000000 0.150000 0.000000
0.000000 0.175000 0.000000
0.000000 0.200000 0.000000
0.000000 0.225000 0.000000
0.000000 0.250000 0.000000
0.000000 0.275000 0.000000
0.000000 0.300000 0.000000
0.000000 0.325000 0.000000
0.000000 0.350000 0.000000
0.000000 0.375000 0.000000
0.000000 0.400000 0.000000
0.000000 0.425000 0.000000
0.000000 0.450000 0.000000
0.000000 0.475000 0.000000
0.000000 0.500000 0.000000
0.000000 0.525000 0.000000
0.000000 0.550000 0.000000
0.000000 0.575000 0.000000
0.000000 0.600000 0.000000
0.025000 -0.075000 0.000000
0.025000 -0.050000 0.000000
0.025000 -0.025000 0.000000
0.025000 0.000000 0.000000
0.028823 0.023002 0.000000
0.064481 0.021433 0.000000
0.023753 0.043743 0.000000
0.027472 0.109840 0.000000
0.023333 0.186170 0.000000
0.058360 0.234954 0.000000
0.027591 0.212857 0.000000
0.026957 0.235110 0.000000
0.023919 0.283893 0.000000
0.024336 0.311719 0.000000
0.025128 0.360926 0.000000
0.025091 0.383632 0.000000
0.024064 0.411309 0.000000
0.022326 0.440745 0.000000
0.024651 0.472990 0.000000
0.022960 0.506197 0.000000
0.025017 0.533337 0.000000
0.059810 0.537990 0.000000
0.048901 0.558688 0.000000
0.029222 0.580613 0.000000
0.036607 0.600000 0.000000
0.015699 0.600000 0.000000
0.115993 0.600000 0.000000
0.135106 0.600000 0.000000
0.050000 -0.075000 0.000000
0.050000 -0.050000 0.000000
0.050000 -0.025000 0.000000
0.050000 0.000000 0.000000
0.094907 0.024978 0.000000
0.052002 0.039919 0.000000
0.033474 0.067859 0.000000
0.022919 0.085409 0.000000
0.022614 0.136956 0.000000
0.027171 0.163716 0.000000
0.067595 0.215433 0.000000
0.048134 0.262445 0.000000
0.044275 0.297941 0.000000
0.048299 0.325002 0.000000
0.026180 0.337235 0.000000
0.052101 0.379667 0.000000
0.045983 0.404506 0.000000
0.043851 0.430561 0.000000
0.045071 0.458701 0.000000
0.040156 0.489046 0.000000
0.045679 0.517931 0.000000
0.067325 0.508116 0.000000
0.024117 0.556885 0.000000
0.062584 0.579834 0.000000
0.076369 0.600000 0.000000
0.055224 0.600000 0.000000
0.146942 0.578772 0.000000
0.155261 0.600000 0.000000
0.075000 -0.075000 0.000000
0.075000 -0.050000 0.000000
0.075000 -0.025000 0.000000
0.075000 0.000000 0.000000
0.085081 0.046184 0.000000
0.060443 0.060923 0.000000
0.060211 0.086738 0.000000
0.046654 0.135168 0.000000
0.078370 0.174045 0.000000
0.046273 0.201962 0.000000
0.084837 0.196047 0.000000
0.025191 0.256679 0.000000
0.073111 0.252866 0.000000
0.061857 0.278378 0.000000
0.068009 0.311192 0.000000
0.053199 0.354838 0.000000
0.076219 0.371559 0.000000
0.071738 0.400457 0.000000
0.079420 0.420401 0.000000
0.064497 0.442514 0.000000
0.081645 0.490734 0.000000
0.103157 0.511098 0.000000
0.086002 0.526698 0.000000
0.077597 0.553505 0.000000
0.090561 0.577853 0.000000
0.095903 0.600000 0.000000
0.174748 0.600000 0.000000
0.194171 0.600000 0.000000
0.100000 -0.075000 0.000000
0.100000 -0.050000 0.000000
0.100000 -0.025000 0.000000
0.100000 0.000000 0.000000
0.112676 0.035796 0.000000
0.072259 0.116397 0.000000
0.075625 0.141365 0.000000
0.049680 0.106940 0.000000
0.056089 0.179120 0.000000
0.051111 0.155816 0.000000
0.109152 0.222077 0.000000
0.088785 0.225398 0.000000
0.105330 0.252014 0.000000
0.091567 0.267508 0.000000
0.083264 0.295431 0.000000
0.070107 0.343109 0.000000
0.099884 0.366879 0.000000
0.095255 0.388954 0.000000
0.103941 0.420823 0.000000
0.091136 0.442035 0.000000
0.061612 0.474166 0.000000
0.086891 0.467019 0.000000
0.115495 0.535724 0.000000
0.141901 0.531978 0.000000
0.101534 0.553394 0.000000
0.118361 0.576367 0.000000
0.203809 0.578268 0.000000
0.213345 0.600000 0.000000
0.125000 -0.075000 0.000000
0.125000 -0.050000 0.000000
0.125000 -0.025000 0.000000
0.125000 0.000000 0.000000
0.103665 0.064164 0.000000
0.079595 0.073617 0.000000
0.098708 0.128532 0.000000
0.102467 0.179087 0.000000
0.096394 0.151702 0.000000
0.119118 0.200977 0.000000
0.137651 0.219652 0.000000
0.128538 0.246927 0.000000
0.116086 0.276817 0.000000
0.112490 0.301742 0.000000
0.095554 0.316008 0.000000
0.094654 0.340014 0.000000
0.125784 0.370526 0.000000
0.121400 0.395132 0.000000
0.126266 0.416725 0.000000
0.127331 0.443439 0.000000
0.112219 0.458888 0.000000
0.108016 0.484963 0.000000
0.127208 0.509688 0.000000
0.160592 0.552146 0.000000
0.175515 0.576747 0.000000
0.134307 0.555452 0.000000
0.231454 0.575645 0.000000
0.232637 0.600000 0.000000
0.150000 -0.075000 0.000000
0.150000 -0.050000 0.000000
0.150000 -0.025000 0.000000
0.150000 0.000000 0.000000
0.134162 0.021945 0.000000
0.129338 0.060532 0.000000
0.111392 0.085991 0.000000
0.090241 0.101110 0.000000
0.124085 0.155468 0.000000
0.127125 0.180277 0.000000
0.153195 0.205742 0.000000
0.152682 0.240295 0.000000
0.142591 0.267727 0.000000
0.137200 0.291417 0.000000
0.129314 0.322666 0.000000
0.117799 0.344251 0.000000
0.152646 0.375118 0.000000
0.147607 0.400136 0.000000
0.155877 0.422272 0.000000
0.164256 0.443259 0.000000
0.145001 0.458648 0.000000
0.132638 0.482006 0.000000
0.150834 0.502676 0.000000
0.181850 0.509514 0.000000
0.166012 0.526381 0.000000
0.184280 0.551868 0.000000
0.251964 0.600000 0.000000
0.270742 0.600000 0.000000
0.175000 -0.075000 0.000000
0.175000 -0.050000 0.000000
0.175000 -0.025000 0.000000
0.175000 0.000000 0.000000
0.166053 0.023592 0.000000
0.142325 0.045066 0.000000
0.133929 0.093797 0.000000
0.128935 0.134175 0.000000
0.148772 0.117009 0.000000
0.150812 0.151197 0.000000
0.153608 0.178791 0.000000
0.173601 0.163784 0.000000
0.176938 0.214865 0.000000
0.173349 0.244405 0.000000
0.168345 0.270912 0.000000
0.151005 0.326625 0.000000
0.143855 0.350825 0.000000
0.172077 0.387901 0.000000
0.179487 0.414035 0.000000
0.190549 0.437938 0.000000
0.208634 0.457600 0.000000
0.181388 0.461506 0.000000
0.157799 0.479956 0.000000
0.182937 0.486088 0.000000
0.208057 0.510655 0.000000
0.198094 0.532287 0.000000
0.285218 0.576095 0.000000
0.290128 0.600000 0.000000
0.200000 -0.075000 0.000000
0.200000 -0.050000 0.000000
0.200000 -0.025000 0.000000
0.200000 0.000000 0.000000
0.193223 0.024855 0.000000
0.170651 0.044128 0.000000
0.155243 0.069623 0.000000
0.115495 0.111558 0.000000
0.187194 0.118242 0.000000
0.164674 0.134296 0.000000
0.191111 0.142728 0.000000
0.210867 0.155116 0.000000
0.176866 0.187354 0.000000
0.192795 0.267120 0.000000
0.157268 0.299555 0.000000
0.177023 0.322668 0.000000
0.168671 0.350254 0.000000
0.194587 0.337907 0.000000
0.186916 0.364260 0.000000
0.194796 0.394673 0.000000
0.209884 0.424672 0.000000
0.207551 0.482557 0.000000
0.228557 0.495398 0.000000
0.244804 0.514916 0.000000
0.226008 0.532587 0.000000
0.211929 0.553617 0.000000
0.311892 0.575173 0.000000
0.309131 0.600000 0.000000
0.225000 -0.075000 0.000000
0.225000 -0.050000 0.000000
0.225000 -0.025000 0.000000
0.225000 0.000000 0.000000
0.216085 0.024983 0.000000
0.193359 0.054583 0.000000
0.177988 0.074447 0.000000
0.157537 0.094179 0.000000
0.218077 0.093393 0.000000
0.209834 0.118866 0.000000
0.229791 0.160456 0.000000
0.199626 0.177862 0.000000
0.200752 0.206916 0.000000
0.194944 0.231986 0.000000
0.206354 0.289313 0.000000
0.230931 0.299078 0.000000
0.200718 0.312219 0.000000
0.216969 0.348352 0.000000
0.210375 0.370693 0.000000
[...]
<PointData>
<DataArray NumberOfComponents='1' type='Int32' Name='ParticleType' format='ascii'>
3
3
3
3
3
3
3
3
3
3
3
3
3
3
3
3
3
3
3
3
3
3
3
3
3
3
3
3
3
3
3
3
3
3
3
3
3
3
3
3
3
3
3
3
3
3
3
3
3
3
3
3
3
3
3
3
3
3
2
2
2
2
2
2
2
2
2
2
2
2
2
2
2
2
2
2
2
2
2
2
2
2
2
2
3
3
2
2
2
2
2
2
2
2
2
2
2
2
2
2
2
2
2
2
2
2
2
2
2
2
2
2
3
3
2
2
0
0
0
0
0
0
0
0
0
0
0
0
0
0
0
0
0
0
0
0
0
0
0
0
3
3
2
2
0
0
0
0
0
0
0
0
0
0
0
0
0
0
0
0
0
0
0
0
0
0
0
0
3
3
2
2
0
0
0
0
0
0
0
0
0
0
0
0
0
0
0
0
0
0
0
0
0
0
0
0
3
3
2
2
0
0
0
0
0
0
0
0
0
0
0
0
0
0
0
0
0
0
0
0
0
0
0
0
3
3
2
2
0
0
0
0
0
0
0
0
0
0
0
0
0
0
0
0
0
0
0
0
0
0
0
0
3
3
2
2
0
0
0
0
0
0
0
0
0
0
0
0
0
0
0
0
0
0
0
0
0
0
0
0
3
3
2
2
0
0
0
0
0
0
0
0
0
0
0
0
0
0
0
0
0
0
0
0
0
0
0
0
3
3
2
2
0
0
0
0
0
0
0
0
0
0
0
0
0
0
0
0
0
0
0
0
0
0
0
0
3
3
2
2
0
0
0
0
0
0
0
0
0
0
0
0
0
0
0
0
0
0
0
0
0
0
0
0
3
3
2
2
0
0
0
0
0
0
0
0
0
0
0
0
0
0
0
0
0
0
0
0
0
0
0
0
3
3
2
2
0
0
0
0
0
0
0
0
0
0
0
0
0
0
0
0
0
0
0
0
0
0
0
0
3
3
2
2
0
0
0
0
0
0
0
0
0
0
0
0
0
0
0
0
0
0
0
0
0
0
0
0
3
3
2
2
0
0
0
0
0
0
0
0
0
0
0
0
0
0
0
0
0
0
0
0
0
0
0
0
3
3
2
2
0
0
0
0
0
0
0
0
0
0
0
0
0
0
0
0
0
0
0
0
0
0
0
0
3
3
2
2
0
0
0
0
0
0
0
0
0
0
0
0
0
0
0
0
0
0
0
0
0
0
0
0
3
3
2
2
0
0
0
0
0
0
0
0
0
0
0
0
0
0
0
0
0
0
0
0
0
0
0
0
3
3
2
2
0
0
0
0
0
0
0
0
0
0
0
0
0
0
0
0
0
0
0
0
0
0
0
0
3
3
2
2
0
0
0
0
0
0
0
0
0
0
0
0
0
0
0
0
0
0
0
0
0
0
0
0
3
3
2
2
0
0
0
0
0
0
0
0
0
0
0
0
0
0
0
0
0
0
0
0
0
0
0
0
3
3
2
2
0
0
0
0
0
0
0
0
0
0
0
0
0
0
0
0
0
0
0
0
0
0
0
0
3
3
2
2
0
0
0
0
0
0
0
0
0
0
0
0
0
0
0
0
0
0
0
0
0
0
0
0
3
3
2
2
0
0
0
0
0
0
0
0
0
0
0
0
0
0
0
0
0
0
0
0
0
0
0
0
3
3
2
2
0
0
0
0
0
0
0
0
0
0
0
0
0
0
0
0
0
0
0
0
0
0
0
0
3
3
2
2
0
0
0
0
0
0
0
0
0
0
0
0
0
0
0
0
0
0
0
0
0
0
0
0
3
3
2
2
0
0
0
0
0
0
0
0
0
0
0
0
0
0
0
0
0
0
0
0
0
0
0
0
3
3
2
2
0
0
0
0
0
0
0
0
0
0
0
0
0
0
0
0
0
0
0
0
0
0
0
0
3
3
2
2
0
0
0
0
0
0
0
0
0
0
0
0
0
0
0
0
0
0
0
0
0
0
0
0
3
3
2
2
0
0
0
0
0
0
0
0
0
0
0
0
0
0
0
0
0
0
0
0
0
0
0
0
3
3
2
2
0
0
0
0
0
0
0
0
0
0
0
0
0
0
0
0
0
0
0
0
0
0
0
0
3
3
2
2
0
0
0
0
0
0
0
0
0
0
0
0
0
0
0
0
0
0
0
0
0
0
0
0
3
3
2
2
0
0
0
0
0
0
0
0
0
0
0
0
0
0
0
0
0
0
0
0
0
0
0
0
3
3
2
2
0
0
0
0
0
0
0
0
0
0
0
0
0
0
0
0
0
0
0
0
0
0
0
0
3
3
2
2
0
0
0
0
0
0
0
0
0
0
0
0
0
0
0
0
0
0
0
0
0
0
0
0
3
3
2
2
0
0
0
0
0
0
0
0
0
0
0
0
0
0
0
0
0
0
0
0
0
0
0
0
3
3
2
2
0
0
0
0
0
0
0
0
0
0
0
0
0
0
0
0
0
0
0
0
0
0
0
0
3
3
2
2
0
0
0
0
0
0
0
0
0
0
0
0
0
0
0
0
0
0
0
0
0
0
0
0
3
3
2
2
0
0
0
0
0
0
0
0
0
0
0
0
0
0
0
0
0
0
0
0
0
0
0
0
3
3
2
2
0
0
0
0
0
0
0
0
0
0
0
0
0
0
0
0
0
0
0
0
0
0
0
0
3
3
2
2
0
0
0
0
0
0
0
0
0
0
0
0
0
0
0
0
0
0
0
0
0
0
0
0
3
3
2
2
0
0
0
0
0
0
0
0
0
0
0
0
0
0
0
0
0
0
0
0
0
0
0
0
3
3
2
2
2
2
2
2
2
2
2
2
2
2
2
2
2
2
2
2
2
2
2
2
2
2
2
2
3
3
2
2
2
2
2
2
2
2
2
2
2
2
2
2
2
2
2
2
2
2
2
2
2
2
2
2
3
3
3
3
3
3
3
3
3
3
3
3
3
3
3
3
3
3
3
3
3
3
3
3
3
3
3
3
3
3
3
3
3
3
3
3
3
3
3
3
3
3
3
3
3
3
3
3
3
3
3
3
3
3
3
3
</DataArray>
<DataArray NumberOfComponents='1' type='Float32' Name='Velocity' format='ascii'>
0.000000
0.000000
0.000000
0.000000
0.000000
0.000000
0.000000
0.000000
0.000000
0.000000
0.000000
0.000000
0.000000
0.000000
0.000000
0.000000
0.000000
0.000000
0.000000
0.000000
0.000000
0.000000
0.000000
0.000000
0.000000
0.000000
0.000000
0.000000
0.000000
0.000000
0.000000
0.000000
0.000000
0.000000
0.000000
0.000000
0.000000
0.000000
0.000000
0.000000
0.000000
0.000000
0.000000
0.000000
0.000000
0.000000
0.000000
0.000000
0.000000
0.000000
0.000000
0.000000
0.000000
0.000000
0.000000
0.000000
0.000000
0.000000
0.000000
0.000000
0.000000
0.000000
0.000000
0.000000
0.000000
0.000000
0.000000
0.000000
0.000000
0.000000
0.000000
0.000000
0.000000
0.000000
0.000000
0.000000
0.000000
0.000000
0.000000
0.000000
0.000000
0.000000
0.000000
0.000000
0.000000
0.000000
0.000000
0.000000
0.000000
0.000000
0.000000
0.000000
0.000000
0.000000
0.000000
0.000000
0.000000
0.000000
0.000000
0.000000
0.000000
0.000000
0.000000
0.000000
0.000000
0.000000
0.000000
0.000000
0.000000
0.000000
0.000000
0.000000
0.000000
0.000000
0.000000
0.000000
0.166468
0.205952
0.188918
0.207243
0.051494
0.229102
0.222407
0.274086
0.207386
0.166572
0.202080
0.144182
0.038373
0.098793
0.131280
0.384486
0.280001
0.155220
0.348420
0.100000
0.100000
0.100000
0.100000
0.100000
0.000000
0.000000
0.000000
0.000000
0.094443
0.554627
0.190918
0.100325
0.104160
0.202905
0.321327
0.155707
0.067429
0.322367
0.188787
0.401838
0.055247
0.112377
0.313707
0.311707
0.137864
0.152617
0.252873
0.100000
0.100000
0.100000
0.100000
0.100000
0.000000
0.000000
0.000000
0.000000
0.179603
0.091186
0.143623
0.069245
0.209069
0.148466
0.228988
0.298801
0.256385
0.036556
0.135212
0.118734
0.094801
0.174846
0.346467
0.159380
0.185449
0.217499
0.282957
0.227298
0.100000
0.100000
0.100000
0.100000
0.000000
0.000000
0.000000
0.000000
0.081154
0.257658
0.318158
0.077135
0.037139
0.041468
0.152467
0.118916
0.133989
0.220812
0.173950
0.123064
0.231102
0.345208
0.182876
0.167187
0.248382
0.452835
0.098200
0.016840
0.172320
0.100000
0.100000
0.100000
0.000000
0.000000
0.000000
0.000000
0.133309
0.033995
0.238870
0.235332
0.103370
0.080266
0.256259
0.040663
0.034366
0.168896
0.169108
0.159911
0.145152
0.151907
0.154958
0.353295
0.320742
0.146078
0.216650
0.194318
0.100000
0.069576
0.100000
0.100000
0.000000
0.000000
0.000000
0.000000
0.200650
0.224117
0.172453
0.033092
0.064596
0.147920
0.109044
0.239277
0.032206
0.074137
0.149779
0.305307
0.045229
0.148715
0.168006
0.144585
0.248139
0.153707
0.064968
0.157349
0.257767
0.091538
0.100000
0.100000
0.000000
0.000000
0.000000
0.000000
0.093073
0.080525
0.222963
0.121839
0.331063
0.123708
0.247565
0.168013
0.095965
0.078262
0.268972
0.066248
0.249732
0.115096
0.281539
0.170442
0.099869
0.219681
0.203528
0.035024
0.098468
0.204119
0.100000
0.100000
0.000000
0.000000
0.000000
0.000000
0.149986
0.219780
0.318713
0.026395
0.114634
0.095767
0.328964
0.347353
0.043626
0.256091
0.263383
0.238531
0.252745
0.081820
0.259065
0.208196
0.343161
0.107316
0.035210
0.040473
0.161290
0.138441
0.100000
0.100000
0.000000
0.000000
0.000000
0.000000
0.098209
0.034099
0.161885
0.371986
0.061292
0.325734
0.311490
0.290464
0.243644
0.263827
0.186439
0.156792
0.101883
0.147979
0.122083
0.122929
0.034578
0.122896
0.126436
0.104027
0.087811
0.131189
0.100000
0.100000
0.000000
0.000000
0.000000
0.000000
0.121056
0.129525
0.094381
0.115552
0.065611
0.206187
0.245041
0.079057
0.083907
0.102409
0.142023
0.091711
0.097405
0.151672
0.101125
0.111131
0.308527
0.097104
0.050315
0.100233
0.103142
0.254141
0.100000
0.100000
0.000000
0.000000
0.000000
0.000000
0.093166
0.183918
0.041000
0.140754
0.286599
0.259059
0.077590
0.100850
0.264572
0.237947
0.069883
0.274508
0.339324
0.159397
0.263484
0.112329
0.154721
0.108047
0.061824
0.123674
0.152978
0.100000
0.100000
0.100000
0.000000
0.000000
0.000000
0.000000
0.125731
0.109196
0.089693
0.126993
0.256722
0.046367
0.019936
0.105423
0.251213
0.126646
0.115941
0.149495
0.066220
0.102455
0.138145
0.199550
0.123532
0.085598
0.070683
0.275747
0.111059
0.263007
0.100000
0.100000
0.000000
0.000000
0.000000
0.000000
0.075010
0.082996
0.043306
0.068824
0.098908
0.094177
0.132550
0.184946
0.179530
0.064078
0.171315
0.283952
0.140422
0.280583
0.102587
0.262707
0.169227
0.177007
0.163849
0.340878
0.441552
0.412906
0.100000
0.100000
0.000000
0.000000
0.000000
0.000000
0.049616
0.034198
0.114971
0.022072
0.065297
0.173264
0.250511
0.239638
0.119810
0.130791
0.167813
0.074225
0.104615
0.089331
0.257793
0.201783
0.396213
0.252460
0.042341
0.212301
0.070735
0.100000
0.100000
0.100000
0.000000
0.000000
0.000000
0.000000
0.056562
0.166225
0.233849
0.080197
0.145512
0.125018
0.178228
0.105690
0.039690
0.400774
0.259177
0.056709
0.044164
0.120637
0.106456
0.153924
0.128834
0.289985
0.318446
0.174375
0.215885
0.142942
0.100000
0.100000
0.000000
0.000000
0.000000
0.000000
0.051965
0.177075
0.151242
0.171248
0.262972
0.070070
0.203445
0.249565
0.111490
0.205032
0.165571
0.084291
0.100656
0.156856
0.171304
0.142288
0.166179
0.061170
0.110207
0.261379
0.142582
0.227710
0.100000
0.100000
0.000000
0.000000
0.000000
0.000000
0.078443
0.096320
0.107875
0.195983
0.280148
0.163846
0.262568
0.147421
0.144594
0.088381
0.195411
0.068424
0.142531
0.132180
0.320584
0.197582
0.118876
0.138336
0.101887
0.304389
0.273388
0.100000
0.100000
0.100000
0.000000
0.000000
0.000000
0.000000
0.032246
0.033032
0.085947
0.082406
0.080878
0.174158
0.135981
0.284803
0.241134
0.085322
0.195410
0.236734
0.264926
0.107016
0.141293
0.090500
0.252457
0.109181
0.085035
0.471824
0.236830
0.275350
0.037507
0.100000
0.000000
0.000000
0.000000
0.000000
0.047134
0.152969
0.075588
0.031496
0.027356
0.076132
0.026019
0.062736
0.089457
0.188904
0.187925
0.229791
0.243473
0.115231
0.140859
0.203133
0.051620
0.112007
0.335873
0.206943
0.244958
0.099888
0.100000
0.100000
0.000000
0.000000
0.000000
0.000000
0.061566
0.160246
0.161054
0.193463
0.034863
0.055453
0.296263
0.335160
0.242186
0.099096
0.205383
0.047365
0.517995
0.193575
0.226537
0.094912
0.054050
0.163062
0.129455
0.268893
0.270551
0.100000
0.100000
0.100000
0.000000
0.000000
0.000000
0.000000
0.144038
0.085149
0.140796
0.179194
0.138213
0.131895
0.247615
0.166774
0.057627
0.033881
0.082054
0.132093
0.014654
0.159696
0.046152
0.222027
0.121085
0.263055
0.250735
0.217342
0.069801
0.195603
0.100000
0.100000
0.000000
0.000000
0.000000
0.000000
0.044885
0.103575
0.113901
0.170862
0.373796
0.127187
0.159705
0.128892
0.249701
0.259251
0.103589
0.246540
0.069407
0.132721
0.085342
0.030686
0.168892
0.093320
0.123284
0.189533
0.165836
0.275449
0.100000
0.100000
0.000000
0.000000
0.000000
0.000000
0.165889
0.074319
0.060496
0.057858
0.207966
0.191687
0.146645
0.254900
0.174199
0.262064
0.153290
0.195973
0.068971
0.138875
0.057813
0.084793
0.184590
0.122496
0.204751
0.377051
0.264526
0.378725
0.407202
0.100000
0.000000
0.000000
0.000000
0.000000
0.061884
0.052053
0.035366
0.068253
0.125502
0.215950
0.066779
0.021074
0.019572
0.152697
0.183823
0.189339
0.226610
0.222051
0.240449
0.290514
0.261795
0.078070
0.037014
0.090024
0.179646
0.214918
0.100000
0.100000
0.000000
0.000000
0.000000
0.000000
0.179465
0.058242
0.143805
0.175632
0.068036
0.165147
0.030365
0.047120
0.062923
0.181053
0.053848
0.196084
0.169972
0.086667
0.319694
0.047135
0.145241
0.137728
0.152417
0.248924
0.225741
0.278941
0.030484
0.100000
0.000000
0.000000
0.000000
0.000000
0.084351
0.214421
0.063004
0.227741
0.251073
0.319387
0.100430
0.095840
0.032309
0.120666
0.200880
0.116685
0.205781
0.058238
0.156045
0.137070
0.167282
0.188435
0.242554
0.095556
0.330706
0.137304
0.100000
0.100000
0.000000
0.000000
0.000000
0.000000
0.080801
0.131194
0.128883
0.258276
0.087560
0.136449
0.127811
0.105587
0.059254
0.195935
0.092662
0.218245
0.141855
0.132715
0.095989
0.207995
0.145195
0.122187
0.053926
0.301125
0.337736
0.142099
0.044406
0.100000
0.000000
0.000000
0.000000
0.000000
0.043396
0.172637
0.039539
0.209728
0.149232
0.206094
0.052174
0.061097
0.045308
0.033907
0.054566
0.059074
0.155614
0.017717
0.110335
0.092084
0.147766
0.501166
0.315752
0.076411
0.149378
0.072655
0.168800
0.100000
0.000000
0.000000
0.000000
0.000000
0.031076
0.233446
0.123618
0.110470
0.204294
0.151674
0.223418
0.161727
0.201750
0.096136
0.097406
0.249951
0.196087
0.083298
0.215056
0.019426
0.221061
0.139041
0.156045
0.418563
0.385500
0.158075
0.100000
0.100000
0.000000
0.000000
0.000000
0.000000
0.077911
0.116827
0.264191
0.096471
0.094811
0.132673
0.122490
0.077530
0.176150
0.068701
0.132551
0.134503
0.222931
0.168538
0.331966
0.246894
0.245649
0.135291
0.289795
0.190944
0.170326
0.099185
0.238915
0.100000
0.000000
0.000000
0.000000
0.000000
0.088036
0.230628
0.211359
0.100603
0.220818
0.113979
0.038521
0.319556
0.156898
0.131974
0.048818
0.133614
0.226867
0.141248
0.096773
0.222685
0.075231
0.109451
0.203245
0.234514
0.342976
0.106277
0.248502
0.100000
0.000000
0.000000
0.000000
0.000000
0.131236
0.053715
0.370165
0.098095
0.351466
0.033408
0.051043
0.207637
0.169376
0.163993
0.150160
0.119328
0.136724
0.154130
0.197008
0.154499
0.197568
0.430783
0.193932
0.367859
0.361378
0.182075
0.691250
0.100000
0.000000
0.000000
0.000000
0.000000
0.062786
0.291412
0.125423
0.148311
0.109520
0.075102
0.168403
0.268944
0.117557
0.108731
0.092498
0.048861
0.125183
0.077652
0.220910
0.101269
0.178141
0.224732
0.049820
0.248601
0.469282
0.226068
0.262939
0.100000
0.000000
0.000000
0.000000
0.000000
0.160224
0.101851
0.092902
0.135923
0.222348
0.158404
0.144264
0.147541
0.104631
0.240611
0.242735
0.055515
0.049593
0.058315
0.047512
0.026969
0.089193
0.105802
0.210853
0.286597
0.235029
0.335451
0.222630
0.100000
0.000000
0.000000
0.000000
0.000000
0.141701
0.206654
0.323650
0.318788
0.040475
0.344155
0.131856
0.143194
0.118198
0.214190
0.122763
0.102706
0.123927
0.041782
0.065198
0.179059
0.300194
0.178218
0.112848
0.134553
0.269941
0.611321
0.372447
0.100000
0.000000
0.000000
0.000000
0.000000
0.222312
0.157950
0.029324
0.134318
0.144047
0.185023
0.332651
0.262912
0.176103
0.172024
0.251958
0.140159
0.213087
0.116785
0.144376
0.055589
0.232796
0.411163
0.441889
0.583117
0.317367
0.227986
0.141938
0.100000
0.000000
0.000000
0.000000
0.000000
0.154319
0.160936
0.055471
0.436183
0.499746
0.096024
0.233240
0.171263
0.121904
0.518677
0.205193
0.181557
0.144568
0.255679
0.222186
0.227169
0.355920
0.122454
0.173193
0.135024
0.386546
0.119893
0.081275
0.100000
0.000000
0.000000
0.000000
0.000000
0.204908
0.100410
0.076803
0.531713
0.311067
0.071924
0.284302
0.266751
0.129581
0.135002
0.246225
0.097630
0.138257
0.108015
0.213155
0.106407
0.133171
0.185339
0.394625
0.062670
0.198581
0.043471
0.276289
0.100000
0.000000
0.000000
0.000000
0.000000
0.204516
0.316785
0.093964
0.126715
0.256741
0.037546
0.162732
0.253753
0.184395
0.204384
0.034491
0.255796
0.203894
0.057578
0.208714
0.042757
0.124483
0.123655
0.317539
0.186068
0.235861
0.231900
0.218264
0.100000
0.000000
0.000000
0.000000
0.000000
0.036911
0.091875
0.131647
0.093666
0.113457
0.060956
0.131229
0.167214
0.090496
0.275129
0.103920
0.198200
0.154326
0.301837
0.138193
0.258177
0.103859
0.176224
0.158025
0.079416
0.115300
0.404123
0.098419
0.100000
0.000000
0.000000
0.000000
0.000000
0.000000
0.000000
0.000000
0.000000
0.000000
0.000000
0.000000
0.000000
0.000000
0.000000
0.000000
0.000000
0.000000
0.000000
0.000000
0.000000
0.000000
0.000000
0.000000
0.000000
0.000000
0.000000
0.000000
0.000000
0.000000
0.000000
0.000000
0.000000
0.000000
0.000000
0.000000
0.000000
0.000000
0.000000
0.000000
0.000000
0.000000
0.000000
0.000000
0.000000
0.000000
0.000000
0.000000
0.000000
0.000000
0.000000
0.000000
0.000000
0.000000
0.000000
0.000000
0.000000
0.000000
0.000000
0.000000
0.000000
0.000000
0.000000
0.000000
0.000000
0.000000
0.000000
0.000000
0.000000
0.000000
0.000000
0.000000
0.000000
0.000000
0.000000
0.000000
0.000000
0.000000
0.000000
0.000000
0.000000
0.000000
0.000000
0.000000
0.000000
0.000000
0.000000
0.000000
0.000000
0.000000
0.000000
0.000000
0.000000
0.000000
0.000000
0.000000
0.000000
0.000000
0.000000
0.000000
0.000000
0.000000
0.000000
0.000000
0.000000
0.000000
0.000000
0.000000
0.000000
0.000000
0.000000
0.000000
0.000000
</DataArray>
<DataArray NumberOfComponents='1' type='Float32' Name='pressure' format='ascii'>
0.000000
0.000000
0.000000
0.000000
0.000000
0.000000
0.000000
0.000000
0.000000
0.000000
0.000000
0.000000
0.000000
0.000000
0.000000
0.000000
0.000000
0.000000
0.000000
0.000000
0.000000
0.000000
0.000000
0.000000
0.000000
0.000000
0.000000
0.000000
0.000000
0.000000
0.000000
0.000000
0.000000
0.000000
0.000000
0.000000
0.000000
0.000000
0.000000
0.000000
0.000000
0.000000
0.000000
0.000000
0.000000
0.000000
0.000000
0.000000
0.000000
0.000000
0.000000
0.000000
0.000000
0.000000
0.000000
0.000000
0.000000
0.000000
50959.718750
50728.140625
49874.796875
50852.519531
51033.125000
50725.984375
51001.441406
50917.847656
50736.433594
50311.320312
49516.554688
50214.050781
50631.566406
50596.257812
50064.175781
49984.031250
50345.371094
50460.101562
50991.183594
50676.359375
49417.226562
48475.042969
45387.296875
40281.300781
32567.568359
0.000000
0.000000
0.000000
51236.062500
50915.289062
49805.625000
50350.976562
50914.476562
50682.839844
50223.960938
50757.035156
50680.468750
50746.121094
49546.640625
51191.976562
50763.871094
50895.128906
50404.507812
50571.355469
50913.832031
50613.636719
50586.562500
50021.449219
49050.710938
49590.535156
47346.585938
43037.121094
40558.503906
27591.363281
0.000000
0.000000
52138.039062
52098.726562
51581.179688
50621.515625
51067.488281
49988.785156
50931.875000
50222.386719
51296.722656
50445.988281
49505.714844
51104.847656
50760.835938
50537.417969
50700.636719
50415.617188
49020.382812
48899.222656
47611.386719
49537.621094
46742.351562
44871.832031
0.000000
33350.601562
54135.578125
55453.777344
0.000000
0.000000
52068.511719
50797.398438
51011.003906
50142.105469
49834.613281
51162.855469
50571.921875
50588.433594
50872.449219
50244.753906
50824.800781
49898.386719
50439.046875
50121.023438
50121.558594
50244.679688
50068.875000
49344.425781
49983.140625
49561.480469
45906.835938
54453.027344
47321.171875
38838.871094
63950.652344
56339.859375
0.000000
0.000000
52331.281250
51222.089844
50139.574219
51664.382812
50061.210938
50795.121094
50477.691406
50759.722656
50830.019531
51806.121094
50426.718750
50302.656250
50575.316406
50433.269531
50511.152344
50828.320312
50370.125000
49675.640625
51184.039062
52718.406250
51438.628906
52083.953125
60152.058594
52240.867188
57659.375000
58442.398438
0.000000
0.000000
51408.265625
50743.628906
50418.699219
51259.410156
49888.964844
51484.753906
50680.007812
51371.894531
50263.871094
50349.757812
49767.679688
50976.152344
49982.761719
49809.980469
50980.746094
49647.753906
50454.589844
51337.929688
50494.199219
51574.589844
54555.050781
56357.898438
55094.800781
62140.492188
64152.382812
57629.730469
0.000000
0.000000
52246.105469
51346.800781
51371.605469
51157.609375
50873.613281
50071.480469
51060.851562
50425.097656
50564.328125
50584.273438
49159.691406
50494.949219
50145.757812
50462.375000
49992.812500
50209.750000
51145.140625
50732.746094
50693.699219
52283.183594
53484.375000
56817.609375
63705.875000
57656.789062
60375.656250
54486.996094
0.000000
0.000000
52104.761719
50815.414062
50521.558594
50689.492188
50663.656250
50290.175781
50479.847656
50792.046875
49342.960938
49687.750000
50481.089844
50522.695312
49552.414062
50152.628906
50446.039062
50469.769531
50919.851562
51534.449219
51804.984375
51847.492188
52918.562500
53995.160156
55281.800781
57234.269531
51411.773438
49072.796875
0.000000
0.000000
51712.667969
52156.921875
51151.484375
50872.300781
51123.773438
49881.027344
49657.867188
50945.710938
49548.804688
49521.707031
49470.042969
50297.472656
49145.117188
50252.675781
50679.160156
50781.164062
49739.496094
51441.062500
51454.687500
51086.878906
52766.953125
53348.996094
53186.718750
56046.847656
53161.058594
46576.382812
0.000000
0.000000
51149.738281
51723.144531
50224.945312
51298.875000
50740.328125
51331.000000
50967.585938
50903.832031
49254.160156
50109.488281
51079.617188
49854.078125
49975.507812
50114.066406
49873.035156
49700.503906
49815.585938
50920.070312
49557.312500
52293.843750
53019.503906
51783.273438
53029.406250
55470.460938
49936.648438
44375.925781
0.000000
0.000000
50666.226562
51074.664062
51263.570312
51208.785156
50885.363281
50668.125000
50928.992188
50405.179688
49671.386719
49449.851562
49888.425781
49715.199219
49344.937500
49709.070312
49219.664062
50105.070312
49443.617188
49410.000000
50843.500000
51336.527344
50086.183594
50542.730469
51104.183594
53186.742188
46222.023438
42310.523438
0.000000
0.000000
50281.300781
49960.398438
51221.164062
51436.964844
50495.230469
49788.984375
49682.644531
50243.187500
49699.761719
49321.789062
49854.140625
48979.332031
49612.992188
50242.480469
50017.136719
48590.761719
50885.812500
50097.996094
49088.300781
49502.105469
47895.109375
50096.375000
48473.847656
52005.851562
39141.140625
40507.527344
0.000000
0.000000
51220.113281
50847.023438
51522.132812
50491.371094
50073.953125
50346.164062
50238.714844
49976.917969
49758.125000
49649.242188
48880.710938