<?xml version='1.0' encoding='UTF-8'?>
<VTKFile xmlns='VTK' byte_order='LittleEndian' version='0.1' type='UnstructuredGrid'>
<UnstructuredGrid>
<Piece NumberOfCells='1344' NumberOfPoints='1344'>
<Points>
<DataArray NumberOfComponents='3' type='Float32' Name='Position' format='ascii'>
-0.075000 -0.075000 0.000000
-0.075000 -0.050000 0.000000
-0.075000 -0.025000 0.000000
-0.075000 0.000000 0.000000
-0.075000 0.025000 0.000000
-0.075000 0.050000 0.000000
-0.075000 0.075000 0.000000
-0.075000 0.100000 0.000000
-0.075000 0.125000 0.000000
-0.075000 0.150000 0.000000
-0.075000 0.175000 0.000000
-0.075000 0.200000 0.000000
-0.075000 0.225000 0.000000
-0.075000 0.250000 0.000000
-0.075000 0.275000 0.000000
-0.075000 0.300000 0.000000
-0.075000 0.325000 0.000000
-0.075000 0.350000 0.000000
-0.075000 0.375000 0.000000
-0.075000 0.400000 0.000000
-0.075000 0.425000 0.000000
-0.075000 0.450000 0.000000
-0.075000 0.475000 0.000000
-0.075000 0.500000 0.000000
-0.075000 0.525000 0.000000
-0.075000 0.550000 0.000000
-0.075000 0.575000 0.000000
-0.075000 0.600000 0.000000
-0.050000 -0.075000 0.000000
-0.050000 -0.050000 0.000000
-0.050000 -0.025000 0.000000
-0.050000 0.000000 0.000000
-0.050000 0.025000 0.000000
-0.050000 0.050000 0.000000
-0.050000 0.075000 0.000000
-0.050000 0.100000 0.000000
-0.050000 0.125000 0.000000
-0.050000 0.150000 0.000000
-0.050000 0.175000 0.000000
-0.050000 0.200000 0.000000
-0.050000 0.225000 0.000000
-0.050000 0.250000 0.000000
-0.050000 0.275000 0.000000
-0.050000 0.300000 0.000000
-0.050000 0.325000 0.000000
-0.050000 0.350000 0.000000
-0.050000 0.375000 0.000000
-0.050000 0.400000 0.000000
-0.050000 0.425000 0.000000
-0.050000 0.450000 0.000000
-0.050000 0.475000 0.000000
-0.050000 0.500000 0.000000
-0.050000 0.525000 0.000000
-0.050000 0.550000 0.000000
-0.050000 0.575000 0.000000
-0.050000 0.600000 0.000000
-0.025000 -0.075000 0.000000
-0.025000 -0.050000 0.000000
-0.025000 -0.025000 0.000000
-0.025000 0.000000 0.000000
-0.025000 0.025000 0.000000
-0.025000 0.050000 0.000000
-0.025000 0.075000 0.000000
-0.025000 0.100000 0.000000
-0.025000 0.125000 0.000000
-0.025000 0.150000 0.000000
-0.025000 0.175000 0.000000
-0.025000 0.200000 0.000000
-0.025000 0.225000 0.000000
-0.025000 0.250000 0.000000
-0.025000 0.275000 0.000000
-0.025000 0.300000 0.000000
-0.025000 0.325000 0.000000
-0.025000 0.350000 0.000000
-0.025000 0.375000 0.000000
-0.025000 0.400000 0.000000
-0.025000 0.425000 0.000000
-0.025000 0.450000 0.000000
-0.025000 0.475000 0.000000
-0.025000 0.500000 0.000000
-0.025000 0.525000 0.000000
-0.025000 0.550000 0.000000
-0.025000 0.575000 0.000000
-0.025000 0.600000 0.000000
0.000000 -0.075000 0.000000
0.000000 -0.050000 0.000000
0.000000 -0.025000 0.000000
0.000000 0.000000 0.000000
0.000000 0.025000 0.000000
0.000000 0.050000 0.000000
0.000000 0.075000 0.000000
0.000000 0.100000 0.000000
0.000000 0.125000 0.000000
0.000000 0.150000 0.000000
0.000000 0.175000 0.000000
0.000000 0.200000 0.000000
0.000000 0.225000 0.000000
0.000000 0.250000 0.000000
0.000000 0.275000 0.000000
0.000000 0.300000 0.000000
0.000000 0.325000 0.000000
0.000000 0.350000 0.000000
0.000000 0.375000 0.000000
0.000000 0.400000 0.000000
0.000000 0.425000 0.000000
0.000000 0.450000 0.000000
0.000000 0.475000 0.000000
0.000000 0.500000 0.000000
0.000000 0.525000 0.000000
0.000000 0.550000 0.000000
0.000000 0.575000 0.000000
0.000000 0.600000 0.000000
0.025000 -0.075000 0.000000
0.025000 -0.050000 0.000000
0.025000 -0.025000 0.000000
0.025000 0.000000 0.000000
0.023293 0.025830 0.000000
0.037367 0.047674 0.000000
0.022358 0.064904 0.000000
0.024544 0.113496 0.000000
0.023294 0.142620 0.000000
0.024894 0.172473 0.000000
0.025179 0.197928 0.000000
0.025129 0.220763 0.000000
0.025797 0.245806 0.000000
0.024424 0.270097 0.000000
0.024438 0.295235 0.000000
0.025900 0.319749 0.000000
0.023726 0.344886 0.000000
0.025776 0.370001 0.000000
0.024203 0.396379 0.000000
0.025420 0.422492 0.000000
0.024482 0.451878 0.000000
0.022941 0.485199 0.000000
0.024638 0.515360 0.000000
0.022641 0.542630 0.000000
0.022079 0.575296 0.000000
0.028147 0.596634 0.000000
0.072870 0.589226 0.000000
0.084218 0.600000 0.000000
0.050000 -0.075000 0.000000
0.050000 -0.050000 0.000000
0.050000 -0.025000 0.000000
0.050000 0.000000 0.000000
0.048597 0.024610 0.000000
0.061091 0.054924 0.000000
0.049647 0.079967 0.000000
0.026739 0.089829 0.000000
0.044992 0.127951 0.000000
0.042888 0.156250 0.000000
0.049678 0.184190 0.000000
0.052411 0.211025 0.000000
0.049832 0.236083 0.000000
0.050096 0.263221 0.000000
0.050900 0.287448 0.000000
0.050908 0.311686 0.000000
0.049231 0.336364 0.000000
0.049824 0.361167 0.000000
0.046881 0.387092 0.000000
0.048436 0.412973 0.000000
0.043211 0.440621 0.000000
0.040852 0.469959 0.000000
0.042933 0.501228 0.000000
0.044628 0.533020 0.000000
0.050920 0.553751 0.000000
0.046310 0.600000 0.000000
0.100658 0.581860 0.000000
0.104889 0.600000 0.000000
0.075000 -0.075000 0.000000
0.075000 -0.050000 0.000000
0.075000 -0.025000 0.000000
0.075000 0.000000 0.000000
0.071983 0.027271 0.000000
0.084533 0.053235 0.000000
0.073017 0.080622 0.000000
0.054211 0.104724 0.000000
0.068719 0.126429 0.000000
0.066599 0.166143 0.000000
0.073895 0.191057 0.000000
0.075185 0.218195 0.000000
0.072047 0.245657 0.000000
0.075515 0.269574 0.000000
0.074941 0.295807 0.000000
0.077048 0.319944 0.000000
0.074674 0.344501 0.000000
0.074939 0.368836 0.000000
0.073619 0.391629 0.000000
0.071140 0.417055 0.000000
0.071065 0.441757 0.000000
0.066999 0.463914 0.000000
0.065725 0.487763 0.000000
0.066828 0.508923 0.000000
0.073388 0.537128 0.000000
0.046312 0.578876 0.000000
0.127117 0.583117 0.000000
0.128454 0.600000 0.000000
0.100000 -0.075000 0.000000
0.100000 -0.050000 0.000000
0.100000 -0.025000 0.000000
0.100000 0.000000 0.000000
0.094588 0.023753 0.000000
0.109615 0.052864 0.000000
0.097352 0.076100 0.000000
0.082013 0.104762 0.000000
0.096050 0.130651 0.000000
0.080532 0.149165 0.000000
0.099309 0.173950 0.000000
0.096067 0.201106 0.000000
0.099391 0.227219 0.000000
0.098664 0.250597 0.000000
0.101332 0.275070 0.000000
0.100924 0.298901 0.000000
0.102715 0.323478 0.000000
0.098967 0.347478 0.000000
0.102366 0.372173 0.000000
0.098031 0.396371 0.000000
0.097632 0.421505 0.000000
0.093894 0.448490 0.000000
0.092808 0.476273 0.000000
0.097008 0.500194 0.000000
0.090526 0.522329 0.000000
0.075520 0.560499 0.000000
0.152741 0.584476 0.000000
0.153350 0.600000 0.000000
0.125000 -0.075000 0.000000
0.125000 -0.050000 0.000000
0.125000 -0.025000 0.000000
0.125000 0.000000 0.000000
0.117949 0.030095 0.000000
0.133542 0.056387 0.000000
0.120134 0.084124 0.000000
0.106786 0.105670 0.000000
0.121222 0.130630 0.000000
0.109063 0.155961 0.000000
0.124343 0.180347 0.000000
0.119673 0.206554 0.000000
0.124481 0.234362 0.000000
0.125261 0.259533 0.000000
0.125753 0.285947 0.000000
0.127288 0.310926 0.000000
0.126320 0.338426 0.000000
0.125948 0.362169 0.000000
0.123344 0.391325 0.000000
0.120528 0.417034 0.000000
0.120245 0.441362 0.000000
0.113454 0.466093 0.000000
0.125219 0.487567 0.000000
0.120885 0.509953 0.000000
0.113324 0.537831 0.000000
0.099537 0.553737 0.000000
0.177969 0.582719 0.000000
0.178179 0.600000 0.000000
0.150000 -0.075000 0.000000
0.150000 -0.050000 0.000000
0.150000 -0.025000 0.000000
0.150000 0.000000 0.000000
0.139734 0.022120 0.000000
0.155254 0.052426 0.000000
0.144681 0.079730 0.000000
0.131687 0.108055 0.000000
0.153303 0.127641 0.000000
0.136080 0.151299 0.000000
0.148409 0.172038 0.000000
0.143586 0.196927 0.000000
0.146881 0.222801 0.000000
0.148198 0.244892 0.000000
0.150420 0.271692 0.000000
0.150181 0.295889 0.000000
0.150675 0.322122 0.000000
0.149710 0.347898 0.000000
0.148384 0.374442 0.000000
0.144218 0.402410 0.000000
0.148490 0.429684 0.000000
0.142352 0.452189 0.000000
0.150394 0.475417 0.000000
0.148077 0.499202 0.000000
0.139830 0.527446 0.000000
0.131152 0.552138 0.000000
0.202998 0.583909 0.000000
0.202862 0.600000 0.000000
0.175000 -0.075000 0.000000
0.175000 -0.050000 0.000000
0.175000 -0.025000 0.000000
0.175000 0.000000 0.000000
0.164186 0.030724 0.000000
0.181806 0.052414 0.000000
0.171414 0.077687 0.000000
0.156503 0.103049 0.000000
0.179637 0.127298 0.000000
0.161302 0.149097 0.000000
0.180233 0.173060 0.000000
0.168224 0.195823 0.000000
0.175141 0.219165 0.000000
0.174892 0.244635 0.000000
0.174813 0.269784 0.000000
0.175437 0.294026 0.000000
0.174521 0.321210 0.000000
0.174137 0.345693 0.000000
0.171235 0.372835 0.000000
0.167772 0.397282 0.000000
0.171326 0.427189 0.000000
0.170183 0.452070 0.000000
0.173873 0.481560 0.000000
0.171686 0.505713 0.000000
0.165416 0.529723 0.000000
0.153304 0.550981 0.000000
0.228189 0.583357 0.000000
0.228108 0.600000 0.000000
0.200000 -0.075000 0.000000
0.200000 -0.050000 0.000000
0.200000 -0.025000 0.000000
0.200000 0.000000 0.000000
0.186196 0.022599 0.000000
0.205179 0.051794 0.000000
0.195275 0.076852 0.000000
0.180922 0.101769 0.000000
0.203792 0.125298 0.000000
0.189297 0.152109 0.000000
0.203991 0.174838 0.000000
0.193636 0.201759 0.000000
0.199673 0.225965 0.000000
0.198264 0.250877 0.000000
0.199236 0.278041 0.000000
0.199669 0.303736 0.000000
0.199177 0.329083 0.000000
0.197611 0.355359 0.000000
0.196938 0.379432 0.000000
0.188359 0.407170 0.000000
0.197651 0.428980 0.000000
0.191251 0.457570 0.000000
0.201162 0.479954 0.000000
0.195563 0.506477 0.000000
0.191746 0.537879 0.000000
0.177646 0.554101 0.000000
0.253103 0.583757 0.000000
0.252965 0.600000 0.000000
0.225000 -0.075000 0.000000
0.225000 -0.050000 0.000000
0.225000 -0.025000 0.000000
0.225000 0.000000 0.000000
0.211416 0.027625 0.000000
0.232924 0.050643 0.000000
0.219986 0.074951 0.000000
0.207952 0.103022 0.000000
0.232319 0.123336 0.000000
0.214841 0.147662 0.000000
0.231360 0.170937 0.000000
0.218656 0.194589 0.000000
0.225985 0.218829 0.000000
0.222849 0.243447 0.000000
0.224875 0.268422 0.000000
0.222818 0.292106 0.000000
0.222787 0.318806 0.000000
0.222151 0.345021 0.000000
0.222544 0.369575 0.000000
[...]
<PointData>
<DataArray NumberOfComponents='1' type='Int32' Name='ParticleType' format='ascii'>
3
3
3
3
3
3
3
3
3
3
3
3
3
3
3
3
3
3
3
3
3
3
3
3
3
3
3
3
3
3
3
3
3
3
3
3
3
3
3
3
3
3
3
3
3
3
3
3
3
3
3
3
3
3
3
3
3
3
2
2
2
2
2
2
2
2
2
2
2
2
2
2
2
2
2
2
2
2
2
2
2
2
2
2
3
3
2
2
2
2
2
2
2
2
2
2
2
2
2
2
2
2
2
2
2
2
2
2
2
2
2
2
3
3
2
2
0
0
0
0
0
0
0
0
0
0
0
0
0
0
0
0
0
0
0
0
0
0
0
0
3
3
2
2
0
0
0
0
0
0
0
0
0
0
0
0
0
0
0
0
0
0
0
0
0
0
0
0
3
3
2
2
0
0
0
0
0
0
0
0
0
0
0
0
0
0
0
0
0
0
0
0
0
0
0
0
3
3
2
2
0
0
0
0
0
0
0
0
0
0
0
0
0
0
0
0
0
0
0
0
0
0
0
0
3
3
2
2
0
0
0
0
0
0
0
0
0
0
0
0
0
0
0
0
0
0
0
0
0
0
0
0
3
3
2
2
0
0
0
0
0
0
0
0
0
0
0
0
0
0
0
0
0
0
0
0
0
0
0
0
3
3
2
2
0
0
0
0
0
0
0
0
0
0
0
0
0
0
0
0
0
0
0
0
0
0
0
0
3
3
2
2
0
0
0
0
0
0
0
0
0
0
0
0
0
0
0
0
0
0
0
0
0
0
0
0
3
3
2
2
0
0
0
0
0
0
0
0
0
0
0
0
0
0
0
0
0
0
0
0
0
0
0
0
3
3
2
2
0
0
0
0
0
0
0
0
0
0
0
0
0
0
0
0
0
0
0
0
0
0
0
0
3
3
2
2
0
0
0
0
0
0
0
0
0
0
0
0
0
0
0
0
0
0
0
0
0
0
0
0
3
3
2
2
0
0
0
0
0
0
0
0
0
0
0
0
0
0
0
0
0
0
0
0
0
0
0
0
3
3
2
2
0
0
0
0
0
0
0
0
0
0
0
0
0
0
0
0
0
0
0
0
0
0
0
0
3
3
2
2
0
0
0
0
0
0
0
0
0
0
0
0
0
0
0
0
0
0
0
0
0
0
0
0
3
3
2
2
0
0
0
0
0
0
0
0
0
0
0
0
0
0
0
0
0
0
0
0
0
0
0
0
3
3
2
2
0
0
0
0
0
0
0
0
0
0
0
0
0
0
0
0
0
0
0
0
0
0
0
0
3
3
2
2
0
0
0
0
0
0
0
0
0
0
0
0
0
0
0
0
0
0
0
0
0
0
0
0
3
3
2
2
0
0
0
0
0
0
0
0
0
0
0
0
0
0
0
0
0
0
0
0
0
0
0
0
3
3
2
2
0
0
0
0
0
0
0
0
0
0
0
0
0
0
0
0
0
0
0
0
0
0
0
0
3
3
2
2
0
0
0
0
0
0
0
0
0
0
0
0
0
0
0
0
0
0
0
0
0
0
0
0
3
3
2
2
0
0
0
0
0
0
0
0
0
0
0
0
0
0
0
0
0
0
0
0
0
0
0
0
3
3
2
2
0
0
0
0
0
0
0
0
0
0
0
0
0
0
0
0
0
0
0
0
0
0
0
0
3
3
2
2
0
0
0
0
0
0
0
0
0
0
0
0
0
0
0
0
0
0
0
0
0
0
0
0
3
3
2
2
0
0
0
0
0
0
0
0
0
0
0
0
0
0
0
0
0
0
0
0
0
0
0
0
3
3
2
2
0
0
0
0
0
0
0
0
0
0
0
0
0
0
0
0
0
0
0
0
0
0
0
0
3
3
2
2
0
0
0
0
0
0
0
0
0
0
0
0
0
0
0
0
0
0
0
0
0
0
0
0
3
3
2
2
0
0
0
0
0
0
0
0
0
0
0
0
0
0
0
0
0
0
0
0
0
0
0
0
3
3
2
2
0
0
0
0
0
0
0
0
0
0
0
0
0
0
0
0
0
0
0
0
0
0
0
0
3
3
2
2
0
0
0
0
0
0
0
0
0
0
0
0
0
0
0
0
0
0
0
0
0
0
0
0
3
3
2
2
0
0
0
0
0
0
0
0
0
0
0
0
0
0
0
0
0
0
0
0
0
0
0
0
3
3
2
2
0
0
0
0
0
0
0
0
0
0
0
0
0
0
0
0
0
0
0
0
0
0
0
0
3
3
2
2
0
0
0
0
0
0
0
0
0
0
0
0
0
0
0
0
0
0
0
0
0
0
0
0
3
3
2
2
0
0
0
0
0
0
0
0
0
0
0
0
0
0
0
0
0
0
0
0
0
0
0
0
3
3
2
2
0
0
0
0
0
0
0
0
0
0
0
0
0
0
0
0
0
0
0
0
0
0
0
0
3
3
2
2
0
0
0
0
0
0
0
0
0
0
0
0
0
0
0
0
0
0
0
0
0
0
0
0
3
3
2
2
0
0
0
0
0
0
0
0
0
0
0
0
0
0
0
0
0
0
0
0
0
0
0
0
3
3
2
2
0
0
0
0
0
0
0
0
0
0
0
0
0
0
0
0
0
0
0
0
0
0
0
0
3
3
2
2
0
0
0
0
0
0
0
0
0
0
0
0
0
0
0
0
0
0
0
0
0
0
0
0
3
3
2
2
0
0
0
0
0
0
0
0
0
0
0
0
0
0
0
0
0
0
0
0
0
0
0
0
3
3
2
2
0
0
0
0
0
0
0
0
0
0
0
0
0
0
0
0
0
0
0
0
0
0
0
0
3
3
2
2
2
2
2
2
2
2
2
2
2
2
2
2
2
2
2
2
2
2
2
2
2
2
2
2
3
3
2
2
2
2
2
2
2
2
2
2
2
2
2
2
2
2
2
2
2
2
2
2
2
2
2
2
3
3
3
3
3
3
3
3
3
3
3
3
3
3
3
3
3
3
3
3
3
3
3
3
3
3
3
3
3
3
3
3
3
3
3
3
3
3
3
3
3
3
3
3
3
3
3
3
3
3
3
3
3
3
3
3
</DataArray>
<DataArray NumberOfComponents='1' type='Float32' Name='Velocity' format='ascii'>
0.000000
0.000000
0.000000
0.000000
0.000000
0.000000
0.000000
0.000000
0.000000
0.000000
0.000000
0.000000
0.000000
0.000000
0.000000
0.000000
0.000000
0.000000
0.000000
0.000000
0.000000
0.000000
0.000000
0.000000
0.000000
0.000000
0.000000
0.000000
0.000000
0.000000
0.000000
0.000000
0.000000
0.000000
0.000000
0.000000
0.000000
0.000000
0.000000
0.000000
0.000000
0.000000
0.000000
0.000000
0.000000
0.000000
0.000000
0.000000
0.000000
0.000000
0.000000
0.000000
0.000000
0.000000
0.000000
0.000000
0.000000
0.000000
0.000000
0.000000
0.000000
0.000000
0.000000
0.000000
0.000000
0.000000
0.000000
0.000000
0.000000
0.000000
0.000000
0.000000
0.000000
0.000000
0.000000
0.000000
0.000000
0.000000
0.000000
0.000000
0.000000
0.000000
0.000000
0.000000
0.000000
0.000000
0.000000
0.000000
0.000000
0.000000
0.000000
0.000000
0.000000
0.000000
0.000000
0.000000
0.000000
0.000000
0.000000
0.000000
0.000000
0.000000
0.000000
0.000000
0.000000
0.000000
0.000000
0.000000
0.000000
0.000000
0.000000
0.000000
0.000000
0.000000
0.000000
0.000000
0.008415
0.109726
0.148395
0.062506
0.174290
0.024728
0.137715
0.061338
0.059729
0.032220
0.047375
0.020361
0.049783
0.020570
0.046087
0.073952
0.106117
0.291622
0.159659
0.325323
0.100000
0.100000
0.100000
0.100000
0.000000
0.000000
0.000000
0.000000
0.025747
0.116008
0.090753
0.226827
0.100408
0.081805
0.066734
0.081886
0.127967
0.103125
0.076245
0.089768
0.039328
0.033081
0.092889
0.013030
0.087406
0.144178
0.144788
0.261884
0.184028
0.100000
0.100000
0.100000
0.000000
0.000000
0.000000
0.000000
0.060430
0.046263
0.064272
0.293361
0.150255
0.043466
0.151999
0.048859
0.102918
0.134331
0.134226
0.147984
0.142218
0.129458
0.119694
0.067824
0.140700
0.129445
0.119752
0.126882
0.101488
0.100000
0.100000
0.100000
0.000000
0.000000
0.000000
0.000000
0.039889
0.074122
0.125332
0.121083
0.154758
0.120773
0.038819
0.041893
0.098558
0.039734
0.054608
0.041666
0.036711
0.045448
0.065585
0.080972
0.054435
0.154551
0.272400
0.033353
0.200114
0.531128
0.100000
0.100000
0.000000
0.000000
0.000000
0.000000
0.078722
0.070989
0.097448
0.095349
0.071880
0.121641
0.085833
0.086081
0.096956
0.109945
0.096648
0.118638
0.109006
0.064230
0.089145
0.134810
0.103405
0.092438
0.198344
0.200089
0.149640
0.425556
0.100000
0.100000
0.000000
0.000000
0.000000
0.000000
0.041040
0.070782
0.086998
0.085414
0.087445
0.084343
0.045055
0.042305
0.034723
0.071172
0.015335
0.052484
0.039636
0.040408
0.058446
0.032428
0.122061
0.069114
0.054257
0.168730
0.280861
0.109579
0.100000
0.100000
0.000000
0.000000
0.000000
0.000000
0.109872
0.063581
0.048707
0.100164
0.054038
0.040781
0.104689
0.173439
0.069811
0.046033
0.051044
0.054268
0.052468
0.094790
0.094279
0.111839
0.052640
0.090297
0.071374
0.045474
0.305747
0.110114
0.100000
0.100000
0.000000
0.000000
0.000000
0.000000
0.045527
0.022196
0.064583
0.066887
0.028043
0.060552
0.095863
0.119544
0.046944
0.065626
0.055619
0.058154
0.062506
0.119233
0.025345
0.161524
0.055699
0.177212
0.029069
0.202339
0.226245
0.379193
0.100000
0.100000
0.000000
0.000000
0.000000
0.000000
0.046173
0.013600
0.032190
0.119706
0.008434
0.049845
0.091661
0.116066
0.057856
0.054511
0.055726
0.087599
0.072081
0.052291
0.090272
0.095305
0.117676
0.103344
0.115474
0.133362
0.197339
0.201288
0.100000
0.100000
0.000000
0.000000
0.000000
0.000000
0.038529
0.012881
0.050073
0.116022
0.016908
0.127656
0.033445
0.103294
0.056256
0.048933
0.063041
0.050385
0.060841
0.095139
0.038261
0.174323
0.018155
0.100951
0.074201
0.121218
0.123217
0.149225
0.100000
0.100000
0.000000
0.000000
0.000000
0.000000
0.034143
0.022051
0.056393
0.128785
0.045380
0.080410
0.090176
0.098450
0.111703
0.060453
0.093022
0.062375
0.058301
0.036299
0.012069
0.064129
0.047359
0.055388
0.124863
0.100226
0.250493
0.122327
0.100000
0.100000
0.000000
0.000000
0.000000
0.000000
0.052601
0.030666
0.069163
0.098055
0.030765
0.088445
0.060373
0.114711
0.042955
0.033184
0.057822
0.019149
0.039324
0.021618
0.022929
0.063892
0.068177
0.102429
0.070827
0.157541
0.254778
0.020776
0.100000
0.100000
0.000000
0.000000
0.000000
0.000000
0.036224
0.023032
0.034749
0.120725
0.039727
0.106636
0.076313
0.067900
0.072127
0.041098
0.096453
0.017475
0.096086
0.072989
0.032161
0.122047
0.057551
0.108258
0.017943
0.124055
0.130981
0.093219
0.100000
0.100000
0.000000
0.000000
0.000000
0.000000
0.038900
0.012759
0.060885
0.087491
0.021578
0.081007
0.065760
0.081705
0.064822
0.102411
0.089404
0.063767
0.087042
0.041885
0.027345
0.074184
0.045238
0.055271
0.081505
0.135184
0.226002
0.123344
0.100000
0.100000
0.000000
0.000000
0.000000
0.000000
0.022524
0.010457
0.018940
0.130470
0.031855
0.074402
0.083645
0.045421
0.081027
0.064340
0.059843
0.033893
0.059735
0.037690
0.057891
0.039805
0.038226
0.061666
0.071187
0.080575
0.041846
0.056091
0.100000
0.100000
0.000000
0.000000
0.000000
0.000000
0.033857
0.030240
0.073669
0.113526
0.014784
0.030244
0.040143
0.058572
0.079572
0.030697
0.052310
0.033788
0.029492
0.028516
0.032476
0.047553
0.101082
0.077819
0.074190
0.102673
0.154070
0.058472
0.100000
0.100000
0.000000
0.000000
0.000000
0.000000
0.010282
0.028341
0.017864
0.104298
0.047907
0.043492
0.069301
0.004828
0.067463
0.040493
0.064162
0.024352
0.048658
0.049023
0.106097
0.077243
0.099945
0.051547
0.117036
0.075411
0.103365
0.115580
0.100000
0.100000
0.000000
0.000000
0.000000
0.000000
0.027089
0.023717
0.083460
0.115896
0.013519
0.036373
0.039558
0.060044
0.097627
0.018490
0.044497
0.026011
0.039742
0.056734
0.010473
0.049000
0.099078
0.155611
0.098635
0.195668
0.120545
0.110784
0.100000
0.100000
0.000000
0.000000
0.000000
0.000000
0.020314
0.044923
0.024203
0.101214
0.083789
0.025672
0.060593
0.052138
0.053518
0.049777
0.080677
0.026124
0.045919
0.058276
0.081795
0.069216
0.071196
0.015162
0.067784
0.190594
0.079797
0.061343
0.100000
0.100000
0.000000
0.000000
0.000000
0.000000
0.016111
0.014310
0.102738
0.087744
0.017796
0.025093
0.073618
0.020357
0.071530
0.018811
0.005238
0.016527
0.057829
0.063688
0.070082
0.010523
0.158528
0.169389
0.043026
0.176505
0.090801
0.019928
0.100000
0.100000
0.000000
0.000000
0.000000
0.000000
0.015655
0.056867
0.007041
0.092183
0.057919
0.012647
0.099288
0.059031
0.041732
0.022603
0.051168
0.005388
0.046459
0.051364
0.060394
0.124617
0.057496
0.080171
0.089710
0.120633
0.095834
0.070020
0.100000
0.100000
0.000000
0.000000
0.000000
0.000000
0.020620
0.020007
0.097691
0.083457
0.017488
0.040932
0.080323
0.031708
0.073964
0.062272
0.017238
0.016695
0.018457
0.040536
0.053852
0.030965
0.097386
0.035879
0.089994
0.079677
0.028763
0.043305
0.100000
0.100000
0.000000
0.000000
0.000000
0.000000
0.027685
0.049670
0.043669
0.082706
0.057331
0.018295
0.114481
0.052194
0.063008
0.020601
0.049044
0.049477
0.060956
0.060745
0.038405
0.051074
0.078303
0.009306
0.056001
0.096074
0.162844
0.089714
0.100000
0.100000
0.000000
0.000000
0.000000
0.000000
0.046153
0.037569
0.079927
0.051247
0.040512
0.031193
0.125088
0.061299
0.117876
0.048505
0.013162
0.022397
0.035075
0.033537
0.008576
0.007247
0.126915
0.060811
0.075253
0.042195
0.167761
0.122155
0.100000
0.100000
0.000000
0.000000
0.000000
0.000000
0.018908
0.022411
0.065846
0.121163
0.066344
0.047906
0.141109
0.070137
0.067378
0.032060
0.040137
0.034970
0.073558
0.069078
0.062052
0.091120
0.095285
0.111233
0.159528
0.078686
0.154575
0.171551
0.100000
0.100000
0.000000
0.000000
0.000000
0.000000
0.059029
0.025467
0.075296
0.019467
0.069493
0.101496
0.186215
0.158854
0.135587
0.115618
0.072060
0.096640
0.126781
0.078269
0.116937
0.158030
0.064751
0.121768
0.152589
0.056526
0.078810
0.071630
0.100000
0.100000
0.000000
0.000000
0.000000
0.000000
0.039997
0.025719
0.070078
0.114958
0.072314
0.033663
0.175006
0.070237
0.131156
0.048360
0.024389
0.033617
0.023667
0.038267
0.036171
0.138549
0.151098
0.145847
0.180666
0.150148
0.322412
0.279218
0.100000
0.100000
0.000000
0.000000
0.000000
0.000000
0.053653
0.009250
0.077960
0.010114
0.018503
0.108951
0.187861
0.136151
0.097749
0.070759
0.083089
0.016638
0.159379
0.043115
0.133845
0.067676
0.178894
0.192274
0.044481
0.181666
0.360914
0.096020
0.100000
0.100000
0.000000
0.000000
0.000000
0.000000
0.033799
0.008532
0.052494
0.050110
0.049777
0.085127
0.121393
0.120140
0.104765
0.052328
0.094677
0.064865
0.067542
0.124955
0.040983
0.132987
0.053385
0.254468
0.048087
0.142999
0.321746
0.155621
0.100000
0.100000
0.000000
0.000000
0.000000
0.000000
0.074293
0.063012
0.087407
0.035310
0.030479
0.036774
0.087182
0.184250
0.065038
0.075852
0.107390
0.007523
0.118043
0.124854
0.055828
0.070918
0.130542
0.088439
0.146308
0.064309
0.371169
0.293484
0.100000
0.100000
0.000000
0.000000
0.000000
0.000000
0.089013
0.050267
0.060831
0.035906
0.065448
0.018815
0.136095
0.052170
0.135269
0.054351
0.032212
0.079824
0.042631
0.129790
0.033150
0.092392
0.093520
0.104310
0.019811
0.173177
0.188547
0.049423
0.100000
0.100000
0.000000
0.000000
0.000000
0.000000
0.078228
0.066649
0.054804
0.026631
0.153356
0.033882
0.170850
0.169737
0.164311
0.123539
0.124585
0.020980
0.222735
0.039059
0.048481
0.023100
0.194513
0.072163
0.060230
0.070961
0.057471
0.248549
0.100000
0.100000
0.000000
0.000000
0.000000
0.000000
0.079468
0.047338
0.017599
0.092872
0.137469
0.020722
0.054425
0.087638
0.097914
0.066205
0.060898
0.063294
0.047677
0.229314
0.104719
0.052019
0.078613
0.081125
0.072494
0.248979
0.147090
0.349514
0.100000
0.100000
0.000000
0.000000
0.000000
0.000000
0.008195
0.113041
0.026816
0.040298
0.264652
0.083590
0.195474
0.164936
0.098445
0.035480
0.113538
0.015505
0.151305
0.113115
0.114844
0.056848
0.146156
0.114597
0.229768
0.099294
0.274264
0.087852
0.100000
0.100000
0.000000
0.000000
0.000000
0.000000
0.031846
0.036271
0.050320
0.105502
0.140685
0.096018
0.077260
0.043655
0.035076
0.034146
0.092249
0.022228
0.089740
0.029121
0.022354
0.070283
0.108122
0.067492
0.049189
0.140206
0.237229
0.650274
0.100000
0.100000
0.000000
0.000000
0.000000
0.000000
0.116211
0.047540
0.111847
0.111164
0.135215
0.110623
0.159180
0.090701
0.053106
0.100909
0.120018
0.155993
0.133733
0.105434
0.077904
0.078398
0.110463
0.167480
0.316857
0.076556
0.478643
0.207216
0.100000
0.100000
0.000000
0.000000
0.000000
0.000000
0.047321
0.111325
0.032470
0.169495
0.066007
0.158337
0.022268
0.081296
0.040912
0.160363
0.051120
0.006679
0.014528
0.058257
0.108184
0.095613
0.078598
0.200507
0.162288
0.159014
0.235362
0.091795
0.172561
0.100000
0.000000
0.000000
0.000000
0.000000
0.031359
0.103157
0.077084
0.093028
0.066338
0.199992
0.047546
0.078930
0.010797
0.089580
0.065477
0.165243
0.090606
0.072933
0.047418
0.042232
0.197519
0.141730
0.122793
0.140511
0.192482
0.238253
0.241379
0.100000
0.000000
0.000000
0.000000
0.000000
0.040222
0.143089
0.131663
0.207304
0.189073
0.066615
0.023433
0.076494
0.079922
0.063285
0.075762
0.057832
0.124450
0.015341
0.103164
0.213596
0.172829
0.077720
0.081934
0.041106
0.110891
0.299311
0.102426
0.100000
0.000000
0.000000
0.000000
0.000000
0.047610
0.054764
0.037654
0.180294
0.133580
0.086687
0.071022
0.111944
0.076029
0.094315
0.099601
0.063079
0.099484
0.061243
0.076980
0.088035
0.139409
0.152852
0.039203
0.035210
0.114031
0.148296
0.096755
0.100000
0.000000
0.000000
0.000000
0.000000
0.000000
0.000000
0.000000
0.000000
0.000000
0.000000
0.000000
0.000000
0.000000
0.000000
0.000000
0.000000
0.000000
0.000000
0.000000
0.000000
0.000000
0.000000
0.000000
0.000000
0.000000
0.000000
0.000000
0.000000
0.000000
0.000000
0.000000
0.000000
0.000000
0.000000
0.000000
0.000000
0.000000
0.000000
0.000000
0.000000
0.000000
0.000000
0.000000
0.000000
0.000000
0.000000
0.000000
0.000000
0.000000
0.000000
0.000000
0.000000
0.000000
0.000000
0.000000
0.000000
0.000000
0.000000
0.000000
0.000000
0.000000
0.000000
0.000000
0.000000
0.000000
0.000000
0.000000
0.000000
0.000000
0.000000
0.000000
0.000000
0.000000
0.000000
0.000000
0.000000
0.000000
0.000000
0.000000
0.000000
0.000000
0.000000
0.000000
0.000000
0.000000
0.000000
0.000000
0.000000
0.000000
0.000000
0.000000
0.000000
0.000000
0.000000
0.000000
0.000000
0.000000
0.000000
0.000000
0.000000
0.000000
0.000000
0.000000
0.000000
0.000000
0.000000
0.000000
0.000000
0.000000
0.000000
0.000000
0.000000
</DataArray>
<DataArray NumberOfComponents='1' type='Float32' Name='pressure' format='ascii'>
0.000000
0.000000
0.000000
0.000000
0.000000
0.000000
0.000000
0.000000
0.000000
0.000000
0.000000
0.000000
0.000000
0.000000
0.000000
0.000000
0.000000
0.000000
0.000000
0.000000
0.000000
0.000000
0.000000
0.000000
0.000000
0.000000
0.000000
0.000000
0.000000
0.000000
0.000000
0.000000
0.000000
0.000000
0.000000
0.000000
0.000000
0.000000
0.000000
0.000000
0.000000
0.000000
0.000000
0.000000
0.000000
0.000000
0.000000
0.000000
0.000000
0.000000
0.000000
0.000000
0.000000
0.000000
0.000000
0.000000
0.000000
0.000000
11626.225586
11651.491211
12100.711914
11372.033203
11443.336914
10114.982422
10323.622070
10460.935547
9778.742188
9258.552734
8838.675781
8372.760742
8617.541992
8408.315430
7719.039551
8182.795410
7324.854492
7619.253418
7030.905762
7123.091797
7087.979004
6721.031250
6779.995117
6340.602051
4679.169434
0.000000
0.000000
0.000000
11533.523438
11840.278320
11923.148438
10009.498047
11660.895508
9777.797852
9897.775391
10548.694336
9780.512695
9250.014648
8966.094727
8312.335938
8856.485352
8358.581055
7852.577637
8229.145508
7361.401367
7701.857910
6882.313477
7034.358887
6228.813965
6043.264160
7066.677734
5969.696289
6552.123047
0.000000
0.000000
0.000000
11126.165039
11402.688477
10940.917969
11393.395508
11149.973633
11130.877930
9608.897461
9803.541992
9381.391602
9258.000977
9242.988281
8636.980469
8518.136719
7968.962402
8346.400391
7337.157715
7685.526855
7118.738281
7060.438477
6528.729980
6881.633789
4587.757812
8342.659180
0.000000
8616.517578
0.000000
0.000000
0.000000
11353.934570
11592.058594
11763.689453
10398.104492
10956.837891
10640.566406
10511.441406
9839.117188
9570.543945
9291.562500
8866.178711
8475.541992
8688.080078
8225.673828
8156.740723
7484.565918
7941.941895
6936.140625
7038.744141
6496.312500
5986.699219
6447.657715
5247.355469
0.000000
13310.751953
3684.381348
0.000000
0.000000
10495.165039
10740.939453
11277.052734
10878.247070
11067.113281
9241.857422
10368.874023
10105.566406
9159.823242
9084.973633
9111.648438
8500.431641
8436.875000
8008.675293
8048.099121
7870.609375
7496.562012
7249.645020
7618.691406
7122.506836
6810.962891
6124.577637
6068.632812
9092.880859
13636.919922
0.000000
0.000000
0.000000
11647.793945
11638.349609
11473.123047
11063.454102
10327.115234
10778.843750
10378.226562
9496.519531
9725.981445
9722.602539
8975.359375
8751.082031
8714.691406
8490.117188
8217.758789
7807.009277
7702.437012
7569.376953
6991.922363
6737.609863
6697.789551
5415.838867
7039.459961
5911.448242
15866.664062
0.000000
0.000000
0.000000
11733.313477
11041.314453
10947.510742
10574.836914
11089.457031
9794.144531
10206.962891
9677.711914
9176.471680
9000.189453
9174.335938
8558.330078
8445.681641
8223.417969
7756.176270
8064.509766
7198.528320
7580.839355
6855.664551
6921.207031
6586.297852
5803.832520
7068.611816
4511.081055
14472.543945
0.000000
0.000000
0.000000
12200.072266
11512.956055
11379.148438
11181.167969
10224.499023
10326.120117
9968.713867
9867.911133
9636.141602
9694.525391
8923.412109
8842.369141
8729.506836
8292.952148
8266.553711
7823.147461
7582.496094
7394.895996
7031.158203
6944.822266
6709.374023
5864.052734
6166.942871
0.000000
15987.292969
0.000000
0.000000
0.000000
11891.651367
11177.008789
10778.579102
10541.193359
10716.083008
10206.139648
10186.517578
9723.100586
9715.428711
9077.107422
9184.847656
8888.688477
8517.548828
8477.167969
7859.552246
8026.536621
7369.002441
7667.625488
6654.358887
7030.872559
6308.785156
6805.549316
6953.962402
5274.457031
14567.316406
0.000000
0.000000
0.000000
11474.566406
11177.248047
11461.702148
10715.106445
10616.590820
10143.272461
10058.945312
9671.579102
9316.494141
9467.665039
8703.155273
8958.990234
8370.349609
8281.242188
8197.332031
7729.482910
7496.132324
7469.974609
7416.849121
6635.500488
7074.702637
5987.786133
8685.955078
5338.418945
14253.002930
0.000000
0.000000
0.000000
11028.812500
11214.476562
10870.944336
10722.846680
10523.585938
10142.496094
10031.203125
9840.474609
9795.534180
9332.715820
9129.158203
9105.240234
8473.710938
8609.759766
7735.691895
8024.815918
7350.866211
7487.812012
6685.306152
7227.077637
6117.215332
6683.673340
6605.662109
5500.275391
13963.034180
0.000000
0.000000
0.000000
10620.961914
10903.365234
11312.738281
10600.876953
10597.133789
10295.070312
9955.773438
9834.385742
9133.500000
9484.572266
8632.617188
8880.014648
8288.789062
8417.398438
8064.147949
7996.683594
7446.509766
7618.328613
6896.083496
7140.515625
6787.911621
6246.488770
6624.354980
5253.543945
14838.835938
0.000000
0.000000
0.000000
10751.425781
11362.050781
10932.938477
10674.457031
10468.982422
10223.942383
10005.400391
10069.221680
9674.936523
9505.817383
9120.604492
9011.215820
8422.253906
8445.512695
7722.283691
7866.559082
7202.617188
7697.761230
6855.244629
6885.067871
6024.563477
5666.158691
7387.550293
0.000000
14376.731445
0.000000
0.000000
0.000000
10557.495117
10992.439453
11204.453125
10574.807617
10664.076172