<?xml version='1.0' encoding='UTF-8'?>
<VTKFile xmlns='VTK' byte_order='LittleEndian' version='0.1' type='UnstructuredGrid'>
<UnstructuredGrid>
<Piece NumberOfCells='1344' NumberOfPoints='1344'>
<Points>
<DataArray NumberOfComponents='3' type='Float32' Name='Position' format='ascii'>
-0.075000 -0.075000 0.000000
-0.075000 -0.050000 0.000000
-0.075000 -0.025000 0.000000
-0.075000 0.000000 0.000000
-0.075000 0.025000 0.000000
-0.075000 0.050000 0.000000
-0.075000 0.075000 0.000000
-0.075000 0.100000 0.000000
-0.075000 0.125000 0.000000
-0.075000 0.150000 0.000000
-0.075000 0.175000 0.000000
-0.075000 0.200000 0.000000
-0.075000 0.225000 0.000000
-0.075000 0.250000 0.000000
-0.075000 0.275000 0.000000
-0.075000 0.300000 0.000000
-0.075000 0.325000 0.000000
-0.075000 0.350000 0.000000
-0.075000 0.375000 0.000000
-0.075000 0.400000 0.000000
-0.075000 0.425000 0.000000
-0.075000 0.450000 0.000000
-0.075000 0.475000 0.000000
-0.075000 0.500000 0.000000
-0.075000 0.525000 0.000000
-0.075000 0.550000 0.000000
-0.075000 0.575000 0.000000
-0.075000 0.600000 0.000000
-0.050000 -0.075000 0.000000
-0.050000 -0.050000 0.000000
-0.050000 -0.025000 0.000000
-0.050000 0.000000 0.000000
-0.050000 0.025000 0.000000
-0.050000 0.050000 0.000000
-0.050000 0.075000 0.000000
-0.050000 0.100000 0.000000
-0.050000 0.125000 0.000000
-0.050000 0.150000 0.000000
-0.050000 0.175000 0.000000
-0.050000 0.200000 0.000000
-0.050000 0.225000 0.000000
-0.050000 0.250000 0.000000
-0.050000 0.275000 0.000000
-0.050000 0.300000 0.000000
-0.050000 0.325000 0.000000
-0.050000 0.350000 0.000000
-0.050000 0.375000 0.000000
-0.050000 0.400000 0.000000
-0.050000 0.425000 0.000000
-0.050000 0.450000 0.000000
-0.050000 0.475000 0.000000
-0.050000 0.500000 0.000000
-0.050000 0.525000 0.000000
-0.050000 0.550000 0.000000
-0.050000 0.575000 0.000000
-0.050000 0.600000 0.000000
-0.025000 -0.075000 0.000000
-0.025000 -0.050000 0.000000
-0.025000 -0.025000 0.000000
-0.025000 0.000000 0.000000
-0.025000 0.025000 0.000000
-0.025000 0.050000 0.000000
-0.025000 0.075000 0.000000
-0.025000 0.100000 0.000000
-0.025000 0.125000 0.000000
-0.025000 0.150000 0.000000
-0.025000 0.175000 0.000000
-0.025000 0.200000 0.000000
-0.025000 0.225000 0.000000
-0.025000 0.250000 0.000000
-0.025000 0.275000 0.000000
-0.025000 0.300000 0.000000
-0.025000 0.325000 0.000000
-0.025000 0.350000 0.000000
-0.025000 0.375000 0.000000
-0.025000 0.400000 0.000000
-0.025000 0.425000 0.000000
-0.025000 0.450000 0.000000
-0.025000 0.475000 0.000000
-0.025000 0.500000 0.000000
-0.025000 0.525000 0.000000
-0.025000 0.550000 0.000000
-0.025000 0.575000 0.000000
-0.025000 0.600000 0.000000
0.000000 -0.075000 0.000000
0.000000 -0.050000 0.000000
0.000000 -0.025000 0.000000
0.000000 0.000000 0.000000
0.000000 0.025000 0.000000
0.000000 0.050000 0.000000
0.000000 0.075000 0.000000
0.000000 0.100000 0.000000
0.000000 0.125000 0.000000
0.000000 0.150000 0.000000
0.000000 0.175000 0.000000
0.000000 0.200000 0.000000
0.000000 0.225000 0.000000
0.000000 0.250000 0.000000
0.000000 0.275000 0.000000
0.000000 0.300000 0.000000
0.000000 0.325000 0.000000
0.000000 0.350000 0.000000
0.000000 0.375000 0.000000
0.000000 0.400000 0.000000
0.000000 0.425000 0.000000
0.000000 0.450000 0.000000
0.000000 0.475000 0.000000
0.000000 0.500000 0.000000
0.000000 0.525000 0.000000
0.000000 0.550000 0.000000
0.000000 0.575000 0.000000
0.000000 0.600000 0.000000
0.025000 -0.075000 0.000000
0.025000 -0.050000 0.000000
0.025000 -0.025000 0.000000
0.025000 0.000000 0.000000
0.024915 0.024876 0.000000
0.024982 0.049969 0.000000
0.024994 0.074951 0.000000
0.024999 0.099964 0.000000
0.025001 0.124967 0.000000
0.025001 0.149970 0.000000
0.025001 0.174972 0.000000
0.025001 0.199973 0.000000
0.025002 0.224974 0.000000
0.025002 0.249976 0.000000
0.025002 0.274977 0.000000
0.025001 0.299978 0.000000
0.024998 0.324984 0.000000
0.024994 0.349986 0.000000
0.024995 0.374990 0.000000
0.024990 0.400001 0.000000
0.024973 0.425008 0.000000
0.024946 0.450017 0.000000
0.024906 0.475037 0.000000
0.024883 0.500010 0.000000
0.024935 0.524846 0.000000
0.024990 0.549595 0.000000
0.026000 0.575001 0.000000
0.026000 0.600000 0.000000
0.050000 -0.075000 0.000000
0.050000 -0.050000 0.000000
0.050000 -0.025000 0.000000
0.050000 0.000000 0.000000
0.049971 0.024926 0.000000
0.049988 0.049987 0.000000
0.049992 0.074952 0.000000
0.049996 0.099968 0.000000
0.049998 0.124968 0.000000
0.049999 0.149971 0.000000
0.050000 0.174972 0.000000
0.050000 0.199974 0.000000
0.050000 0.224975 0.000000
0.050000 0.249976 0.000000
0.050001 0.274978 0.000000
0.050001 0.299978 0.000000
0.050001 0.324982 0.000000
0.050000 0.349986 0.000000
0.049998 0.374989 0.000000
0.049994 0.399994 0.000000
0.049986 0.424996 0.000000
0.049977 0.449997 0.000000
0.049961 0.475007 0.000000
0.049945 0.500014 0.000000
0.049967 0.524890 0.000000
0.049995 0.549617 0.000000
0.051000 0.575001 0.000000
0.051000 0.600000 0.000000
0.075000 -0.075000 0.000000
0.075000 -0.050000 0.000000
0.075000 -0.025000 0.000000
0.075000 0.000000 0.000000
0.074975 0.024939 0.000000
0.074981 0.049994 0.000000
0.074988 0.074958 0.000000
0.074993 0.099972 0.000000
0.074995 0.124970 0.000000
0.074997 0.149972 0.000000
0.074998 0.174973 0.000000
0.074998 0.199974 0.000000
0.074999 0.224975 0.000000
0.074999 0.249976 0.000000
0.074998 0.274978 0.000000
0.074998 0.299977 0.000000
0.074996 0.324981 0.000000
0.074995 0.349984 0.000000
0.074992 0.374986 0.000000
0.074989 0.399988 0.000000
0.074982 0.424989 0.000000
0.074976 0.449988 0.000000
0.074968 0.474994 0.000000
0.074962 0.500016 0.000000
0.074976 0.524914 0.000000
0.074996 0.549633 0.000000
0.076000 0.575001 0.000000
0.076000 0.600000 0.000000
0.100000 -0.075000 0.000000
0.100000 -0.050000 0.000000
0.100000 -0.025000 0.000000
0.100000 0.000000 0.000000
0.099982 0.024943 0.000000
0.099986 0.049999 0.000000
0.099990 0.074962 0.000000
0.099992 0.099974 0.000000
0.099994 0.124972 0.000000
0.099996 0.149973 0.000000
0.099997 0.174974 0.000000
0.099997 0.199974 0.000000
0.099998 0.224975 0.000000
0.099998 0.249976 0.000000
0.099997 0.274978 0.000000
0.099997 0.299976 0.000000
0.099996 0.324980 0.000000
0.099994 0.349982 0.000000
0.099992 0.374984 0.000000
0.099989 0.399984 0.000000
0.099985 0.424984 0.000000
0.099982 0.449983 0.000000
0.099976 0.474987 0.000000
0.099974 0.500019 0.000000
0.099984 0.524931 0.000000
0.099997 0.549643 0.000000
0.101000 0.575001 0.000000
0.101000 0.600000 0.000000
0.125000 -0.075000 0.000000
0.125000 -0.050000 0.000000
0.125000 -0.025000 0.000000
0.125000 0.000000 0.000000
0.124987 0.024945 0.000000
0.124988 0.050001 0.000000
0.124990 0.074965 0.000000
0.124992 0.099976 0.000000
0.124994 0.124973 0.000000
0.124995 0.149974 0.000000
0.124996 0.174974 0.000000
0.124996 0.199975 0.000000
0.124997 0.224976 0.000000
0.124997 0.249976 0.000000
0.124996 0.274977 0.000000
0.124996 0.299976 0.000000
0.124995 0.324978 0.000000
0.124994 0.349980 0.000000
0.124992 0.374982 0.000000
0.124990 0.399980 0.000000
0.124987 0.424981 0.000000
0.124986 0.449980 0.000000
0.124982 0.474983 0.000000
0.124981 0.500022 0.000000
0.124986 0.524942 0.000000
0.124998 0.549651 0.000000
0.126000 0.575001 0.000000
0.126000 0.600000 0.000000
0.150000 -0.075000 0.000000
0.150000 -0.050000 0.000000
0.150000 -0.025000 0.000000
0.150000 0.000000 0.000000
0.149990 0.024945 0.000000
0.149990 0.050003 0.000000
0.149991 0.074967 0.000000
0.149993 0.099978 0.000000
0.149994 0.124975 0.000000
0.149995 0.149975 0.000000
0.149995 0.174975 0.000000
0.149996 0.199975 0.000000
0.149996 0.224976 0.000000
0.149996 0.249976 0.000000
0.149996 0.274977 0.000000
0.149995 0.299975 0.000000
0.149995 0.324977 0.000000
0.149993 0.349978 0.000000
0.149992 0.374980 0.000000
0.149991 0.399978 0.000000
0.149989 0.424980 0.000000
0.149988 0.449978 0.000000
0.149986 0.474982 0.000000
0.149986 0.500022 0.000000
0.149988 0.524950 0.000000
0.149998 0.549659 0.000000
0.151000 0.575001 0.000000
0.151000 0.600000 0.000000
0.175000 -0.075000 0.000000
0.175000 -0.050000 0.000000
0.175000 -0.025000 0.000000
0.175000 0.000000 0.000000
0.174991 0.024945 0.000000
0.174992 0.050003 0.000000
0.174992 0.074968 0.000000
0.174993 0.099979 0.000000
0.174994 0.124975 0.000000
0.174995 0.149976 0.000000
0.174995 0.174976 0.000000
0.174995 0.199976 0.000000
0.174996 0.224976 0.000000
0.174996 0.249976 0.000000
0.174995 0.274977 0.000000
0.174995 0.299975 0.000000
0.174995 0.324976 0.000000
0.174994 0.349977 0.000000
0.174993 0.374979 0.000000
0.174992 0.399977 0.000000
0.174991 0.424979 0.000000
0.174990 0.449977 0.000000
0.174990 0.474981 0.000000
0.174989 0.500022 0.000000
0.174991 0.524956 0.000000
0.174998 0.549665 0.000000
0.176000 0.575001 0.000000
0.176000 0.600000 0.000000
0.200000 -0.075000 0.000000
0.200000 -0.050000 0.000000
0.200000 -0.025000 0.000000
0.200000 0.000000 0.000000
0.199993 0.024945 0.000000
0.199993 0.050004 0.000000
0.199993 0.074968 0.000000
0.199994 0.099980 0.000000
0.199994 0.124976 0.000000
0.199995 0.149976 0.000000
0.199995 0.174976 0.000000
0.199995 0.199976 0.000000
0.199995 0.224976 0.000000
0.199995 0.249976 0.000000
0.199995 0.274976 0.000000
0.199995 0.299975 0.000000
0.199995 0.324976 0.000000
0.199994 0.349977 0.000000
0.199994 0.374978 0.000000
0.199992 0.399976 0.000000
0.199992 0.424978 0.000000
0.199992 0.449976 0.000000
0.199992 0.474981 0.000000
0.199991 0.500022 0.000000
0.199993 0.524961 0.000000
0.199999 0.549670 0.000000
0.201000 0.575001 0.000000
0.201000 0.600000 0.000000
0.225000 -0.075000 0.000000
0.225000 -0.050000 0.000000
0.225000 -0.025000 0.000000
0.225000 0.000000 0.000000
0.224993 0.024945 0.000000
0.224993 0.050004 0.000000
0.224994 0.074968 0.000000
0.224994 0.099980 0.000000
0.224994 0.124976 0.000000
0.224995 0.149977 0.000000
0.224995 0.174976 0.000000
0.224995 0.199976 0.000000
0.224995 0.224976 0.000000
0.224995 0.249976 0.000000
0.224995 0.274976 0.000000
0.224995 0.299974 0.000000
0.224995 0.324975 0.000000
0.224994 0.349976 0.000000
0.224994 0.374978 0.000000
[...]
<PointData>
<DataArray NumberOfComponents='1' type='Int32' Name='ParticleType' format='ascii'>
3
3
3
3
3
3
3
3
3
3
3
3
3
3
3
3
3
3
3
3
3
3
3
3
3
3
3
3
3
3
3
3
3
3
3
3
3
3
3
3
3
3
3
3
3
3
3
3
3
3
3
3
3
3
3
3
3
3
2
2
2
2
2
2
2
2
2
2
2
2
2
2
2
2
2
2
2
2
2
2
2
2
2
2
3
3
2
2
2
2
2
2
2
2
2
2
2
2
2
2
2
2
2
2
2
2
2
2
2
2
2
2
3
3
2
2
0
0
0
0
0
0
0
0
0
0
0
0
0
0
0
0
0
0
0
0
0
0
0
0
3
3
2
2
0
0
0
0
0
0
0
0
0
0
0
0
0
0
0
0
0
0
0
0
0
0
0
0
3
3
2
2
0
0
0
0
0
0
0
0
0
0
0
0
0
0
0
0
0
0
0
0
0
0
0
0
3
3
2
2
0
0
0
0
0
0
0
0
0
0
0
0
0
0
0
0
0
0
0
0
0
0
0
0
3
3
2
2
0
0
0
0
0
0
0
0
0
0
0
0
0
0
0
0
0
0
0
0
0
0
0
0
3
3
2
2
0
0
0
0
0
0
0
0
0
0
0
0
0
0
0
0
0
0
0
0
0
0
0
0
3
3
2
2
0
0
0
0
0
0
0
0
0
0
0
0
0
0
0
0
0
0
0
0
0
0
0
0
3
3
2
2
0
0
0
0
0
0
0
0
0
0
0
0
0
0
0
0
0
0
0
0
0
0
0
0
3
3
2
2
0
0
0
0
0
0
0
0
0
0
0
0
0
0
0
0
0
0
0
0
0
0
0
0
3
3
2
2
0
0
0
0
0
0
0
0
0
0
0
0
0
0
0
0
0
0
0
0
0
0
0
0
3
3
2
2
0
0
0
0
0
0
0
0
0
0
0
0
0
0
0
0
0
0
0
0
0
0
0
0
3
3
2
2
0
0
0
0
0
0
0
0
0
0
0
0
0
0
0
0
0
0
0
0
0
0
0
0
3
3
2
2
0
0
0
0
0
0
0
0
0
0
0
0
0
0
0
0
0
0
0
0
0
0
0
0
3
3
2
2
0
0
0
0
0
0
0
0
0
0
0
0
0
0
0
0
0
0
0
0
0
0
0
0
3
3
2
2
0
0
0
0
0
0
0
0
0
0
0
0
0
0
0
0
0
0
0
0
0
0
0
0
3
3
2
2
0
0
0
0
0
0
0
0
0
0
0
0
0
0
0
0
0
0
0
0
0
0
0
0
3
3
2
2
0
0
0
0
0
0
0
0
0
0
0
0
0
0
0
0
0
0
0
0
0
0
0
0
3
3
2
2
0
0
0
0
0
0
0
0
0
0
0
0
0
0
0
0
0
0
0
0
0
0
0
0
3
3
2
2
0
0
0
0
0
0
0
0
0
0
0
0
0
0
0
0
0
0
0
0
0
0
0
0
3
3
2
2
0
0
0
0
0
0
0
0
0
0
0
0
0
0
0
0
0
0
0
0
0
0
0
0
3
3
2
2
0
0
0
0
0
0
0
0
0
0
0
0
0
0
0
0
0
0
0
0
0
0
0
0
3
3
2
2
0
0
0
0
0
0
0
0
0
0
0
0
0
0
0
0
0
0
0
0
0
0
0
0
3
3
2
2
0
0
0
0
0
0
0
0
0
0
0
0
0
0
0
0
0
0
0
0
0
0
0
0
3
3
2
2
0
0
0
0
0
0
0
0
0
0
0
0
0
0
0
0
0
0
0
0
0
0
0
0
3
3
2
2
0
0
0
0
0
0
0
0
0
0
0
0
0
0
0
0
0
0
0
0
0
0
0
0
3
3
2
2
0
0
0
0
0
0
0
0
0
0
0
0
0
0
0
0
0
0
0
0
0
0
0
0
3
3
2
2
0
0
0
0
0
0
0
0
0
0
0
0
0
0
0
0
0
0
0
0
0
0
0
0
3
3
2
2
0
0
0
0
0
0
0
0
0
0
0
0
0
0
0
0
0
0
0
0
0
0
0
0
3
3
2
2
0
0
0
0
0
0
0
0
0
0
0
0
0
0
0
0
0
0
0
0
0
0
0
0
3
3
2
2
0
0
0
0
0
0
0
0
0
0
0
0
0
0
0
0
0
0
0
0
0
0
0
0
3
3
2
2
0
0
0
0
0
0
0
0
0
0
0
0
0
0
0
0
0
0
0
0
0
0
0
0
3
3
2
2
0
0
0
0
0
0
0
0
0
0
0
0
0
0
0
0
0
0
0
0
0
0
0
0
3
3
2
2
0
0
0
0
0
0
0
0
0
0
0
0
0
0
0
0
0
0
0
0
0
0
0
0
3
3
2
2
0
0
0
0
0
0
0
0
0
0
0
0
0
0
0
0
0
0
0
0
0
0
0
0
3
3
2
2
0
0
0
0
0
0
0
0
0
0
0
0
0
0
0
0
0
0
0
0
0
0
0
0
3
3
2
2
0
0
0
0
0
0
0
0
0
0
0
0
0
0
0
0
0
0
0
0
0
0
0
0
3
3
2
2
0
0
0
0
0
0
0
0
0
0
0
0
0
0
0
0
0
0
0
0
0
0
0
0
3
3
2
2
0
0
0
0
0
0
0
0
0
0
0
0
0
0
0
0
0
0
0
0
0
0
0
0
3
3
2
2
0
0
0
0
0
0
0
0
0
0
0
0
0
0
0
0
0
0
0
0
0
0
0
0
3
3
2
2
0
0
0
0
0
0
0
0
0
0
0
0
0
0
0
0
0
0
0
0
0
0
0
0
3
3
2
2
2
2
2
2
2
2
2
2
2
2
2
2
2
2
2
2
2
2
2
2
2
2
2
2
3
3
2
2
2
2
2
2
2
2
2
2
2
2
2
2
2
2
2
2
2
2
2
2
2
2
2
2
3
3
3
3
3
3
3
3
3
3
3
3
3
3
3
3
3
3
3
3
3
3
3
3
3
3
3
3
3
3
3
3
3
3
3
3
3
3
3
3
3
3
3
3
3
3
3
3
3
3
3
3
3
3
3
3
</DataArray>
<DataArray NumberOfComponents='1' type='Float32' Name='Velocity' format='ascii'>
0.000000
0.000000
0.000000
0.000000
0.000000
0.000000
0.000000
0.000000
0.000000
0.000000
0.000000
0.000000
0.000000
0.000000
0.000000
0.000000
0.000000
0.000000
0.000000
0.000000
0.000000
0.000000
0.000000
0.000000
0.000000
0.000000
0.000000
0.000000
0.000000
0.000000
0.000000
0.000000
0.000000
0.000000
0.000000
0.000000
0.000000
0.000000
0.000000
0.000000
0.000000
0.000000
0.000000
0.000000
0.000000
0.000000
0.000000
0.000000
0.000000
0.000000
0.000000
0.000000
0.000000
0.000000
0.000000
0.000000
0.000000
0.000000
0.000000
0.000000
0.000000
0.000000
0.000000
0.000000
0.000000
0.000000
0.000000
0.000000
0.000000
0.000000
0.000000
0.000000
0.000000
0.000000
0.000000
0.000000
0.000000
0.000000
0.000000
0.000000
0.000000
0.000000
0.000000
0.000000
0.000000
0.000000
0.000000
0.000000
0.000000
0.000000
0.000000
0.000000
0.000000
0.000000
0.000000
0.000000
0.000000
0.000000
0.000000
0.000000
0.000000
0.000000
0.000000
0.000000
0.000000
0.000000
0.000000
0.000000
0.000000
0.000000
0.000000
0.000000
0.000000
0.000000
0.000000
0.000000
0.009323
0.009803
0.004006
0.005625
0.004629
0.004252
0.003822
0.003461
0.003152
0.002926
0.003067
0.003425
0.003981
0.004947
0.006363
0.006650
0.006229
0.008815
0.025104
0.056107
0.054782
0.032946
0.100000
0.100000
0.000000
0.000000
0.000000
0.000000
0.005466
0.009029
0.002484
0.005177
0.003934
0.003922
0.003691
0.003495
0.003342
0.003230
0.003580
0.003795
0.004305
0.005458
0.006571
0.006848
0.007385
0.007809
0.009917
0.036254
0.055585
0.022566
0.100000
0.100000
0.000000
0.000000
0.000000
0.000000
0.004757
0.007399
0.001975
0.004980
0.003642
0.003830
0.003675
0.003578
0.003524
0.003452
0.003824
0.003786
0.003652
0.004518
0.005585
0.005183
0.004795
0.004979
0.006216
0.030703
0.056908
0.018229
0.100000
0.100000
0.000000
0.000000
0.000000
0.000000
0.004741
0.007712
0.002421
0.004766
0.003566
0.003787
0.003688
0.003665
0.003686
0.003666
0.004103
0.004058
0.003836
0.004592
0.005696
0.004967
0.004240
0.004666
0.004907
0.027920
0.057242
0.016379
0.100000
0.100000
0.000000
0.000000
0.000000
0.000000
0.004423
0.007427
0.002235
0.004576
0.003437
0.003698
0.003659
0.003691
0.003760
0.003767
0.004213
0.004146
0.003840
0.004458
0.005588
0.004593
0.003767
0.004508
0.004290
0.025913
0.056846
0.015424
0.100000
0.100000
0.000000
0.000000
0.000000
0.000000
0.004008
0.007180
0.002221
0.004421
0.003317
0.003618
0.003621
0.003692
0.003795
0.003828
0.004262
0.004205
0.003859
0.004340
0.005472
0.004394
0.003595
0.004384
0.003905
0.024229
0.056081
0.014725
0.100000
0.100000
0.000000
0.000000
0.000000
0.000000
0.003649
0.006975
0.002145
0.004261
0.003194
0.003529
0.003566
0.003668
0.003794
0.003847
0.004262
0.004222
0.003859
0.004226
0.005336
0.004302
0.003528
0.004215
0.003489
0.022983
0.055361
0.014387
0.100000
0.100000
0.000000
0.000000
0.000000
0.000000
0.003349
0.006804
0.002059
0.004118
0.003075
0.003437
0.003500
0.003625
0.003768
0.003839
0.004232
0.004220
0.003849
0.004129
0.005200
0.004239
0.003495
0.003998
0.002979
0.021914
0.054803
0.014108
0.100000
0.100000
0.000000
0.000000
0.000000
0.000000
0.003104
0.006674
0.001968
0.003987
0.002959
0.003345
0.003428
0.003571
0.003727
0.003812
0.004183
0.004204
0.003830
0.004032
0.005067
0.004184
0.003456
0.003776
0.002538
0.021002
0.054346
0.013863
0.100000
0.100000
0.000000
0.000000
0.000000
0.000000
0.002897
0.006573
0.001869
0.003864
0.002850
0.003253
0.003353
0.003510
0.003675
0.003773
0.004122
0.004177
0.003805
0.003935
0.004943
0.004146
0.003425
0.003578
0.002142
0.020224
0.053974
0.013659
0.100000
0.100000
0.000000
0.000000
0.000000
0.000000
0.002719
0.006494
0.001762
0.003750
0.002750
0.003166
0.003279
0.003447
0.003619
0.003728
0.004056
0.004146
0.003776
0.003841
0.004825
0.004113
0.003393
0.003389
0.001784
0.019566
0.053672
0.013487
0.100000
0.100000
0.000000
0.000000
0.000000
0.000000
0.002549
0.006441
0.001652
0.003645
0.002659
0.003085
0.003207
0.003384
0.003561
0.003680
0.003989
0.004111
0.003747
0.003751
0.004716
0.004083
0.003362
0.003219
0.001465
0.019005
0.053427
0.013339
0.100000
0.100000
0.000000
0.000000
0.000000
0.000000
0.002403
0.006408
0.001541
0.003553
0.002578
0.003010
0.003141
0.003324
0.003505
0.003632
0.003923
0.004076
0.003719
0.003666
0.004614
0.004057
0.003335
0.003059
0.001177
0.018525
0.053236
0.013203
0.100000
0.100000
0.000000
0.000000
0.000000
0.000000
0.002283
0.006386
0.001437
0.003475
0.002506
0.002942
0.003080
0.003268
0.003452
0.003587
0.003860
0.004043
0.003692
0.003588
0.004521
0.004039
0.003305
0.002916
0.000962
0.018114
0.053064
0.013083
0.100000
0.100000
0.000000
0.000000
0.000000
0.000000
0.002189
0.006378
0.001339
0.003408
0.002444
0.002884
0.003026
0.003218
0.003404
0.003546
0.003803
0.004013
0.003669
0.003517
0.004437
0.004027
0.003264
0.002809
0.000805
0.017759
0.052912
0.012992
0.100000
0.100000
0.000000
0.000000
0.000000
0.000000
0.002117
0.006373
0.001246
0.003354
0.002389
0.002834
0.002979
0.003174
0.003361
0.003509
0.003751
0.003987
0.003650
0.003453
0.004362
0.004024
0.003221
0.002727
0.000680
0.017450
0.052768
0.012914
0.100000
0.100000
0.000000
0.000000
0.000000
0.000000
0.002054
0.006361
0.001164
0.003315
0.002340
0.002794
0.002940
0.003138
0.003325
0.003478
0.003705
0.003965
0.003635
0.003399
0.004296
0.004027
0.003183
0.002654
0.000568
0.017182
0.052658
0.012829
0.100000
0.100000
0.000000
0.000000
0.000000
0.000000
0.001998
0.006345
0.001095
0.003286
0.002297
0.002763
0.002908
0.003108
0.003296
0.003453
0.003667
0.003949
0.003626
0.003353
0.004240
0.004034
0.003154
0.002596
0.000472
0.016949
0.052582
0.012737
0.100000
0.100000
0.000000
0.000000
0.000000
0.000000
0.001957
0.006336
0.001040
0.003266
0.002263
0.002741
0.002884
0.003085
0.003273
0.003434
0.003636
0.003938
0.003622
0.003316
0.004194
0.004046
0.003135
0.002550
0.000392
0.016745
0.052535
0.012638
0.100000
0.100000
0.000000
0.000000
0.000000
0.000000
0.001934
0.006333
0.001001
0.003253
0.002240
0.002728
0.002868
0.003071
0.003258
0.003422
0.003612
0.003933
0.003623
0.003287
0.004157
0.004063
0.003125
0.002517
0.000329
0.016567
0.052515
0.012527
0.100000
0.100000
0.000000
0.000000
0.000000
0.000000
0.001926
0.006334
0.000981
0.003249
0.002227
0.002722
0.002860
0.003063
0.003249
0.003417
0.003595
0.003933
0.003631
0.003267
0.004129
0.004086
0.003125
0.002496
0.000289
0.016410
0.052521
0.012401
0.100000
0.100000
0.000000
0.000000
0.000000
0.000000
0.001930
0.006339
0.000977
0.003252
0.002226
0.002725
0.002861
0.003064
0.003249
0.003418
0.003586
0.003939
0.003644
0.003256
0.004110
0.004116
0.003134
0.002487
0.000276
0.016273
0.052556
0.012258
0.100000
0.100000
0.000000
0.000000
0.000000
0.000000
0.001946
0.006347
0.000992
0.003263
0.002236
0.002737
0.002870
0.003072
0.003255
0.003426
0.003584
0.003951
0.003663
0.003253
0.004098
0.004152
0.003152
0.002489
0.000292
0.016149
0.052620
0.012092
0.100000
0.100000
0.000000
0.000000
0.000000
0.000000
0.001974
0.006358
0.001024
0.003283
0.002257
0.002757
0.002887
0.003088
0.003268
0.003440
0.003588
0.003968
0.003688
0.003257
0.004095
0.004194
0.003179
0.002503
0.000335
0.016037
0.052715
0.011900
0.100000
0.100000
0.000000
0.000000
0.000000
0.000000
0.002016
0.006375
0.001072
0.003311
0.002290
0.002786
0.002913
0.003111
0.003288
0.003460
0.003598
0.003990
0.003717
0.003269
0.004097
0.004242
0.003215
0.002528
0.000398
0.015931
0.052843
0.011673
0.100000
0.100000
0.000000
0.000000
0.000000
0.000000
0.002071
0.006396
0.001133
0.003348
0.002335
0.002824
0.002947
0.003141
0.003314
0.003486
0.003612
0.004016
0.003751
0.003285
0.004104
0.004298
0.003259
0.002564
0.000477
0.015826
0.053010
0.011404
0.100000
0.100000
0.000000
0.000000
0.000000
0.000000
0.002143
0.006424
0.001206
0.003395
0.002392
0.002871
0.002989
0.003178
0.003346
0.003516
0.003631
0.004045
0.003788
0.003306
0.004115
0.004359
0.003311
0.002611
0.000572
0.015714
0.053221
0.011080
0.100000
0.100000
0.000000
0.000000
0.000000
0.000000
0.002234
0.006460
0.001290
0.003455
0.002462
0.002927
0.003040
0.003221
0.003382
0.003550
0.003651
0.004076
0.003827
0.003330
0.004126
0.004427
0.003370
0.002669
0.000683
0.015585
0.053483
0.010686
0.100000
0.100000
0.000000
0.000000
0.000000
0.000000
0.002349
0.006509
0.001382
0.003527
0.002544
0.002992
0.003098
0.003270
0.003422
0.003585
0.003672
0.004106
0.003867
0.003353
0.004136
0.004499
0.003434
0.002737
0.000809
0.015426
0.053808
0.010199
0.100000
0.100000
0.000000
0.000000
0.000000
0.000000
0.002491
0.006574
0.001480
0.003616
0.002640
0.003067
0.003164
0.003324
0.003465
0.003622
0.003691
0.004134
0.003906
0.003374
0.004139
0.004573
0.003499
0.002816
0.000956
0.015215
0.054208
0.009588
0.100000
0.100000
0.000000
0.000000
0.000000
0.000000
0.002674
0.006658
0.001584
0.003722
0.002750
0.003152
0.003236
0.003381
0.003508
0.003656
0.003704
0.004155
0.003940
0.003388
0.004135
0.004653
0.003564
0.002904
0.001124
0.014923
0.054703
0.008809
0.100000
0.100000
0.000000
0.000000
0.000000
0.000000
0.002911
0.006774
0.001689
0.003846
0.002873
0.003245
0.003314
0.003440
0.003550
0.003684
0.003712
0.004165
0.003961
0.003392
0.004111
0.004730
0.003632
0.003001
0.001320
0.014495
0.055313
0.007785
0.100000
0.100000
0.000000
0.000000
0.000000
0.000000
0.003198
0.006925
0.001796
0.003990
0.003008
0.003347
0.003396
0.003499
0.003587
0.003704
0.003711
0.004151
0.003967
0.003394
0.004060
0.004776
0.003698
0.003107
0.001551
0.013840
0.056083
0.006400
0.100000
0.100000
0.000000
0.000000
0.000000
0.000000
0.003537
0.007099
0.001904
0.004159
0.003149
0.003458
0.003480
0.003556
0.003618
0.003711
0.003700
0.004107
0.003950
0.003397
0.003978
0.004786
0.003758
0.003205
0.001837
0.012963
0.056998
0.004639
0.100000
0.100000
0.000000
0.000000
0.000000
0.000000
0.003948
0.007294
0.002003
0.004361
0.003295
0.003578
0.003567
0.003609
0.003640
0.003702
0.003671
0.004034
0.003897
0.003383
0.003863
0.004767
0.003810
0.003280
0.002242
0.011700
0.057825
0.002737
0.100000
0.100000
0.000000
0.000000
0.000000
0.000000
0.004437
0.007534
0.002036
0.004572
0.003449
0.003704
0.003653
0.003657
0.003649
0.003673
0.003616
0.003927
0.003805
0.003325
0.003708
0.004700
0.003821
0.003304
0.002592
0.009931
0.057637
0.005051
0.100000
0.100000
0.000000
0.000000
0.000000
0.000000
0.004819
0.007821
0.002244
0.004818
0.003617
0.003850
0.003747
0.003703
0.003648
0.003625
0.003532
0.003782
0.003676
0.003232
0.003527
0.004546
0.003817
0.003315
0.002738
0.007238
0.054637
0.013028
0.100000
0.100000
0.000000
0.000000
0.000000
0.000000
0.004902
0.007547
0.001829
0.005102
0.003764
0.003979
0.003837
0.003737
0.003627
0.003546
0.003401
0.003570
0.003459
0.003036
0.003251
0.004173
0.003634
0.003198
0.002809
0.004518
0.046922
0.021697
0.100000
0.100000
0.000000
0.000000
0.000000
0.000000
0.005529
0.009124
0.002336
0.005333
0.004109
0.004150
0.003958
0.003786
0.003612
0.003461
0.003260
0.003363
0.003296
0.003116
0.003517
0.004283
0.003815
0.003441
0.003712
0.005172
0.033922
0.040645
0.100000
0.100000
0.000000
0.000000
0.000000
0.000000
0.009323
0.009870
0.003934
0.005747
0.004794
0.004495
0.004139
0.003847
0.003574
0.003318
0.003022
0.002897
0.002606
0.002400
0.002696
0.003561
0.003133
0.001832
0.000209
0.002681
0.007459
0.064961
0.100000
0.100000
0.000000
0.000000
0.000000
0.000000
0.000000
0.000000
0.000000
0.000000
0.000000
0.000000
0.000000
0.000000
0.000000
0.000000
0.000000
0.000000
0.000000
0.000000
0.000000
0.000000
0.000000
0.000000
0.000000
0.000000
0.000000
0.000000
0.000000
0.000000
0.000000
0.000000
0.000000
0.000000
0.000000
0.000000
0.000000
0.000000
0.000000
0.000000
0.000000
0.000000
0.000000
0.000000
0.000000
0.000000
0.000000
0.000000
0.000000
0.000000
0.000000
0.000000
0.000000
0.000000
0.000000
0.000000
0.000000
0.000000
0.000000
0.000000
0.000000
0.000000
0.000000
0.000000
0.000000
0.000000
0.000000
0.000000
0.000000
0.000000
0.000000
0.000000
0.000000
0.000000
0.000000
0.000000
0.000000
0.000000
0.000000
0.000000
0.000000
0.000000
0.000000
0.000000
0.000000
0.000000
0.000000
0.000000
0.000000
0.000000
0.000000
0.000000
0.000000
0.000000
0.000000
0.000000
0.000000
0.000000
0.000000
0.000000
0.000000
0.000000
0.000000
0.000000
0.000000
0.000000
0.000000
0.000000
0.000000
0.000000
0.000000
0.000000
0.000000
0.000000
</DataArray>
<DataArray NumberOfComponents='1' type='Float32' Name='pressure' format='ascii'>
0.000000
0.000000
0.000000
0.000000
0.000000
0.000000
0.000000
0.000000
0.000000
0.000000
0.000000
0.000000
0.000000
0.000000
0.000000
0.000000
0.000000
0.000000
0.000000
0.000000
0.000000
0.000000
0.000000
0.000000
0.000000
0.000000
0.000000
0.000000
0.000000
0.000000
0.000000
0.000000
0.000000
0.000000
0.000000
0.000000
0.000000
0.000000
0.000000
0.000000
0.000000
0.000000
0.000000
0.000000
0.000000
0.000000
0.000000
0.000000
0.000000
0.000000
0.000000
0.000000
0.000000
0.000000
0.000000
0.000000
0.000000
0.000000
5007.376953
4957.855469
4860.217285
4631.700684
4381.957031
4130.501953
3888.348145
3656.048340
3432.576416
3216.416504
3007.087402
2805.023193
2611.805420
2430.201904
2263.880615
2113.451904
1979.783691
1866.048462
1765.296387
1644.246948
1433.060303
1000.633179
215.681641
0.000000
0.000000
0.000000
0.000000
0.000000
5037.553711
5062.799316
4954.186523
4650.319824
4388.511230
4122.036621
3881.504883
3649.961426
3427.607422
3211.817139
3002.049316
2798.547363
2603.443115
2418.633057
2251.499756
2101.238770
1964.234375
1856.922729
1783.625244
1717.110596
1614.545044
1313.151855
573.326172
0.000000
0.000000
0.000000
0.000000
0.000000
5097.566895
5165.453125
4929.730957
4563.495117
4356.852051
4099.479004
3869.406982
3643.464111
3424.056641
3209.416504
2999.333252
2793.893799
2594.640137
2397.956543
2214.983398
2052.161621
1901.001343
1773.846802
1670.504761
1584.098755
1571.633667
1571.291626
1049.905762
0.000000
0.000000
0.000000
0.000000
0.000000
5064.283691
5095.007812
4796.183105
4502.117676
4350.802734
4088.054932
3868.239990
3645.104248
3427.152832
3213.003906
3002.688232
2795.938477
2595.348877
2391.855469
2193.472412
2016.495972
1853.988770
1701.083618
1546.814819
1387.419556
1305.201050
1389.895752
1149.542603
0.000000
0.000000
0.000000
0.000000
0.000000
5015.990234
5030.320312
4755.153320
4495.970215
4334.070801
4076.160156
3862.437012
3641.154785
3424.931885
3211.479736
3001.141113
2793.292480
2591.444824
2386.392334
2183.550781
1998.809814
1826.641235
1660.230835
1492.107178
1326.944946
1219.796143
1304.906494
1142.859741
0.000000
0.000000
0.000000
0.000000
0.000000
4966.619141
4973.048340
4714.171875
4457.902344
4307.132324
4059.368164
3850.155273
3632.108887
3417.990479
3205.388916
2994.990234
2785.967041
2581.842773
2372.700439
2164.037842
1971.896362
1790.926392
1613.434448
1434.484863
1264.918091
1145.128662
1232.994507
1120.557373
0.000000
0.000000
0.000000
0.000000
0.000000
4924.884277
4931.133301
4680.028809
4430.183105
4286.143066
4042.526123
3836.828369
3621.513428
3409.019043
3197.163086
2986.691406
2776.692871
2570.767090
2358.994629
2145.905518
1947.560791
1761.429321
1576.802979
1391.806641
1219.935547
1087.992188
1173.612671
1099.964600
0.000000
0.000000
0.000000
0.000000
0.000000
4891.196777
4898.704590
4652.718750
4406.075684
4265.224121
4025.270020
3822.616699
3609.448486
3398.341553
3187.140869
2976.598145
2765.789062
2558.094971
2344.455811
2128.516357
1925.286255
1735.308105
1545.819214
1358.092163
1185.034790
1045.639893
1124.255371
1071.047241
0.000000
0.000000
0.000000
0.000000
0.000000
4864.351074
4873.173828
4630.209473
4385.013184
4246.416992
4008.994141
3808.401855
3596.853027
3386.835938
3176.150391
2965.540039
2754.141846
2545.019287
2330.022217
2112.157227
1905.395752
1712.337158
1520.174438
1331.505859
1155.920044
1012.692444
1085.738525
1045.617432
0.000000
0.000000
0.000000
0.000000
0.000000
4842.719238
4852.650391
4611.298828
4366.752441
4229.538086
3993.721680
3794.584717
3584.235840
3375.030518
3164.741211
2954.074951
2742.240479
2532.024170
2316.168701
2096.888428
1887.537231
1692.075195
1498.457886
1310.252930
1132.642212
986.303467
1055.258545
1027.076904
0.000000
0.000000
0.000000
0.000000
0.000000
4824.979980
4835.783691
4595.247559
4350.756348
4214.389160
3979.645020
3781.462646
3571.967529
3363.346191
3153.351318
2942.647705
2730.511475
2519.465576
2303.160645
2082.937256
1871.651978
1674.495850
1479.864746
1292.301758
1113.498901
964.315430
1029.860107
1011.958923
0.000000
0.000000
0.000000
0.000000
0.000000
4810.081055
4821.463867
4581.448730
4336.646973
4200.730957
3966.798584
3769.181885
3560.288086
3352.077637
3142.297607
2931.573242
2719.247070
2507.587158
2291.108643
2070.302002
1857.531250
1659.154419
1463.890015
1276.809937
1097.061890
945.707336
1008.900391
999.484802
0.000000
0.000000
0.000000
0.000000
0.000000
4797.281738
4808.959961
4569.449707
4324.174316
4188.412598
3955.161133
3757.831299
3549.357666
3341.429199
3131.804932
2921.074219
2708.643555
2496.540039
2280.078857
2058.937256
1845.014160
1645.723877
1450.085327
1263.586426
1083.141235
930.038940
991.411133
989.137573
0.000000
0.000000
0.000000
0.000000
0.000000
4786.287109
4798.163086
4559.011719
4313.076660
4177.356445
3944.687256
3747.452393
3539.275146
3331.536621
3122.026611
2911.301758
2698.828857
2486.408936
2270.093994
2048.787598
1833.955078
1633.977295
1438.091553
1252.203125
1071.270996