<?xml version='1.0' encoding='UTF-8'?>
<VTKFile xmlns='VTK' byte_order='LittleEndian' version='0.1' type='UnstructuredGrid'>
<UnstructuredGrid>
<Piece NumberOfCells='1344' NumberOfPoints='1344'>
<Points>
<DataArray NumberOfComponents='3' type='Float32' Name='Position' format='ascii'>
-0.075000 -0.075000 0.000000
-0.075000 -0.050000 0.000000
-0.075000 -0.025000 0.000000
-0.075000 0.000000 0.000000
-0.075000 0.025000 0.000000
-0.075000 0.050000 0.000000
-0.075000 0.075000 0.000000
-0.075000 0.100000 0.000000
-0.075000 0.125000 0.000000
-0.075000 0.150000 0.000000
-0.075000 0.175000 0.000000
-0.075000 0.200000 0.000000
-0.075000 0.225000 0.000000
-0.075000 0.250000 0.000000
-0.075000 0.275000 0.000000
-0.075000 0.300000 0.000000
-0.075000 0.325000 0.000000
-0.075000 0.350000 0.000000
-0.075000 0.375000 0.000000
-0.075000 0.400000 0.000000
-0.075000 0.425000 0.000000
-0.075000 0.450000 0.000000
-0.075000 0.475000 0.000000
-0.075000 0.500000 0.000000
-0.075000 0.525000 0.000000
-0.075000 0.550000 0.000000
-0.075000 0.575000 0.000000
-0.075000 0.600000 0.000000
-0.050000 -0.075000 0.000000
-0.050000 -0.050000 0.000000
-0.050000 -0.025000 0.000000
-0.050000 0.000000 0.000000
-0.050000 0.025000 0.000000
-0.050000 0.050000 0.000000
-0.050000 0.075000 0.000000
-0.050000 0.100000 0.000000
-0.050000 0.125000 0.000000
-0.050000 0.150000 0.000000
-0.050000 0.175000 0.000000
-0.050000 0.200000 0.000000
-0.050000 0.225000 0.000000
-0.050000 0.250000 0.000000
-0.050000 0.275000 0.000000
-0.050000 0.300000 0.000000
-0.050000 0.325000 0.000000
-0.050000 0.350000 0.000000
-0.050000 0.375000 0.000000
-0.050000 0.400000 0.000000
-0.050000 0.425000 0.000000
-0.050000 0.450000 0.000000
-0.050000 0.475000 0.000000
-0.050000 0.500000 0.000000
-0.050000 0.525000 0.000000
-0.050000 0.550000 0.000000
-0.050000 0.575000 0.000000
-0.050000 0.600000 0.000000
-0.025000 -0.075000 0.000000
-0.025000 -0.050000 0.000000
-0.025000 -0.025000 0.000000
-0.025000 0.000000 0.000000
-0.025000 0.025000 0.000000
-0.025000 0.050000 0.000000
-0.025000 0.075000 0.000000
-0.025000 0.100000 0.000000
-0.025000 0.125000 0.000000
-0.025000 0.150000 0.000000
-0.025000 0.175000 0.000000
-0.025000 0.200000 0.000000
-0.025000 0.225000 0.000000
-0.025000 0.250000 0.000000
-0.025000 0.275000 0.000000
-0.025000 0.300000 0.000000
-0.025000 0.325000 0.000000
-0.025000 0.350000 0.000000
-0.025000 0.375000 0.000000
-0.025000 0.400000 0.000000
-0.025000 0.425000 0.000000
-0.025000 0.450000 0.000000
-0.025000 0.475000 0.000000
-0.025000 0.500000 0.000000
-0.025000 0.525000 0.000000
-0.025000 0.550000 0.000000
-0.025000 0.575000 0.000000
-0.025000 0.600000 0.000000
0.000000 -0.075000 0.000000
0.000000 -0.050000 0.000000
0.000000 -0.025000 0.000000
0.000000 0.000000 0.000000
0.000000 0.025000 0.000000
0.000000 0.050000 0.000000
0.000000 0.075000 0.000000
0.000000 0.100000 0.000000
0.000000 0.125000 0.000000
0.000000 0.150000 0.000000
0.000000 0.175000 0.000000
0.000000 0.200000 0.000000
0.000000 0.225000 0.000000
0.000000 0.250000 0.000000
0.000000 0.275000 0.000000
0.000000 0.300000 0.000000
0.000000 0.325000 0.000000
0.000000 0.350000 0.000000
0.000000 0.375000 0.000000
0.000000 0.400000 0.000000
0.000000 0.425000 0.000000
0.000000 0.450000 0.000000
0.000000 0.475000 0.000000
0.000000 0.500000 0.000000
0.000000 0.525000 0.000000
0.000000 0.550000 0.000000
0.000000 0.575000 0.000000
0.000000 0.600000 0.000000
0.025000 -0.075000 0.000000
0.025000 -0.050000 0.000000
0.025000 -0.025000 0.000000
0.025000 0.000000 0.000000
0.024577 0.025234 0.000000
0.067311 0.022574 0.000000
0.023166 0.054314 0.000000
0.023017 0.110409 0.000000
0.022202 0.185536 0.000000
0.055464 0.231403 0.000000
0.025931 0.219046 0.000000
0.024476 0.239902 0.000000
0.022551 0.284368 0.000000
0.027924 0.311452 0.000000
0.024461 0.355314 0.000000
0.022825 0.386023 0.000000
0.021871 0.414474 0.000000
0.024642 0.445334 0.000000
0.024862 0.472802 0.000000
0.024180 0.496961 0.000000
0.024315 0.527153 0.000000
0.053810 0.534515 0.000000
0.043399 0.559396 0.000000
0.026339 0.578563 0.000000
0.034522 0.600000 0.000000
0.013407 0.600000 0.000000
0.114667 0.600000 0.000000
0.134078 0.600000 0.000000
0.050000 -0.075000 0.000000
0.050000 -0.050000 0.000000
0.050000 -0.025000 0.000000
0.050000 0.000000 0.000000
0.096619 0.023633 0.000000
0.045133 0.030931 0.000000
0.040828 0.066657 0.000000
0.025174 0.085587 0.000000
0.024518 0.140506 0.000000
0.028918 0.163395 0.000000
0.063871 0.207476 0.000000
0.053869 0.257254 0.000000
0.045508 0.294055 0.000000
0.056046 0.326877 0.000000
0.026157 0.332483 0.000000
0.045776 0.378969 0.000000
0.046892 0.407274 0.000000
0.047122 0.428016 0.000000
0.045334 0.455649 0.000000
0.049589 0.485663 0.000000
0.043877 0.512848 0.000000
0.068097 0.511344 0.000000
0.021871 0.551600 0.000000
0.059601 0.579460 0.000000
0.074967 0.600000 0.000000
0.053859 0.600000 0.000000
0.144586 0.578246 0.000000
0.154047 0.600000 0.000000
0.075000 -0.075000 0.000000
0.075000 -0.050000 0.000000
0.075000 -0.025000 0.000000
0.075000 0.000000 0.000000
0.079600 0.045312 0.000000
0.060189 0.055527 0.000000
0.061346 0.087842 0.000000
0.046032 0.131540 0.000000
0.074456 0.166345 0.000000
0.042335 0.200620 0.000000
0.089254 0.200289 0.000000
0.032150 0.262007 0.000000
0.075548 0.244245 0.000000
0.064250 0.282469 0.000000
0.069874 0.311013 0.000000
0.049238 0.355792 0.000000
0.071397 0.368617 0.000000
0.068264 0.395363 0.000000
0.083602 0.416677 0.000000
0.068190 0.441081 0.000000
0.080295 0.489939 0.000000
0.094960 0.514502 0.000000
0.081927 0.535494 0.000000
0.068954 0.556081 0.000000
0.087683 0.577562 0.000000
0.094615 0.600000 0.000000
0.173886 0.600000 0.000000
0.192066 0.600000 0.000000
0.100000 -0.075000 0.000000
0.100000 -0.050000 0.000000
0.100000 -0.025000 0.000000
0.100000 0.000000 0.000000
0.115383 0.036204 0.000000
0.069878 0.117524 0.000000
0.080241 0.138200 0.000000
0.046848 0.105262 0.000000
0.056454 0.180525 0.000000
0.054463 0.154910 0.000000
0.112286 0.226495 0.000000
0.085333 0.222898 0.000000
0.102645 0.251574 0.000000
0.086835 0.269573 0.000000
0.089166 0.292874 0.000000
0.072744 0.344473 0.000000
0.103056 0.365295 0.000000
0.091383 0.388607 0.000000
0.104415 0.420468 0.000000
0.091151 0.442116 0.000000
0.067053 0.469617 0.000000
0.095645 0.464704 0.000000
0.112809 0.532377 0.000000
0.137369 0.528652 0.000000
0.099179 0.555183 0.000000
0.115857 0.577396 0.000000
0.201680 0.577958 0.000000
0.210122 0.600000 0.000000
0.125000 -0.075000 0.000000
0.125000 -0.050000 0.000000
0.125000 -0.025000 0.000000
0.125000 0.000000 0.000000
0.101834 0.056924 0.000000
0.082947 0.076211 0.000000
0.100903 0.125733 0.000000
0.098536 0.180165 0.000000
0.098477 0.155972 0.000000
0.118125 0.196834 0.000000
0.134323 0.215052 0.000000
0.128298 0.246378 0.000000
0.117328 0.271216 0.000000
0.112124 0.298195 0.000000
0.094172 0.321038 0.000000
0.098233 0.342721 0.000000
0.126294 0.369451 0.000000
0.113840 0.392035 0.000000
0.130014 0.414761 0.000000
0.132679 0.440614 0.000000
0.117116 0.456472 0.000000
0.105202 0.490186 0.000000
0.124347 0.506046 0.000000
0.151792 0.554749 0.000000
0.173652 0.576640 0.000000
0.126936 0.554488 0.000000
0.229309 0.575530 0.000000
0.230072 0.600000 0.000000
0.150000 -0.075000 0.000000
0.150000 -0.050000 0.000000
0.150000 -0.025000 0.000000
0.150000 0.000000 0.000000
0.134812 0.023125 0.000000
0.122508 0.068036 0.000000
0.108123 0.088195 0.000000
0.087926 0.099325 0.000000
0.122412 0.151813 0.000000
0.128981 0.178201 0.000000
0.156597 0.201764 0.000000
0.148483 0.232891 0.000000
0.142743 0.267793 0.000000
0.139931 0.292790 0.000000
0.125158 0.316961 0.000000
0.125168 0.338675 0.000000
0.149806 0.372457 0.000000
0.143135 0.396377 0.000000
0.152304 0.424697 0.000000
0.165280 0.447912 0.000000
0.147146 0.463330 0.000000
0.128993 0.481071 0.000000
0.150953 0.509122 0.000000
0.175863 0.511473 0.000000
0.165603 0.536605 0.000000
0.184435 0.555022 0.000000
0.249140 0.600000 0.000000
0.268273 0.600000 0.000000
0.175000 -0.075000 0.000000
0.175000 -0.050000 0.000000
0.175000 -0.025000 0.000000
0.175000 0.000000 0.000000
0.162855 0.024367 0.000000
0.144194 0.046258 0.000000
0.139614 0.087674 0.000000
0.134128 0.132537 0.000000
0.145729 0.110599 0.000000
0.151646 0.153347 0.000000
0.152119 0.174767 0.000000
0.178934 0.166755 0.000000
0.174649 0.216677 0.000000
0.171733 0.243792 0.000000
0.165058 0.266293 0.000000
0.152724 0.322337 0.000000
0.147234 0.347849 0.000000
0.170270 0.387217 0.000000
0.173767 0.411848 0.000000
0.186542 0.432401 0.000000
0.207743 0.455418 0.000000
0.184763 0.460569 0.000000
0.156263 0.484681 0.000000
0.180695 0.487140 0.000000
0.203103 0.508853 0.000000
0.192703 0.530960 0.000000
0.282994 0.575941 0.000000
0.287741 0.600000 0.000000
0.200000 -0.075000 0.000000
0.200000 -0.050000 0.000000
0.200000 -0.025000 0.000000
0.200000 0.000000 0.000000
0.188934 0.026261 0.000000
0.174158 0.046186 0.000000
0.149749 0.067755 0.000000
0.117993 0.112950 0.000000
0.187116 0.116554 0.000000
0.162888 0.128653 0.000000
0.183626 0.139430 0.000000
0.201806 0.154048 0.000000
0.178508 0.188470 0.000000
0.194191 0.272215 0.000000
0.161123 0.295779 0.000000
0.174681 0.324091 0.000000
0.172890 0.353823 0.000000
0.193282 0.338302 0.000000
0.190066 0.368630 0.000000
0.193681 0.396865 0.000000
0.209350 0.427569 0.000000
0.204626 0.483045 0.000000
0.226168 0.494846 0.000000
0.241317 0.512320 0.000000
0.221563 0.529919 0.000000
0.210991 0.552435 0.000000
0.307861 0.574451 0.000000
0.306426 0.600000 0.000000
0.225000 -0.075000 0.000000
0.225000 -0.050000 0.000000
0.225000 -0.025000 0.000000
0.225000 0.000000 0.000000
0.213469 0.024390 0.000000
0.198397 0.052759 0.000000
0.177729 0.071724 0.000000
0.168089 0.093759 0.000000
0.216907 0.096454 0.000000
0.214224 0.122883 0.000000
0.224818 0.160492 0.000000
0.204504 0.183004 0.000000
0.198625 0.211609 0.000000
0.193558 0.239579 0.000000
0.211512 0.289261 0.000000
0.233311 0.295984 0.000000
0.200634 0.315317 0.000000
0.218180 0.346880 0.000000
0.213609 0.370146 0.000000
[...]
<PointData>
<DataArray NumberOfComponents='1' type='Int32' Name='ParticleType' format='ascii'>
3
3
3
3
3
3
3
3
3
3
3
3
3
3
3
3
3
3
3
3
3
3
3
3
3
3
3
3
3
3
3
3
3
3
3
3
3
3
3
3
3
3
3
3
3
3
3
3
3
3
3
3
3
3
3
3
3
3
2
2
2
2
2
2
2
2
2
2
2
2
2
2
2
2
2
2
2
2
2
2
2
2
2
2
3
3
2
2
2
2
2
2
2
2
2
2
2
2
2
2
2
2
2
2
2
2
2
2
2
2
2
2
3
3
2
2
0
0
0
0
0
0
0
0
0
0
0
0
0
0
0
0
0
0
0
0
0
0
0
0
3
3
2
2
0
0
0
0
0
0
0
0
0
0
0
0
0
0
0
0
0
0
0
0
0
0
0
0
3
3
2
2
0
0
0
0
0
0
0
0
0
0
0
0
0
0
0
0
0
0
0
0
0
0
0
0
3
3
2
2
0
0
0
0
0
0
0
0
0
0
0
0
0
0
0
0
0
0
0
0
0
0
0
0
3
3
2
2
0
0
0
0
0
0
0
0
0
0
0
0
0
0
0
0
0
0
0
0
0
0
0
0
3
3
2
2
0
0
0
0
0
0
0
0
0
0
0
0
0
0
0
0
0
0
0
0
0
0
0
0
3
3
2
2
0
0
0
0
0
0
0
0
0
0
0
0
0
0
0
0
0
0
0
0
0
0
0
0
3
3
2
2
0
0
0
0
0
0
0
0
0
0
0
0
0
0
0
0
0
0
0
0
0
0
0
0
3
3
2
2
0
0
0
0
0
0
0
0
0
0
0
0
0
0
0
0
0
0
0
0
0
0
0
0
3
3
2
2
0
0
0
0
0
0
0
0
0
0
0
0
0
0
0
0
0
0
0
0
0
0
0
0
3
3
2
2
0
0
0
0
0
0
0
0
0
0
0
0
0
0
0
0
0
0
0
0
0
0
0
0
3
3
2
2
0
0
0
0
0
0
0
0
0
0
0
0
0
0
0
0
0
0
0
0
0
0
0
0
3
3
2
2
0
0
0
0
0
0
0
0
0
0
0
0
0
0
0
0
0
0
0
0
0
0
0
0
3
3
2
2
0
0
0
0
0
0
0
0
0
0
0
0
0
0
0
0
0
0
0
0
0
0
0
0
3
3
2
2
0
0
0
0
0
0
0
0
0
0
0
0
0
0
0
0
0
0
0
0
0
0
0
0
3
3
2
2
0
0
0
0
0
0
0
0
0
0
0
0
0
0
0
0
0
0
0
0
0
0
0
0
3
3
2
2
0
0
0
0
0
0
0
0
0
0
0
0
0
0
0
0
0
0
0
0
0
0
0
0
3
3
2
2
0
0
0
0
0
0
0
0
0
0
0
0
0
0
0
0
0
0
0
0
0
0
0
0
3
3
2
2
0
0
0
0
0
0
0
0
0
0
0
0
0
0
0
0
0
0
0
0
0
0
0
0
3
3
2
2
0
0
0
0
0
0
0
0
0
0
0
0
0
0
0
0
0
0
0
0
0
0
0
0
3
3
2
2
0
0
0
0
0
0
0
0
0
0
0
0
0
0
0
0
0
0
0
0
0
0
0
0
3
3
2
2
0
0
0
0
0
0
0
0
0
0
0
0
0
0
0
0
0
0
0
0
0
0
0
0
3
3
2
2
0
0
0
0
0
0
0
0
0
0
0
0
0
0
0
0
0
0
0
0
0
0
0
0
3
3
2
2
0
0
0
0
0
0
0
0
0
0
0
0
0
0
0
0
0
0
0
0
0
0
0
0
3
3
2
2
0
0
0
0
0
0
0
0
0
0
0
0
0
0
0
0
0
0
0
0
0
0
0
0
3
3
2
2
0
0
0
0
0
0
0
0
0
0
0
0
0
0
0
0
0
0
0
0
0
0
0
0
3
3
2
2
0
0
0
0
0
0
0
0
0
0
0
0
0
0
0
0
0
0
0
0
0
0
0
0
3
3
2
2
0
0
0
0
0
0
0
0
0
0
0
0
0
0
0
0
0
0
0
0
0
0
0
0
3
3
2
2
0
0
0
0
0
0
0
0
0
0
0
0
0
0
0
0
0
0
0
0
0
0
0
0
3
3
2
2
0
0
0
0
0
0
0
0
0
0
0
0
0
0
0
0
0
0
0
0
0
0
0
0
3
3
2
2
0
0
0
0
0
0
0
0
0
0
0
0
0
0
0
0
0
0
0
0
0
0
0
0
3
3
2
2
0
0
0
0
0
0
0
0
0
0
0
0
0
0
0
0
0
0
0
0
0
0
0
0
3
3
2
2
0
0
0
0
0
0
0
0
0
0
0
0
0
0
0
0
0
0
0
0
0
0
0
0
3
3
2
2
0
0
0
0
0
0
0
0
0
0
0
0
0
0
0
0
0
0
0
0
0
0
0
0
3
3
2
2
0
0
0
0
0
0
0
0
0
0
0
0
0
0
0
0
0
0
0
0
0
0
0
0
3
3
2
2
0
0
0
0
0
0
0
0
0
0
0
0
0
0
0
0
0
0
0
0
0
0
0
0
3
3
2
2
0
0
0
0
0
0
0
0
0
0
0
0
0
0
0
0
0
0
0
0
0
0
0
0
3
3
2
2
0
0
0
0
0
0
0
0
0
0
0
0
0
0
0
0
0
0
0
0
0
0
0
0
3
3
2
2
0
0
0
0
0
0
0
0
0
0
0
0
0
0
0
0
0
0
0
0
0
0
0
0
3
3
2
2
0
0
0
0
0
0
0
0
0
0
0
0
0
0
0
0
0
0
0
0
0
0
0
0
3
3
2
2
2
2
2
2
2
2
2
2
2
2
2
2
2
2
2
2
2
2
2
2
2
2
2
2
3
3
2
2
2
2
2
2
2
2
2
2
2
2
2
2
2
2
2
2
2
2
2
2
2
2
2
2
3
3
3
3
3
3
3
3
3
3
3
3
3
3
3
3
3
3
3
3
3
3
3
3
3
3
3
3
3
3
3
3
3
3
3
3
3
3
3
3
3
3
3
3
3
3
3
3
3
3
3
3
3
3
3
3
</DataArray>
<DataArray NumberOfComponents='1' type='Float32' Name='Velocity' format='ascii'>
0.000000
0.000000
0.000000
0.000000
0.000000
0.000000
0.000000
0.000000
0.000000
0.000000
0.000000
0.000000
0.000000
0.000000
0.000000
0.000000
0.000000
0.000000
0.000000
0.000000
0.000000
0.000000
0.000000
0.000000
0.000000
0.000000
0.000000
0.000000
0.000000
0.000000
0.000000
0.000000
0.000000
0.000000
0.000000
0.000000
0.000000
0.000000
0.000000
0.000000
0.000000
0.000000
0.000000
0.000000
0.000000
0.000000
0.000000
0.000000
0.000000
0.000000
0.000000
0.000000
0.000000
0.000000
0.000000
0.000000
0.000000
0.000000
0.000000
0.000000
0.000000
0.000000
0.000000
0.000000
0.000000
0.000000
0.000000
0.000000
0.000000
0.000000
0.000000
0.000000
0.000000
0.000000
0.000000
0.000000
0.000000
0.000000
0.000000
0.000000
0.000000
0.000000
0.000000
0.000000
0.000000
0.000000
0.000000
0.000000
0.000000
0.000000
0.000000
0.000000
0.000000
0.000000
0.000000
0.000000
0.000000
0.000000
0.000000
0.000000
0.000000
0.000000
0.000000
0.000000
0.000000
0.000000
0.000000
0.000000
0.000000
0.000000
0.000000
0.000000
0.000000
0.000000
0.000000
0.000000
0.274206
0.253215
0.255496
0.182956
0.065835
0.500230
0.113398
0.256802
0.111001
0.191353
0.136475
0.060487
0.143119
0.202781
0.311755
0.549406
0.287787
0.445080
0.647984
0.100000
0.100000
0.100000
0.100000
0.100000
0.000000
0.000000
0.000000
0.000000
0.245945
0.065153
0.114187
0.079552
0.185114
0.157661
0.345229
0.464428
0.108471
0.043236
0.205849
0.203585
0.151507
0.193104
0.035941
0.586096
0.562230
0.031774
1.113754
0.100000
0.100000
0.100000
0.100000
0.100000
0.000000
0.000000
0.000000
0.000000
0.115022
0.203514
0.016776
0.140664
0.243920
0.233995
0.140144
0.148745
0.208021
0.191073
0.076392
0.213248
0.263734
0.235097
0.197759
0.374009
0.220896
0.565706
0.405536
0.348588
0.100000
0.100000
0.100000
0.100000
0.000000
0.000000
0.000000
0.000000
0.160786
0.048379
0.144595
0.232060
0.135506
0.187186
0.232088
0.189898
0.164847
0.166384
0.166444
0.093581
0.206568
0.066551
0.170991
0.318713
0.456559
0.236350
0.128992
0.131868
0.052840
0.100000
0.100000
0.100000
0.000000
0.000000
0.000000
0.000000
0.381818
0.135355
0.104833
0.012679
0.184358
0.169416
0.126399
0.147123
0.339514
0.189993
0.128294
0.311851
0.161860
0.170284
0.332742
0.143670
0.261950
0.183229
0.102102
0.207201
0.100000
0.108145
0.100000
0.100000
0.000000
0.000000
0.000000
0.000000
0.079677
0.327988
0.120978
0.218326
0.073243
0.075409
0.336527
0.302716
0.048706
0.088962
0.230516
0.235483
0.164067
0.290366
0.072722
0.143547
0.061098
0.125839
0.057132
0.120181
0.138537
0.395218
0.100000
0.100000
0.000000
0.000000
0.000000
0.000000
0.032058
0.178638
0.182809
0.205608
0.286069
0.142228
0.146330
0.234216
0.183413
0.166427
0.090192
0.242487
0.281766
0.241751
0.114156
0.249088
0.324505
0.166785
0.220497
0.097164
0.376832
0.268837
0.100000
0.100000
0.000000
0.000000
0.000000
0.000000
0.142865
0.150027
0.174387
0.092581
0.231748
0.151406
0.226573
0.181157
0.197335
0.109179
0.161065
0.114543
0.099851
0.139145
0.224763
0.164463
0.254926
0.197552
0.153895
0.159743
0.201231
0.403706
0.224751
0.100000
0.000000
0.000000
0.000000
0.000000
0.187193
0.410945
0.134076
0.255235
0.228048
0.080346
0.047372
0.283585
0.118431
0.310597
0.151307
0.172631
0.039751
0.159792
0.181259
0.227776
0.123259
0.094050
0.193127
0.242149
0.156736
0.190460
0.100000
0.100000
0.000000
0.000000
0.000000
0.000000
0.148921
0.165347
0.213266
0.374247
0.314071
0.238832
0.126769
0.240342
0.096412
0.090573
0.172962
0.240218
0.145334
0.282804
0.145069
0.200750
0.196025
0.089614
0.186336
0.116327
0.144176
0.180272
0.100000
0.100000
0.000000
0.000000
0.000000
0.000000
0.048023
0.145999
0.290965
0.266781
0.174664
0.060624
0.089460
0.142742
0.060661
0.071007
0.154339
0.214899
0.115736
0.159556
0.101708
0.115944
0.049739
0.148483
0.080523
0.177509
0.172121
0.100000
0.100000
0.100000
0.000000
0.000000
0.000000
0.000000
0.127422
0.127918
0.105624
0.119358
0.239455
0.093850
0.184837
0.195277
0.310382
0.360936
0.138315
0.284495
0.114643
0.243462
0.394089
0.072755
0.099337
0.184831
0.186482
0.255007
0.100198
0.049630
0.100000
0.100000
0.000000
0.000000
0.000000
0.000000
0.064669
0.096578
0.111373
0.149595
0.181602
0.075079
0.177927
0.207217
0.136724
0.147266
0.147671
0.156920
0.229711
0.140491
0.078523
0.327854
0.077697
0.113664
0.136496
0.196895
0.108227
0.165883
0.100000
0.100000
0.000000
0.000000
0.000000
0.000000
0.090034
0.252941
0.119677
0.231711
0.064900
0.073402
0.002672
0.076453
0.069994
0.223669
0.141955
0.118542
0.146223
0.101048
0.243145
0.363673
0.190671
0.290134
0.193960
0.299642
0.334579
0.100000
0.100000
0.100000
0.000000
0.000000
0.000000
0.000000
0.122640
0.247457
0.231675
0.178113
0.139457
0.025860
0.114240
0.316212
0.374637
0.043032
0.113726
0.212552
0.091274
0.305557
0.106326
0.176580
0.127284
0.293826
0.072463
0.091642
0.356156
0.140210
0.100000
0.100000
0.000000
0.000000
0.000000
0.000000
0.157685
0.156079
0.090859
0.057014
0.146594
0.116863
0.182548
0.371325
0.056821
0.493289
0.084471
0.062759
0.156913
0.117115
0.038777
0.262341
0.066339
0.028395
0.185427
0.267363
0.083048
0.256751
0.100000
0.100000
0.000000
0.000000
0.000000
0.000000
0.125263
0.175868
0.090184
0.084628
0.121417
0.173358
0.136653
0.111369
0.058761
0.265994
0.181005
0.115709
0.215475
0.267826
0.091771
0.195858
0.094741
0.176952
0.111118
0.197864
0.228108
0.100000
0.100000
0.100000
0.000000
0.000000
0.000000
0.000000
0.130741
0.144979
0.126379
0.123184
0.109591
0.059916
0.115838
0.130542
0.123574
0.088642
0.131137
0.122746
0.146148
0.127009
0.176359
0.236106
0.251646
0.121712
0.194947
0.118778
0.120660
0.079118
0.148086
0.100000
0.000000
0.000000
0.000000
0.000000
0.041147
0.096032
0.106470
0.012876
0.060801
0.281388
0.075583
0.095482
0.166885
0.254001
0.184817
0.258385
0.057381
0.184428
0.123646
0.295710
0.227709
0.066136
0.182061
0.306522
0.329817
0.225725
0.100000
0.100000
0.000000
0.000000
0.000000
0.000000
0.120489
0.127383
0.074532
0.107157
0.078415
0.088938
0.165333
0.149841
0.057942
0.156512
0.059280
0.073564
0.224414
0.203665
0.105639
0.048229
0.165536
0.215464
0.270302
0.135821
0.200957
0.100000
0.100000
0.100000
0.000000
0.000000
0.000000
0.000000
0.045984
0.031248
0.112744
0.093867
0.075033
0.215388
0.171348
0.385058
0.128033
0.080929
0.329092
0.249718
0.322709
0.334069
0.088718
0.164445
0.171948
0.249962
0.164050
0.237385
0.283921
0.330902
0.100000
0.100000
0.000000
0.000000
0.000000
0.000000
0.095679
0.125607
0.086447
0.097251
0.139194
0.147661
0.098460
0.165821
0.100061
0.126886
0.122700
0.073536
0.266094
0.148669
0.034722
0.086538
0.259402
0.114213
0.134346
0.208851
0.405567
0.336038
0.100000
0.100000
0.000000
0.000000
0.000000
0.000000
0.114223
0.204754
0.167681
0.106403
0.145878
0.262261
0.055019
0.094635
0.210308
0.209143
0.087504
0.014498
0.121765
0.103886
0.149627
0.054131
0.180943
0.269576
0.231669
0.061494
0.183347
0.266361
0.273707
0.100000
0.000000
0.000000
0.000000
0.000000
0.169384
0.048099
0.078960
0.125649
0.126547
0.078400
0.148999
0.056452
0.183740
0.148792
0.122979
0.157651
0.157026
0.104604
0.161788
0.062854
0.264584
0.117932
0.186965
0.131196
0.089944
0.236902
0.100000
0.100000
0.000000
0.000000
0.000000
0.000000
0.024957
0.205137
0.092622
0.203608
0.153303
0.220297
0.160496
0.129189
0.039755
0.140586
0.104699
0.085559
0.187443
0.171971
0.114446
0.193135
0.163360
0.235366
0.138201
0.178155
0.335388
0.157521
0.223887
0.100000
0.000000
0.000000
0.000000
0.000000
0.211174
0.095011
0.195973
0.131642
0.125387
0.135485
0.180153
0.244818
0.011273
0.033590
0.169319
0.055638
0.241299
0.069680
0.141943
0.196761
0.354327
0.091174
0.201977
0.214089
0.148466
0.103662
0.100000
0.100000
0.000000
0.000000
0.000000
0.000000
0.041738
0.121023
0.120265
0.198941
0.177319
0.079358
0.092007
0.142702
0.158220
0.098856
0.148665
0.085026
0.045844
0.038885
0.072421
0.114161
0.309402
0.184013
0.197540
0.255977
0.203815
0.232635
0.246060
0.100000
0.000000
0.000000
0.000000
0.000000
0.320882
0.161431
0.113042
0.208483
0.207831
0.057154
0.073005
0.047418
0.206968
0.030532
0.015173
0.177969
0.062464
0.101244
0.099891
0.086479
0.049528
0.165889
0.043971
0.286983
0.074656
0.431565
0.642189
0.100000
0.000000
0.000000
0.000000
0.000000
0.064388
0.178310
0.120629
0.197805
0.184008
0.145410
0.074144
0.291116
0.082825
0.029651
0.051993
0.142995
0.131232
0.340401
0.091933
0.100136
0.121155
0.162326
0.365761
0.070010
0.182144
0.441134
0.100000
0.100000
0.000000
0.000000
0.000000
0.000000
0.126009
0.181016
0.085133
0.113943
0.180156
0.100716
0.223445
0.109408
0.171707
0.238525
0.126402
0.090035
0.060411
0.059020
0.043794
0.135409
0.236642
0.429819
0.024180
0.448859
0.628929
0.591587
0.492717
0.100000
0.000000
0.000000
0.000000
0.000000
0.069101
0.216139
0.231124
0.089257
0.039834
0.140798
0.277932
0.289006
0.257631
0.084924
0.070394
0.054209
0.099821
0.159950
0.143705
0.052602
0.094478
0.374990
0.403261
0.106415
0.308809
0.100000
0.084041
0.100000
0.000000
0.000000
0.000000
0.000000
0.097870
0.232491
0.164736
0.112565
0.157155
0.135841
0.183005
0.264171
0.440854
0.174557
0.212248
0.124005
0.123216
0.114932
0.017690
0.060393
0.031316
0.181179
0.269130
0.577294
0.524563
0.445957
0.122293
0.100000
0.000000
0.000000
0.000000
0.000000
0.185735
0.265955
0.247519
0.046502
0.274977
0.078334
0.097781
0.386848
0.285976
0.127879
0.062466
0.237758
0.025395
0.026667
0.072618
0.154869
0.108632
0.138303
0.285690
0.239703
0.333989
0.171517
0.250646
0.100000
0.000000
0.000000
0.000000
0.000000
0.138650
0.107210
0.176871
0.255393
0.261489
0.073419
0.061331
0.264055
0.236631
0.315373
0.098804
0.156480
0.202755
0.005525
0.021774
0.071922
0.224621
0.098546
0.283444
0.225331
0.110764
0.428745
0.409111
0.100000
0.000000
0.000000
0.000000
0.000000
0.192400
0.206539
0.112643
0.244952
0.181169
0.105837
0.135727
0.110149
0.377615
0.107220
0.265329
0.483674
0.057929
0.075457
0.209639
0.105991
0.188734
0.225423
0.155299
0.225706
0.219515
0.092146
0.435656
0.100000
0.000000
0.000000
0.000000
0.000000
0.057947
0.202705
0.356348
0.179837
0.247375
0.166222
0.134906
0.429568
0.172761
0.224509
0.138630
0.386560
0.178727
0.219873
0.379954
0.129208
0.123006
0.160060
0.139807
0.409644
0.256774
0.343824
0.488532
0.100000
0.000000
0.000000
0.000000
0.000000
0.167387
0.113537
0.304215
0.166787
0.193790
0.138560
0.393236
0.101460
0.214363
0.290415
0.401843
0.238289
0.145632
0.060010
0.181020
0.322842
0.210556
0.303812
0.376482
0.396536
0.241454
0.269632
0.377176
0.100000
0.000000
0.000000
0.000000
0.000000
0.103902
0.231477
0.087522
0.537081
0.200725
0.094779
0.049060
0.190270
0.129022
0.026400
0.340545
0.078283
0.146145
0.189567
0.082538
0.250587
0.138401
0.167629
0.147307
0.332436
0.247546
0.063687
0.226831
0.100000
0.000000
0.000000
0.000000
0.000000
0.033055
0.199052
0.074378
0.123282
0.309009
0.218802
0.209363
0.164619
0.257327
0.175670
0.265438
0.198614
0.162990
0.076630
0.093743
0.265165
0.195833
0.235195
0.059993
0.429200
0.209128
0.077832
0.405234
0.100000
0.000000
0.000000
0.000000
0.000000
0.091672
0.144769
0.133670
0.075064
0.187535
0.074369
0.088378
0.154481
0.132178
0.197752
0.045671
0.055658
0.332508
0.115148
0.189681
0.234788
0.186410
0.156924
0.256461
0.099218
0.236284
0.553698
0.317045
0.100000
0.000000
0.000000
0.000000
0.000000
0.000000
0.000000
0.000000
0.000000
0.000000
0.000000
0.000000
0.000000
0.000000
0.000000
0.000000
0.000000
0.000000
0.000000
0.000000
0.000000
0.000000
0.000000
0.000000
0.000000
0.000000
0.000000
0.000000
0.000000
0.000000
0.000000
0.000000
0.000000
0.000000
0.000000
0.000000
0.000000
0.000000
0.000000
0.000000
0.000000
0.000000
0.000000
0.000000
0.000000
0.000000
0.000000
0.000000
0.000000
0.000000
0.000000
0.000000
0.000000
0.000000
0.000000
0.000000
0.000000
0.000000
0.000000
0.000000
0.000000
0.000000
0.000000
0.000000
0.000000
0.000000
0.000000
0.000000
0.000000
0.000000
0.000000
0.000000
0.000000
0.000000
0.000000
0.000000
0.000000
0.000000
0.000000
0.000000
0.000000
0.000000
0.000000
0.000000
0.000000
0.000000
0.000000
0.000000
0.000000
0.000000
0.000000
0.000000
0.000000
0.000000
0.000000
0.000000
0.000000
0.000000
0.000000
0.000000
0.000000
0.000000
0.000000
0.000000
0.000000
0.000000
0.000000
0.000000
0.000000
0.000000
0.000000
0.000000
0.000000
</DataArray>
<DataArray NumberOfComponents='1' type='Float32' Name='pressure' format='ascii'>
0.000000
0.000000
0.000000
0.000000
0.000000
0.000000
0.000000
0.000000
0.000000
0.000000
0.000000
0.000000
0.000000
0.000000
0.000000
0.000000
0.000000
0.000000
0.000000
0.000000
0.000000
0.000000
0.000000
0.000000
0.000000
0.000000
0.000000
0.000000
0.000000
0.000000
0.000000
0.000000
0.000000
0.000000
0.000000
0.000000
0.000000
0.000000
0.000000
0.000000
0.000000
0.000000
0.000000
0.000000
0.000000
0.000000
0.000000
0.000000
0.000000
0.000000
0.000000
0.000000
0.000000
0.000000
0.000000
0.000000
0.000000
0.000000
64109.417969
64318.625000
64696.128906
65116.996094
64085.664062
64717.457031
64496.546875
64365.605469
65148.054688
64813.882812
64439.257812
64590.328125
65553.390625
65459.656250
65596.500000
67178.718750
68584.890625
70545.429688
70982.664062
71177.031250
71901.140625
72106.789062
69840.656250
62616.265625
47781.707031
0.000000
0.000000
0.000000
63910.578125
64168.949219
65020.281250
65253.593750
64200.375000
64379.886719
64175.531250
64165.035156
64840.382812
64299.453125
64420.296875
64366.238281
64753.089844
65290.019531
65807.750000
67339.890625
67719.132812
69414.000000
70046.546875
70370.937500
72733.945312
73681.054688
73559.796875
70518.695312
61836.445312
0.000000
0.000000
0.000000
63570.781250
63348.222656
64354.656250
63632.144531
63060.820312
64548.437500
64680.839844
63519.386719
64025.019531
65077.941406
65205.187500
65276.410156
66720.546875
67051.492188
68818.921875
69851.992188
72326.757812
74220.546875
76791.062500
81554.023438
84361.734375
78691.867188
71986.906250
57496.734375
77010.085938
71073.445312
0.000000
0.000000
63352.851562
62143.738281
61678.937500
63832.554688
65104.156250
62835.554688
63820.867188
64488.843750
64108.589844
63556.824219
64801.046875
65225.414062
66098.421875
67239.648438
68312.414062
69094.554688
71072.242188
72271.000000
80431.882812
78808.140625
77310.375000
91745.328125
78565.226562
79132.890625
74060.210938
61009.351562
0.000000
0.000000
64262.992188
64537.480469
63491.742188
63219.445312
62709.839844
63162.617188
64117.937500
64735.136719
63914.535156
64982.121094
64907.207031
64267.750000
65458.437500
66235.382812
66149.765625
67047.070312
66207.687500
68838.476562
72963.015625
75406.335938
80620.031250
85035.687500
89416.242188
78507.109375
47205.457031
0.000000
0.000000
0.000000
63969.121094
63829.410156
62185.203125
63737.300781
63670.343750
64390.117188
63140.476562
63759.234375
61789.988281
64610.062500
63747.953125
64101.636719
64746.019531
65212.304688
64299.914062
66252.750000
66806.312500
68182.906250
71392.507812
69396.781250
74451.601562
69437.804688
79465.007812
84332.507812
48986.851562
35368.429688
0.000000
0.000000
63432.226562
63027.765625
63614.914062
62860.863281
62262.675781
63254.820312
63292.507812
62928.085938
62916.093750
63600.093750
62520.761719
63857.367188
63294.492188
65342.062500
64494.960938
64639.457031
65393.957031
64983.968750
66951.023438
71622.445312
69437.757812
65569.320312
58791.464844
73490.757812
48650.570312
39197.320312
0.000000
0.000000
62848.277344
62287.199219
62940.804688
62637.570312
62905.621094
64351.171875
62872.519531
62493.566406
61073.175781
62536.703125
62508.191406
62863.093750
63654.328125
63426.839844
63820.984375
62999.218750
63887.886719
63451.234375
65255.457031
67529.414062
66348.609375
61566.066406
61301.789062
54039.699219
41433.207031
43761.167969
0.000000
0.000000
61766.226562
61979.207031
62472.390625
61310.558594
62573.417969
62959.242188
63362.257812
61386.660156
62768.941406
61488.179688
61743.851562
61856.394531
60942.890625
62131.203125
62716.429688
62170.152344
62518.257812
60897.171875
60166.964844
60953.367188
63945.093750
61654.125000
57125.281250
57746.859375
51829.386719
44921.843750
0.000000
0.000000
61328.062500
60958.902344
62103.316406
62145.390625
64036.945312
63054.601562
61384.500000
62339.468750
62270.925781
61333.050781
61430.164062
61700.156250
62588.175781
61553.589844
61985.238281
61254.097656
61717.105469
60778.687500
60136.710938
59098.210938
57152.226562
55147.328125
53486.613281
49860.710938
52048.578125
46196.597656
0.000000
0.000000
61880.500000
62204.757812
61982.761719
61694.972656
62159.523438
60862.671875
61901.707031
61070.656250
61394.390625
61058.144531
61667.523438
60399.000000
60243.406250
60812.652344
61399.191406
60216.523438
60088.789062
58144.687500
58675.792969
56502.984375
56680.382812
55170.054688
53117.195312
48334.183594
51794.394531
46536.398438
0.000000
0.000000
61511.804688
61374.257812
60801.601562
61545.617188
61356.093750
62118.261719
60685.539062
60548.453125
60283.628906
59705.890625
60371.101562
60170.179688
61817.132812
61928.597656
59556.089844
59765.062500
60659.511719
58790.289062
58092.574219
57350.722656
54804.644531
55395.453125
52673.476562
52858.218750
47192.335938
46657.625000
0.000000
0.000000
61720.812500
61496.593750
61181.832031
61239.875000
61067.726562
60541.835938
59948.578125
60664.261719
59926.457031
61075.039062
59129.867188