<?xml version='1.0' encoding='UTF-8'?>
<VTKFile xmlns='VTK' byte_order='LittleEndian' version='0.1' type='UnstructuredGrid'>
<UnstructuredGrid>
<Piece NumberOfCells='1344' NumberOfPoints='1344'>
<Points>
<DataArray NumberOfComponents='3' type='Float32' Name='Position' format='ascii'>
-0.075000 -0.075000 0.000000
-0.075000 -0.050000 0.000000
-0.075000 -0.025000 0.000000
-0.075000 0.000000 0.000000
-0.075000 0.025000 0.000000
-0.075000 0.050000 0.000000
-0.075000 0.075000 0.000000
-0.075000 0.100000 0.000000
-0.075000 0.125000 0.000000
-0.075000 0.150000 0.000000
-0.075000 0.175000 0.000000
-0.075000 0.200000 0.000000
-0.075000 0.225000 0.000000
-0.075000 0.250000 0.000000
-0.075000 0.275000 0.000000
-0.075000 0.300000 0.000000
-0.075000 0.325000 0.000000
-0.075000 0.350000 0.000000
-0.075000 0.375000 0.000000
-0.075000 0.400000 0.000000
-0.075000 0.425000 0.000000
-0.075000 0.450000 0.000000
-0.075000 0.475000 0.000000
-0.075000 0.500000 0.000000
-0.075000 0.525000 0.000000
-0.075000 0.550000 0.000000
-0.075000 0.575000 0.000000
-0.075000 0.600000 0.000000
-0.050000 -0.075000 0.000000
-0.050000 -0.050000 0.000000
-0.050000 -0.025000 0.000000
-0.050000 0.000000 0.000000
-0.050000 0.025000 0.000000
-0.050000 0.050000 0.000000
-0.050000 0.075000 0.000000
-0.050000 0.100000 0.000000
-0.050000 0.125000 0.000000
-0.050000 0.150000 0.000000
-0.050000 0.175000 0.000000
-0.050000 0.200000 0.000000
-0.050000 0.225000 0.000000
-0.050000 0.250000 0.000000
-0.050000 0.275000 0.000000
-0.050000 0.300000 0.000000
-0.050000 0.325000 0.000000
-0.050000 0.350000 0.000000
-0.050000 0.375000 0.000000
-0.050000 0.400000 0.000000
-0.050000 0.425000 0.000000
-0.050000 0.450000 0.000000
-0.050000 0.475000 0.000000
-0.050000 0.500000 0.000000
-0.050000 0.525000 0.000000
-0.050000 0.550000 0.000000
-0.050000 0.575000 0.000000
-0.050000 0.600000 0.000000
-0.025000 -0.075000 0.000000
-0.025000 -0.050000 0.000000
-0.025000 -0.025000 0.000000
-0.025000 0.000000 0.000000
-0.025000 0.025000 0.000000
-0.025000 0.050000 0.000000
-0.025000 0.075000 0.000000
-0.025000 0.100000 0.000000
-0.025000 0.125000 0.000000
-0.025000 0.150000 0.000000
-0.025000 0.175000 0.000000
-0.025000 0.200000 0.000000
-0.025000 0.225000 0.000000
-0.025000 0.250000 0.000000
-0.025000 0.275000 0.000000
-0.025000 0.300000 0.000000
-0.025000 0.325000 0.000000
-0.025000 0.350000 0.000000
-0.025000 0.375000 0.000000
-0.025000 0.400000 0.000000
-0.025000 0.425000 0.000000
-0.025000 0.450000 0.000000
-0.025000 0.475000 0.000000
-0.025000 0.500000 0.000000
-0.025000 0.525000 0.000000
-0.025000 0.550000 0.000000
-0.025000 0.575000 0.000000
-0.025000 0.600000 0.000000
0.000000 -0.075000 0.000000
0.000000 -0.050000 0.000000
0.000000 -0.025000 0.000000
0.000000 0.000000 0.000000
0.000000 0.025000 0.000000
0.000000 0.050000 0.000000
0.000000 0.075000 0.000000
0.000000 0.100000 0.000000
0.000000 0.125000 0.000000
0.000000 0.150000 0.000000
0.000000 0.175000 0.000000
0.000000 0.200000 0.000000
0.000000 0.225000 0.000000
0.000000 0.250000 0.000000
0.000000 0.275000 0.000000
0.000000 0.300000 0.000000
0.000000 0.325000 0.000000
0.000000 0.350000 0.000000
0.000000 0.375000 0.000000
0.000000 0.400000 0.000000
0.000000 0.425000 0.000000
0.000000 0.450000 0.000000
0.000000 0.475000 0.000000
0.000000 0.500000 0.000000
0.000000 0.525000 0.000000
0.000000 0.550000 0.000000
0.000000 0.575000 0.000000
0.000000 0.600000 0.000000
0.025000 -0.075000 0.000000
0.025000 -0.050000 0.000000
0.025000 -0.025000 0.000000
0.025000 0.000000 0.000000
0.023875 0.026599 0.000000
0.042603 0.052848 0.000000
0.022298 0.059585 0.000000
0.022522 0.112671 0.000000
0.024453 0.152725 0.000000
0.024144 0.179845 0.000000
0.025321 0.206787 0.000000
0.025174 0.231205 0.000000
0.025350 0.255517 0.000000
0.025376 0.279131 0.000000
0.024633 0.303477 0.000000
0.026185 0.327214 0.000000
0.024109 0.351987 0.000000
0.025059 0.377289 0.000000
0.022793 0.407085 0.000000
0.025138 0.434789 0.000000
0.025703 0.461010 0.000000
0.022170 0.491007 0.000000
0.023479 0.525746 0.000000
0.023745 0.554890 0.000000
0.024270 0.582372 0.000000
0.024295 0.600000 0.000000
0.075498 0.600000 0.000000
0.092003 0.600000 0.000000
0.050000 -0.075000 0.000000
0.050000 -0.050000 0.000000
0.050000 -0.025000 0.000000
0.050000 0.000000 0.000000
0.045523 0.024169 0.000000
0.065448 0.051658 0.000000
0.047341 0.084899 0.000000
0.026231 0.087383 0.000000
0.035606 0.136986 0.000000
0.055452 0.159628 0.000000
0.043856 0.187992 0.000000
0.049303 0.221506 0.000000
0.052176 0.247418 0.000000
0.051691 0.270822 0.000000
0.052703 0.295358 0.000000
0.051277 0.318753 0.000000
0.050153 0.344101 0.000000
0.052009 0.366168 0.000000
0.043587 0.391971 0.000000
0.048321 0.414407 0.000000
0.045315 0.444405 0.000000
0.040857 0.477149 0.000000
0.041079 0.510236 0.000000
0.044016 0.539424 0.000000
0.048978 0.565435 0.000000
0.043435 0.600000 0.000000
0.107235 0.582060 0.000000
0.114537 0.600000 0.000000
0.075000 -0.075000 0.000000
0.075000 -0.050000 0.000000
0.075000 -0.025000 0.000000
0.075000 0.000000 0.000000
0.071172 0.025625 0.000000
0.088409 0.048764 0.000000
0.068722 0.076325 0.000000
0.046460 0.118259 0.000000
0.072459 0.122313 0.000000
0.070157 0.177347 0.000000
0.064817 0.203075 0.000000
0.073767 0.232683 0.000000
0.079535 0.257138 0.000000
0.076506 0.282578 0.000000
0.078290 0.306911 0.000000
0.077226 0.331069 0.000000
0.077470 0.356491 0.000000
0.075624 0.378525 0.000000
0.073325 0.403350 0.000000
0.071002 0.427579 0.000000
0.068949 0.450140 0.000000
0.069626 0.474029 0.000000
0.062920 0.495010 0.000000
0.065430 0.517955 0.000000
0.068203 0.545161 0.000000
0.059396 0.590254 0.000000
0.132605 0.593863 0.000000
0.150582 0.600000 0.000000
0.100000 -0.075000 0.000000
0.100000 -0.050000 0.000000
0.100000 -0.025000 0.000000
0.100000 0.000000 0.000000
0.096178 0.023315 0.000000
0.104392 0.065626 0.000000
0.093334 0.089494 0.000000
0.069514 0.100618 0.000000
0.092457 0.131929 0.000000
0.073024 0.150308 0.000000
0.093526 0.178352 0.000000
0.089620 0.204834 0.000000
0.096564 0.231206 0.000000
0.103540 0.258614 0.000000
0.100981 0.284135 0.000000
0.105325 0.309122 0.000000
0.101127 0.333431 0.000000
0.103849 0.355571 0.000000
0.100800 0.385559 0.000000
0.096578 0.408541 0.000000
0.096860 0.436755 0.000000
0.096275 0.463302 0.000000
0.092582 0.488023 0.000000
0.099752 0.508268 0.000000
0.087915 0.530543 0.000000
0.077580 0.570485 0.000000
0.158474 0.581711 0.000000
0.171952 0.600000 0.000000
0.125000 -0.075000 0.000000
0.125000 -0.050000 0.000000
0.125000 -0.025000 0.000000
0.125000 0.000000 0.000000
0.116742 0.036523 0.000000
0.130310 0.054123 0.000000
0.115806 0.085549 0.000000
0.107723 0.112400 0.000000
0.116224 0.137226 0.000000
0.105155 0.159579 0.000000
0.120315 0.180628 0.000000
0.112368 0.210115 0.000000
0.123356 0.231670 0.000000
0.125055 0.264428 0.000000
0.127334 0.288650 0.000000
0.128171 0.317159 0.000000
0.128930 0.343022 0.000000
0.124867 0.370792 0.000000
0.122697 0.396529 0.000000
0.119132 0.424447 0.000000
0.116656 0.453491 0.000000
0.119212 0.484435 0.000000
0.125021 0.507521 0.000000
0.113422 0.535988 0.000000
0.123446 0.562765 0.000000
0.096845 0.554871 0.000000
0.186128 0.581051 0.000000
0.193552 0.600000 0.000000
0.150000 -0.075000 0.000000
0.150000 -0.050000 0.000000
0.150000 -0.025000 0.000000
0.150000 0.000000 0.000000
0.136625 0.023192 0.000000
0.154348 0.052890 0.000000
0.141689 0.078121 0.000000
0.132129 0.108359 0.000000
0.146693 0.132295 0.000000
0.134490 0.153494 0.000000
0.146879 0.175961 0.000000
0.135584 0.198739 0.000000
0.146868 0.222336 0.000000
0.143519 0.244497 0.000000
0.150639 0.274199 0.000000
0.151417 0.296607 0.000000
0.150899 0.322826 0.000000
0.150154 0.351234 0.000000
0.145909 0.378804 0.000000
0.146789 0.407737 0.000000
0.138241 0.434481 0.000000
0.139259 0.463078 0.000000
0.145558 0.484935 0.000000
0.147294 0.510430 0.000000
0.136432 0.537990 0.000000
0.148964 0.558047 0.000000
0.212077 0.583543 0.000000
0.217950 0.600000 0.000000
0.175000 -0.075000 0.000000
0.175000 -0.050000 0.000000
0.175000 -0.025000 0.000000
0.175000 0.000000 0.000000
0.160316 0.025075 0.000000
0.178161 0.050281 0.000000
0.165445 0.077404 0.000000
0.153607 0.103559 0.000000
0.170579 0.130138 0.000000
0.161424 0.155855 0.000000
0.181532 0.176148 0.000000
0.165268 0.194333 0.000000
0.173278 0.215410 0.000000
0.171068 0.241705 0.000000
0.172552 0.264333 0.000000
0.179693 0.289453 0.000000
0.175584 0.314945 0.000000
0.174919 0.338138 0.000000
0.172557 0.363280 0.000000
0.168042 0.392077 0.000000
0.166344 0.417708 0.000000
0.162762 0.444278 0.000000
0.168424 0.465307 0.000000
0.172992 0.488031 0.000000
0.172610 0.513571 0.000000
0.163741 0.536077 0.000000
0.237348 0.581804 0.000000
0.241736 0.600000 0.000000
0.200000 -0.075000 0.000000
0.200000 -0.050000 0.000000
0.200000 -0.025000 0.000000
0.200000 0.000000 0.000000
0.184483 0.026236 0.000000
0.204070 0.049293 0.000000
0.190942 0.073631 0.000000
0.176783 0.101473 0.000000
0.196426 0.122784 0.000000
0.186851 0.148365 0.000000
0.204775 0.170794 0.000000
0.195932 0.198493 0.000000
0.196267 0.223450 0.000000
0.195798 0.250260 0.000000
0.199987 0.277608 0.000000
0.201152 0.307304 0.000000
0.201147 0.331407 0.000000
0.199731 0.356838 0.000000
0.189440 0.380799 0.000000
0.194007 0.408627 0.000000
0.188550 0.435310 0.000000
0.197025 0.454608 0.000000
0.197149 0.479425 0.000000
0.196385 0.505688 0.000000
0.192331 0.536814 0.000000
0.178249 0.556424 0.000000
0.263438 0.580618 0.000000
0.263261 0.600000 0.000000
0.225000 -0.075000 0.000000
0.225000 -0.050000 0.000000
0.225000 -0.025000 0.000000
0.225000 0.000000 0.000000
0.210861 0.023491 0.000000
0.227580 0.049913 0.000000
0.216535 0.075004 0.000000
0.201728 0.099933 0.000000
0.224706 0.126039 0.000000
0.212615 0.146585 0.000000
0.230349 0.170163 0.000000
0.219879 0.194251 0.000000
0.224585 0.217649 0.000000
0.218339 0.240929 0.000000
0.221740 0.266260 0.000000
0.222658 0.293128 0.000000
0.227060 0.320454 0.000000
0.226104 0.344503 0.000000
0.219474 0.370989 0.000000
[...]
<PointData>
<DataArray NumberOfComponents='1' type='Int32' Name='ParticleType' format='ascii'>
3
3
3
3
3
3
3
3
3
3
3
3
3
3
3
3
3
3
3
3
3
3
3
3
3
3
3
3
3
3
3
3
3
3
3
3
3
3
3
3
3
3
3
3
3
3
3
3
3
3
3
3
3
3
3
3
3
3
2
2
2
2
2
2
2
2
2
2
2
2
2
2
2
2
2
2
2
2
2
2
2
2
2
2
3
3
2
2
2
2
2
2
2
2
2
2
2
2
2
2
2
2
2
2
2
2
2
2
2
2
2
2
3
3
2
2
0
0
0
0
0
0
0
0
0
0
0
0
0
0
0
0
0
0
0
0
0
0
0
0
3
3
2
2
0
0
0
0
0
0
0
0
0
0
0
0
0
0
0
0
0
0
0
0
0
0
0
0
3
3
2
2
0
0
0
0
0
0
0
0
0
0
0
0
0
0
0
0
0
0
0
0
0
0
0
0
3
3
2
2
0
0
0
0
0
0
0
0
0
0
0
0
0
0
0
0
0
0
0
0
0
0
0
0
3
3
2
2
0
0
0
0
0
0
0
0
0
0
0
0
0
0
0
0
0
0
0
0
0
0
0
0
3
3
2
2
0
0
0
0
0
0
0
0
0
0
0
0
0
0
0
0
0
0
0
0
0
0
0
0
3
3
2
2
0
0
0
0
0
0
0
0
0
0
0
0
0
0
0
0
0
0
0
0
0
0
0
0
3
3
2
2
0
0
0
0
0
0
0
0
0
0
0
0
0
0
0
0
0
0
0
0
0
0
0
0
3
3
2
2
0
0
0
0
0
0
0
0
0
0
0
0
0
0
0
0
0
0
0
0
0
0
0
0
3
3
2
2
0
0
0
0
0
0
0
0
0
0
0
0
0
0
0
0
0
0
0
0
0
0
0
0
3
3
2
2
0
0
0
0
0
0
0
0
0
0
0
0
0
0
0
0
0
0
0
0
0
0
0
0
3
3
2
2
0
0
0
0
0
0
0
0
0
0
0
0
0
0
0
0
0
0
0
0
0
0
0
0
3
3
2
2
0
0
0
0
0
0
0
0
0
0
0
0
0
0
0
0
0
0
0
0
0
0
0
0
3
3
2
2
0
0
0
0
0
0
0
0
0
0
0
0
0
0
0
0
0
0
0
0
0
0
0
0
3
3
2
2
0
0
0
0
0
0
0
0
0
0
0
0
0
0
0
0
0
0
0
0
0
0
0
0
3
3
2
2
0
0
0
0
0
0
0
0
0
0
0
0
0
0
0
0
0
0
0
0
0
0
0
0
3
3
2
2
0
0
0
0
0
0
0
0
0
0
0
0
0
0
0
0
0
0
0
0
0
0
0
0
3
3
2
2
0
0
0
0
0
0
0
0
0
0
0
0
0
0
0
0
0
0
0
0
0
0
0
0
3
3
2
2
0
0
0
0
0
0
0
0
0
0
0
0
0
0
0
0
0
0
0
0
0
0
0
0
3
3
2
2
0
0
0
0
0
0
0
0
0
0
0
0
0
0
0
0
0
0
0
0
0
0
0
0
3
3
2
2
0
0
0
0
0
0
0
0
0
0
0
0
0
0
0
0
0
0
0
0
0
0
0
0
3
3
2
2
0
0
0
0
0
0
0
0
0
0
0
0
0
0
0
0
0
0
0
0
0
0
0
0
3
3
2
2
0
0
0
0
0
0
0
0
0
0
0
0
0
0
0
0
0
0
0
0
0
0
0
0
3
3
2
2
0
0
0
0
0
0
0
0
0
0
0
0
0
0
0
0
0
0
0
0
0
0
0
0
3
3
2
2
0
0
0
0
0
0
0
0
0
0
0
0
0
0
0
0
0
0
0
0
0
0
0
0
3
3
2
2
0
0
0
0
0
0
0
0
0
0
0
0
0
0
0
0
0
0
0
0
0
0
0
0
3
3
2
2
0
0
0
0
0
0
0
0
0
0
0
0
0
0
0
0
0
0
0
0
0
0
0
0
3
3
2
2
0
0
0
0
0
0
0
0
0
0
0
0
0
0
0
0
0
0
0
0
0
0
0
0
3
3
2
2
0
0
0
0
0
0
0
0
0
0
0
0
0
0
0
0
0
0
0
0
0
0
0
0
3
3
2
2
0
0
0
0
0
0
0
0
0
0
0
0
0
0
0
0
0
0
0
0
0
0
0
0
3
3
2
2
0
0
0
0
0
0
0
0
0
0
0
0
0
0
0
0
0
0
0
0
0
0
0
0
3
3
2
2
0
0
0
0
0
0
0
0
0
0
0
0
0
0
0
0
0
0
0
0
0
0
0
0
3
3
2
2
0
0
0
0
0
0
0
0
0
0
0
0
0
0
0
0
0
0
0
0
0
0
0
0
3
3
2
2
0
0
0
0
0
0
0
0
0
0
0
0
0
0
0
0
0
0
0
0
0
0
0
0
3
3
2
2
0
0
0
0
0
0
0
0
0
0
0
0
0
0
0
0
0
0
0
0
0
0
0
0
3
3
2
2
0
0
0
0
0
0
0
0
0
0
0
0
0
0
0
0
0
0
0
0
0
0
0
0
3
3
2
2
0
0
0
0
0
0
0
0
0
0
0
0
0
0
0
0
0
0
0
0
0
0
0
0
3
3
2
2
0
0
0
0
0
0
0
0
0
0
0
0
0
0
0
0
0
0
0
0
0
0
0
0
3
3
2
2
0
0
0
0
0
0
0
0
0
0
0
0
0
0
0
0
0
0
0
0
0
0
0
0
3
3
2
2
0
0
0
0
0
0
0
0
0
0
0
0
0
0
0
0
0
0
0
0
0
0
0
0
3
3
2
2
2
2
2
2
2
2
2
2
2
2
2
2
2
2
2
2
2
2
2
2
2
2
2
2
3
3
2
2
2
2
2
2
2
2
2
2
2
2
2
2
2
2
2
2
2
2
2
2
2
2
2
2
3
3
3
3
3
3
3
3
3
3
3
3
3
3
3
3
3
3
3
3
3
3
3
3
3
3
3
3
3
3
3
3
3
3
3
3
3
3
3
3
3
3
3
3
3
3
3
3
3
3
3
3
3
3
3
3
</DataArray>
<DataArray NumberOfComponents='1' type='Float32' Name='Velocity' format='ascii'>
0.000000
0.000000
0.000000
0.000000
0.000000
0.000000
0.000000
0.000000
0.000000
0.000000
0.000000
0.000000
0.000000
0.000000
0.000000
0.000000
0.000000
0.000000
0.000000
0.000000
0.000000
0.000000
0.000000
0.000000
0.000000
0.000000
0.000000
0.000000
0.000000
0.000000
0.000000
0.000000
0.000000
0.000000
0.000000
0.000000
0.000000
0.000000
0.000000
0.000000
0.000000
0.000000
0.000000
0.000000
0.000000
0.000000
0.000000
0.000000
0.000000
0.000000
0.000000
0.000000
0.000000
0.000000
0.000000
0.000000
0.000000
0.000000
0.000000
0.000000
0.000000
0.000000
0.000000
0.000000
0.000000
0.000000
0.000000
0.000000
0.000000
0.000000
0.000000
0.000000
0.000000
0.000000
0.000000
0.000000
0.000000
0.000000
0.000000
0.000000
0.000000
0.000000
0.000000
0.000000
0.000000
0.000000
0.000000
0.000000
0.000000
0.000000
0.000000
0.000000
0.000000
0.000000
0.000000
0.000000
0.000000
0.000000
0.000000
0.000000
0.000000
0.000000
0.000000
0.000000
0.000000
0.000000
0.000000
0.000000
0.000000
0.000000
0.000000
0.000000
0.000000
0.000000
0.000000
0.000000
0.098071
0.161966
0.045082
0.023701
0.057304
0.083637
0.083493
0.129872
0.141000
0.169378
0.088715
0.170157
0.164088
0.101708
0.268012
0.074209
0.213881
0.151898
0.323093
0.296156
0.100000
0.100000
0.100000
0.100000
0.000000
0.000000
0.000000
0.000000
0.111995
0.127498
0.090786
0.021306
0.087926
0.197174
0.084247
0.225272
0.141990
0.124189
0.150312
0.171141
0.121218
0.200497
0.126028
0.227564
0.090748
0.134610
0.215264
0.083350
0.168201
0.100000
0.100000
0.100000
0.000000
0.000000
0.000000
0.000000
0.044623
0.087111
0.031507
0.205924
0.030056
0.211199
0.108085
0.107903
0.090480
0.122126
0.041320
0.030980
0.065608
0.052657
0.188477
0.038796
0.192049
0.426820
0.149415
0.299498
0.086516
0.100000
0.100000
0.100000
0.000000
0.000000
0.000000
0.000000
0.038380
0.122926
0.181660
0.229297
0.133333
0.174597
0.078996
0.232578
0.202756
0.060507
0.169747
0.120591
0.180861
0.109635
0.093158
0.175419
0.124346
0.231624
0.196543
0.430841
0.147282
0.135363
0.100000
0.100000
0.000000
0.000000
0.000000
0.000000
0.080235
0.046430
0.146415
0.051126
0.064382
0.046273
0.179748
0.117661
0.056604
0.073259
0.071140
0.057048
0.014131
0.117693
0.046461
0.176212
0.102011
0.036613
0.094496
0.442164
0.454339
0.195313
0.100000
0.100000
0.000000
0.000000
0.000000
0.000000
0.090211
0.118724
0.023558
0.066608
0.044728
0.059192
0.080412
0.067092
0.133568
0.049820
0.084820
0.079846
0.126345
0.037117
0.027119
0.111263
0.127444
0.153782
0.241742
0.206494
0.184662
0.296311
0.100000
0.100000
0.000000
0.000000
0.000000
0.000000
0.094447
0.032836
0.099450
0.045678
0.171439
0.116751
0.068144
0.077847
0.097066
0.062658
0.108945
0.084777
0.048776
0.022563
0.052187
0.064437
0.211730
0.180775
0.218222
0.278626
0.333390
0.339130
0.100000
0.100000
0.000000
0.000000
0.000000
0.000000
0.007175
0.122710
0.051974
0.082155
0.211411
0.046414
0.087634
0.060155
0.080905
0.080281
0.068112
0.050835
0.035562
0.087108
0.051983
0.135034
0.261653
0.027780
0.165259
0.148875
0.052301
0.219275
0.100000
0.100000
0.000000
0.000000
0.000000
0.000000
0.024592
0.112379
0.066772
0.062396
0.098443
0.047747
0.131431
0.011572
0.014472
0.051456
0.100249
0.098420
0.069330
0.189629
0.064341
0.035774
0.111126
0.059763
0.048896
0.108010
0.148914
0.372084
0.100000
0.100000
0.000000
0.000000
0.000000
0.000000
0.035958
0.137565
0.117629
0.069487
0.080183
0.032492
0.164422
0.213197
0.071347
0.073330
0.111249
0.117102
0.016314
0.093487
0.103204
0.205462
0.137084
0.141776
0.280406
0.138523
0.136187
0.182543
0.100000
0.100000
0.000000
0.000000
0.000000
0.000000
0.025508
0.124540
0.073211
0.020818
0.076420
0.060876
0.140662
0.086960
0.166893
0.031974
0.123620
0.100277
0.062710
0.106353
0.025817
0.077676
0.069444
0.094791
0.157513
0.134893
0.231952
0.250249
0.100000
0.100000
0.000000
0.000000
0.000000
0.000000
0.015852
0.093071
0.115854
0.025983
0.116069
0.114773
0.133354
0.092534
0.066294
0.064552
0.255547
0.092608
0.060150
0.083368
0.109938
0.092344
0.235496
0.122479
0.258902
0.094434
0.077340
0.173247
0.100000
0.100000
0.000000
0.000000
0.000000
0.000000
0.010012
0.122738
0.118485
0.082357
0.029999
0.115056
0.051683
0.122735
0.130628
0.114264
0.176805
0.143782
0.036788
0.164918
0.136769
0.085748
0.152561
0.077270
0.215259
0.279497
0.207775
0.131213
0.100000
0.100000
0.000000
0.000000
0.000000
0.000000
0.056453
0.039951
0.119884
0.063126
0.026132
0.090420
0.062856
0.075255
0.080760
0.224571
0.267563
0.127311
0.144991
0.082892
0.024648
0.159188
0.065307
0.074031
0.304614
0.148942
0.173940
0.209704
0.100000
0.100000
0.000000
0.000000
0.000000
0.000000
0.019365
0.132986
0.109737
0.137457
0.042357
0.066960
0.105359
0.052836
0.036303
0.068806
0.217630
0.088263
0.101267
0.153138
0.020961
0.178159
0.084389
0.096420
0.173720
0.201912
0.365327
0.348355
0.100000
0.100000
0.000000
0.000000
0.000000
0.000000
0.117492
0.048168
0.136629
0.100920
0.036122
0.068114
0.078249
0.049808
0.074821
0.039845
0.190646
0.052107
0.017139
0.131193
0.146110
0.006453
0.029715
0.159203
0.166798
0.439592
0.131654
0.193362
0.100000
0.100000
0.000000
0.000000
0.000000
0.000000
0.006733
0.134524
0.067869
0.110517
0.025294
0.025061
0.068807
0.058106
0.065686
0.113185
0.033088
0.111127
0.072268
0.091718
0.073538
0.128690
0.148020
0.158415
0.085699
0.168768
0.314834
0.343815
0.100000
0.100000
0.000000
0.000000
0.000000
0.000000
0.132863
0.063600
0.123234
0.110759
0.026089
0.036329
0.068677
0.016766
0.083814
0.059967
0.091638
0.039440
0.033327
0.140889
0.088345
0.043563
0.062540
0.081560
0.263892
0.171338
0.160928
0.229370
0.100000
0.100000
0.000000
0.000000
0.000000
0.000000
0.065377
0.126658
0.097957
0.126629
0.053582
0.068256
0.097171
0.063278
0.033605
0.064189
0.028977
0.064674
0.041152
0.071119
0.078781
0.103639
0.067503
0.092907
0.344852
0.361362
0.212871
0.136122
0.100000
0.100000
0.000000
0.000000
0.000000
0.000000
0.097903
0.082041
0.087089
0.077357
0.052357
0.053495
0.074207
0.058551
0.033225
0.044909
0.055417
0.023334
0.047175
0.122386
0.103960
0.088775
0.180984
0.149496
0.204137
0.177190
0.186935
0.246007
0.100000
0.100000
0.000000
0.000000
0.000000
0.000000
0.074185
0.078045
0.118948
0.159182
0.155329
0.040857
0.072220
0.111394
0.067995
0.056736
0.021962
0.061455
0.008271
0.070096
0.060014
0.116444
0.074554
0.099594
0.032623
0.049054
0.095380
0.262119
0.100000
0.100000
0.000000
0.000000
0.000000
0.000000
0.050509
0.079519
0.061149
0.096963
0.079228
0.035432
0.175544
0.094071
0.066206
0.094386
0.070593
0.035105
0.038524
0.172292
0.090676
0.100884
0.022646
0.115170
0.098965
0.226076
0.094782
0.377856
0.100000
0.100000
0.000000
0.000000
0.000000
0.000000
0.073858
0.035158
0.028864
0.146125
0.144087
0.057121
0.143460
0.059136
0.134565
0.068908
0.045318
0.140069
0.012420
0.074977
0.130572
0.199665
0.104855
0.136276
0.064790
0.103227
0.209608
0.405536
0.100000
0.100000
0.000000
0.000000
0.000000
0.000000
0.013846
0.080404
0.087406
0.137274
0.055644
0.086881
0.081578
0.034120
0.064180
0.068008
0.264700
0.086638
0.050081
0.100776
0.097983
0.070825
0.190989
0.022858
0.042649
0.069628
0.404996
0.386417
0.100000
0.100000
0.000000
0.000000
0.000000
0.000000
0.026407
0.027138
0.038470
0.026252
0.057167
0.052097
0.069518
0.065810
0.064155
0.093368
0.037126
0.064955
0.055880
0.082657
0.225245
0.184458
0.178213
0.076659
0.191984
0.247071
0.314180
0.274816
0.100000
0.100000
0.000000
0.000000
0.000000
0.000000
0.006006
0.077100
0.032097
0.173510
0.019521
0.069580
0.184354
0.118296
0.057292
0.102365
0.053417
0.073988
0.123980
0.136519
0.157689
0.044523
0.255308
0.136392
0.117749
0.040706
0.278517
0.301393
0.100000
0.100000
0.000000
0.000000
0.000000
0.000000
0.040862
0.080873
0.056784
0.035389
0.159505
0.059239
0.213204
0.088318
0.043618
0.209087
0.038193
0.071178
0.134454
0.158572
0.118384
0.113816
0.052236
0.087215
0.262781
0.151586
0.259941
0.193388
0.100000
0.100000
0.000000
0.000000
0.000000
0.000000
0.053365
0.116543
0.089582
0.113239
0.087983
0.155625
0.151789
0.118340
0.062776
0.108644
0.076217
0.080243
0.134537
0.216209
0.026138
0.201360
0.175057
0.195224
0.130433
0.250463
0.083435
0.015568
0.100000
0.100000
0.000000
0.000000
0.000000
0.000000
0.034323
0.078397
0.135899
0.158719
0.047589
0.173874
0.261771
0.095839
0.196877
0.242858
0.070353
0.178293
0.051554
0.047955
0.164576
0.097764
0.145922
0.015063
0.213869
0.038929
0.239962
0.303005
0.100000
0.100000
0.000000
0.000000
0.000000
0.000000
0.152958
0.159102
0.069715
0.125292
0.085506
0.183532
0.069734
0.107419
0.120429
0.178579
0.021773
0.066436
0.262384
0.075866
0.174100
0.098249
0.140308
0.163312
0.078662
0.260070
0.177493
0.292281
0.100000
0.100000
0.000000
0.000000
0.000000
0.000000
0.079426
0.126501
0.007730
0.095830
0.170728
0.092157
0.159511
0.128693
0.113098
0.081774
0.118056
0.203832
0.112025
0.078479
0.169049
0.057230
0.056955
0.139023
0.267329
0.111570
0.358594
0.282592
0.100000
0.100000
0.000000
0.000000
0.000000
0.000000
0.107573
0.067715
0.088884
0.083660
0.159087
0.119295
0.064986
0.069546
0.140645
0.210948
0.136269
0.142012
0.068043
0.077430
0.062906
0.244737
0.127809
0.107141
0.234905
0.169980
0.218973
0.075712
0.100000
0.100000
0.000000
0.000000
0.000000
0.000000
0.073018
0.101971
0.102889
0.021306
0.105009
0.132927
0.198037
0.094824
0.141501
0.165164
0.059913
0.115893
0.250996
0.100482
0.082792
0.087626
0.195026
0.089467
0.230924
0.080002
0.294661
0.216396
0.100000
0.100000
0.000000
0.000000
0.000000
0.000000
0.130154
0.142946
0.067520
0.142552
0.153161
0.199172
0.081841
0.153143
0.154703
0.131529
0.093055
0.103821
0.070162
0.147835
0.032954
0.183332
0.204236
0.188524
0.232748
0.174029
0.131390
0.439786
0.100000
0.100000
0.000000
0.000000
0.000000
0.000000
0.020276
0.048554
0.154235
0.110994
0.114878
0.096310
0.189742
0.071556
0.110937
0.151063
0.184911
0.201655
0.082239
0.233152
0.131500
0.139207
0.132068
0.071304
0.197702
0.147252
0.206569
0.741188
0.149003
0.100000
0.000000
0.000000
0.000000
0.000000
0.050742
0.120028
0.194455
0.219833
0.126008
0.285724
0.218397
0.141055
0.212718
0.164586
0.064665
0.126014
0.228316
0.050786
0.150519
0.156921
0.032118
0.045349
0.086614
0.185798
0.317297
0.518060
0.318559
0.100000
0.000000
0.000000
0.000000
0.000000
0.084895
0.058568
0.176993
0.132464
0.134211
0.112758
0.140258
0.313305
0.078907
0.084397
0.242816
0.218915
0.064735
0.185566
0.222731
0.207942
0.055565
0.160661
0.249323
0.165795
0.162953
0.107804
0.318003
0.100000
0.000000
0.000000
0.000000
0.000000
0.042475
0.065376
0.097853
0.135637
0.059959
0.027362
0.100691
0.129247
0.007571
0.296351
0.094877
0.082872
0.137591
0.112923
0.145366
0.139709
0.166390
0.143150
0.149253
0.140149
0.113342
0.064211
0.186024
0.100000
0.000000
0.000000
0.000000
0.000000
0.037349
0.115670
0.196274
0.257091
0.041065
0.105737
0.047234
0.008933
0.120609
0.115356
0.145646
0.104385
0.107641
0.100902
0.084619
0.161724
0.075590
0.095714
0.160075
0.146850
0.114394
0.414309
0.122929
0.100000
0.000000
0.000000
0.000000
0.000000
0.028361
0.031033
0.031497
0.010349
0.146578
0.079955
0.097677
0.131478
0.060343
0.084062
0.216049
0.061207
0.173179
0.116355
0.101987
0.196328
0.171007
0.034867
0.076973
0.071422
0.297854
0.559756
0.212630
0.100000
0.000000
0.000000
0.000000
0.000000
0.000000
0.000000
0.000000
0.000000
0.000000
0.000000
0.000000
0.000000
0.000000
0.000000
0.000000
0.000000
0.000000
0.000000
0.000000
0.000000
0.000000
0.000000
0.000000
0.000000
0.000000
0.000000
0.000000
0.000000
0.000000
0.000000
0.000000
0.000000
0.000000
0.000000
0.000000
0.000000
0.000000
0.000000
0.000000
0.000000
0.000000
0.000000
0.000000
0.000000
0.000000
0.000000
0.000000
0.000000
0.000000
0.000000
0.000000
0.000000
0.000000
0.000000
0.000000
0.000000
0.000000
0.000000
0.000000
0.000000
0.000000
0.000000
0.000000
0.000000
0.000000
0.000000
0.000000
0.000000
0.000000
0.000000
0.000000
0.000000
0.000000
0.000000
0.000000
0.000000
0.000000
0.000000
0.000000
0.000000
0.000000
0.000000
0.000000
0.000000
0.000000
0.000000
0.000000
0.000000
0.000000
0.000000
0.000000
0.000000
0.000000
0.000000
0.000000
0.000000
0.000000
0.000000
0.000000
0.000000
0.000000
0.000000
0.000000
0.000000
0.000000
0.000000
0.000000
0.000000
0.000000
0.000000
0.000000
0.000000
</DataArray>
<DataArray NumberOfComponents='1' type='Float32' Name='pressure' format='ascii'>
0.000000
0.000000
0.000000
0.000000
0.000000
0.000000
0.000000
0.000000
0.000000
0.000000
0.000000
0.000000
0.000000
0.000000
0.000000
0.000000
0.000000
0.000000
0.000000
0.000000
0.000000
0.000000
0.000000
0.000000
0.000000
0.000000
0.000000
0.000000
0.000000
0.000000
0.000000
0.000000
0.000000
0.000000
0.000000
0.000000
0.000000
0.000000
0.000000
0.000000
0.000000
0.000000
0.000000
0.000000
0.000000
0.000000
0.000000
0.000000
0.000000
0.000000
0.000000
0.000000
0.000000
0.000000
0.000000
0.000000
0.000000
0.000000
24782.138672
24875.138672
25275.404297
25342.150391
24547.537109
24363.867188
24070.111328
23609.275391
23305.455078
22424.445312
22033.306641
21647.384766
21408.503906
21388.097656
20739.746094
21326.650391
20958.433594
21301.923828
20352.457031
19372.814453
19927.888672
20416.460938
19387.755859
16683.462891
11617.981445
0.000000
0.000000
0.000000
24709.857422
24817.996094
24994.400391
24570.392578
24292.880859
23743.900391
23687.615234
23004.433594
23573.390625
22859.166016
22275.925781
21812.449219
21782.441406
21429.476562
20625.117188
21233.589844
20871.769531
21510.902344
19665.919922
19559.794922
19647.869141
20484.619141
20516.666016
18199.339844
16460.138672
0.000000
0.000000
0.000000
24214.431641
24657.587891
24517.945312
24114.291016
24389.179688
23612.472656
22789.617188
23076.982422
22078.732422
22590.697266
22100.148438
21882.736328
21455.835938
21522.212891
20986.589844
20328.107422
19951.292969
20439.318359
19874.246094
19234.826172
19389.154297
18144.660156
25222.039062
13409.614258
0.000000
14328.395508
0.000000
0.000000
24992.804688
25004.757812
24945.337891
24656.316406
24448.251953
23491.664062
23375.269531
23374.974609
22897.226562
22368.607422
22028.582031
21536.871094
21709.095703
20885.521484
21330.765625
20125.804688
20974.259766
20365.238281
19081.011719
20018.099609
19001.398438
19829.199219
18554.013672
14110.134766
26843.480469
17270.703125
0.000000
0.000000
24722.357422
24768.175781
24615.609375
24373.517578
23854.892578
23268.570312
23647.851562
22639.679688
23060.490234
22554.066406
21711.916016
22309.025391
20809.234375
21305.277344
20917.138672
20670.345703
20598.578125
20162.250000
20778.294922
19686.677734
19634.621094
18873.978516
19236.011719
22923.789062
22821.753906
15300.500000
0.000000
0.000000
25597.498047
25302.945312
25066.863281
24184.158203
23936.794922
23588.289062
23876.744141
22727.681641
23547.816406
22390.142578
21852.662109
22199.267578
21129.126953
21683.650391
21094.595703
20753.277344
19800.564453
20124.050781
18602.015625
19803.523438
19395.544922
19762.652344
19747.669922
19481.181641
25633.089844
0.000000
0.000000
0.000000
25305.236328
24297.595703
24874.685547
24748.496094
24244.423828
23743.003906
23312.580078
23122.972656
22229.640625
23066.667969
22111.201172
22243.310547
21250.312500
21358.429688
20332.138672
20764.486328
19786.515625
20404.789062
19921.984375
18227.009766
19417.996094
19151.308594
19983.398438
18428.218750
23925.386719
0.000000
0.000000
0.000000
25631.603516
25682.330078
24575.503906
24525.824219
24267.095703
24063.279297
23338.384766
24012.117188
23372.285156
22876.880859
22183.207031
22101.222656
21747.539062
21325.962891
21332.494141
20523.943359
20694.091797
19379.537109
19192.294922
19403.378906
18841.548828
18586.964844
18866.714844
19205.363281
23728.277344
0.000000
0.000000
0.000000
24764.720703
25288.837891
24973.597656
25086.865234
24525.353516
24087.876953
24190.373047
23138.240234
23608.509766
22824.632812
23318.931641
22281.693359
21925.353516
21922.558594
21250.460938
20919.980469
20049.429688
19917.298828
19676.607422
19300.597656
18941.820312
18397.310547
19138.736328
18129.275391
23401.562500
12009.844727
0.000000
0.000000
25554.162109
25595.855469
24664.234375
25099.583984
24246.513672
24136.574219
23486.369141
23562.589844
23319.693359
22452.748047
22243.978516
22172.449219
21711.314453
21091.054688
20750.642578
20350.062500
20384.474609
19793.646484
18770.304688
18754.115234
17669.984375
17736.121094
17636.095703
18202.013672
23764.222656
11967.086914
0.000000
0.000000
25869.291016
26061.787109
25195.347656
25386.781250
24265.265625
24812.253906
23834.285156
24080.677734
23442.757812
23475.742188
22876.566406
22659.759766
22153.605469
21416.871094
21581.869141
20575.140625
20254.976562
19450.248047
18368.921875
18831.210938
16921.457031
17730.037109
18169.673828
16824.802734
21285.087891
0.000000
0.000000
0.000000
25481.144531
25905.394531
24583.683594
25400.357422
24650.878906
24457.814453
23819.134766
24210.722656
23175.453125
23107.439453
22651.839844
22049.798828
21821.429688
21417.427734
20477.679688
20539.416016
19464.603516
19684.898438
18735.746094
17747.544922
17133.408203
17022.482422
15983.757812
15928.657227
21645.646484
0.000000
0.000000
0.000000
25749.363281
25967.503906
25687.253906
25269.833984
24705.380859
25039.105469
24626.742188
24024.488281
23977.863281
23341.001953
22739.005859
22754.267578
22326.341797