<?xml version='1.0' encoding='UTF-8'?>
<VTKFile xmlns='VTK' byte_order='LittleEndian' version='0.1' type='UnstructuredGrid'>
<UnstructuredGrid>
<Piece NumberOfCells='1344' NumberOfPoints='1344'>
<Points>
<DataArray NumberOfComponents='3' type='Float32' Name='Position' format='ascii'>
-0.075000 -0.075000 0.000000
-0.075000 -0.050000 0.000000
-0.075000 -0.025000 0.000000
-0.075000 0.000000 0.000000
-0.075000 0.025000 0.000000
-0.075000 0.050000 0.000000
-0.075000 0.075000 0.000000
-0.075000 0.100000 0.000000
-0.075000 0.125000 0.000000
-0.075000 0.150000 0.000000
-0.075000 0.175000 0.000000
-0.075000 0.200000 0.000000
-0.075000 0.225000 0.000000
-0.075000 0.250000 0.000000
-0.075000 0.275000 0.000000
-0.075000 0.300000 0.000000
-0.075000 0.325000 0.000000
-0.075000 0.350000 0.000000
-0.075000 0.375000 0.000000
-0.075000 0.400000 0.000000
-0.075000 0.425000 0.000000
-0.075000 0.450000 0.000000
-0.075000 0.475000 0.000000
-0.075000 0.500000 0.000000
-0.075000 0.525000 0.000000
-0.075000 0.550000 0.000000
-0.075000 0.575000 0.000000
-0.075000 0.600000 0.000000
-0.050000 -0.075000 0.000000
-0.050000 -0.050000 0.000000
-0.050000 -0.025000 0.000000
-0.050000 0.000000 0.000000
-0.050000 0.025000 0.000000
-0.050000 0.050000 0.000000
-0.050000 0.075000 0.000000
-0.050000 0.100000 0.000000
-0.050000 0.125000 0.000000
-0.050000 0.150000 0.000000
-0.050000 0.175000 0.000000
-0.050000 0.200000 0.000000
-0.050000 0.225000 0.000000
-0.050000 0.250000 0.000000
-0.050000 0.275000 0.000000
-0.050000 0.300000 0.000000
-0.050000 0.325000 0.000000
-0.050000 0.350000 0.000000
-0.050000 0.375000 0.000000
-0.050000 0.400000 0.000000
-0.050000 0.425000 0.000000
-0.050000 0.450000 0.000000
-0.050000 0.475000 0.000000
-0.050000 0.500000 0.000000
-0.050000 0.525000 0.000000
-0.050000 0.550000 0.000000
-0.050000 0.575000 0.000000
-0.050000 0.600000 0.000000
-0.025000 -0.075000 0.000000
-0.025000 -0.050000 0.000000
-0.025000 -0.025000 0.000000
-0.025000 0.000000 0.000000
-0.025000 0.025000 0.000000
-0.025000 0.050000 0.000000
-0.025000 0.075000 0.000000
-0.025000 0.100000 0.000000
-0.025000 0.125000 0.000000
-0.025000 0.150000 0.000000
-0.025000 0.175000 0.000000
-0.025000 0.200000 0.000000
-0.025000 0.225000 0.000000
-0.025000 0.250000 0.000000
-0.025000 0.275000 0.000000
-0.025000 0.300000 0.000000
-0.025000 0.325000 0.000000
-0.025000 0.350000 0.000000
-0.025000 0.375000 0.000000
-0.025000 0.400000 0.000000
-0.025000 0.425000 0.000000
-0.025000 0.450000 0.000000
-0.025000 0.475000 0.000000
-0.025000 0.500000 0.000000
-0.025000 0.525000 0.000000
-0.025000 0.550000 0.000000
-0.025000 0.575000 0.000000
-0.025000 0.600000 0.000000
0.000000 -0.075000 0.000000
0.000000 -0.050000 0.000000
0.000000 -0.025000 0.000000
0.000000 0.000000 0.000000
0.000000 0.025000 0.000000
0.000000 0.050000 0.000000
0.000000 0.075000 0.000000
0.000000 0.100000 0.000000
0.000000 0.125000 0.000000
0.000000 0.150000 0.000000
0.000000 0.175000 0.000000
0.000000 0.200000 0.000000
0.000000 0.225000 0.000000
0.000000 0.250000 0.000000
0.000000 0.275000 0.000000
0.000000 0.300000 0.000000
0.000000 0.325000 0.000000
0.000000 0.350000 0.000000
0.000000 0.375000 0.000000
0.000000 0.400000 0.000000
0.000000 0.425000 0.000000
0.000000 0.450000 0.000000
0.000000 0.475000 0.000000
0.000000 0.500000 0.000000
0.000000 0.525000 0.000000
0.000000 0.550000 0.000000
0.000000 0.575000 0.000000
0.000000 0.600000 0.000000
0.025000 -0.075000 0.000000
0.025000 -0.050000 0.000000
0.025000 -0.025000 0.000000
0.025000 0.000000 0.000000
0.023873 0.025101 0.000000
0.037810 0.044062 0.000000
0.022865 0.062762 0.000000
0.023987 0.114447 0.000000
0.022528 0.181849 0.000000
0.026739 0.205194 0.000000
0.024303 0.229633 0.000000
0.030673 0.251358 0.000000
0.022553 0.271496 0.000000
0.026881 0.299835 0.000000
0.024071 0.322732 0.000000
0.025162 0.350003 0.000000
0.024899 0.372440 0.000000
0.025195 0.398364 0.000000
0.024514 0.425142 0.000000
0.024303 0.451284 0.000000
0.027512 0.475612 0.000000
0.024262 0.497931 0.000000
0.021194 0.538082 0.000000
0.023647 0.568411 0.000000
0.032996 0.591938 0.000000
0.015078 0.600000 0.000000
0.087945 0.600000 0.000000
0.107092 0.600000 0.000000
0.050000 -0.075000 0.000000
0.050000 -0.050000 0.000000
0.050000 -0.025000 0.000000
0.050000 0.000000 0.000000
0.051633 0.025025 0.000000
0.064109 0.057974 0.000000
0.051401 0.076008 0.000000
0.026045 0.085674 0.000000
0.023949 0.142030 0.000000
0.039355 0.159016 0.000000
0.048477 0.179911 0.000000
0.049686 0.219773 0.000000
0.054051 0.263693 0.000000
0.047905 0.287004 0.000000
0.049485 0.313528 0.000000
0.049498 0.338143 0.000000
0.056266 0.363077 0.000000
0.049726 0.383208 0.000000
0.049201 0.407209 0.000000
0.045128 0.434819 0.000000
0.056126 0.456782 0.000000
0.051316 0.479758 0.000000
0.035341 0.519324 0.000000
0.042331 0.553914 0.000000
0.059176 0.577211 0.000000
0.050156 0.600000 0.000000
0.116203 0.581212 0.000000
0.128211 0.600000 0.000000
0.075000 -0.075000 0.000000
0.075000 -0.050000 0.000000
0.075000 -0.025000 0.000000
0.075000 0.000000 0.000000
0.073733 0.028569 0.000000
0.086197 0.052591 0.000000
0.077014 0.083023 0.000000
0.044865 0.129813 0.000000
0.073628 0.128401 0.000000
0.077231 0.170795 0.000000
0.060483 0.196923 0.000000
0.063467 0.233964 0.000000
0.074645 0.262238 0.000000
0.075288 0.287359 0.000000
0.077723 0.308870 0.000000
0.072274 0.332694 0.000000
0.080842 0.356920 0.000000
0.079979 0.386491 0.000000
0.071922 0.408991 0.000000
0.073894 0.439177 0.000000
0.079663 0.465490 0.000000
0.072063 0.496080 0.000000
0.055372 0.508902 0.000000
0.060044 0.537931 0.000000
0.073727 0.554994 0.000000
0.068310 0.600000 0.000000
0.148386 0.600000 0.000000
0.167597 0.600000 0.000000
0.100000 -0.075000 0.000000
0.100000 -0.050000 0.000000
0.100000 -0.025000 0.000000
0.100000 0.000000 0.000000
0.096025 0.022968 0.000000
0.100114 0.077205 0.000000
0.070115 0.103849 0.000000
0.045378 0.102591 0.000000
0.094622 0.146605 0.000000
0.064727 0.149568 0.000000
0.092122 0.194573 0.000000
0.081814 0.216931 0.000000
0.093743 0.237242 0.000000
0.099147 0.263286 0.000000
0.103973 0.288046 0.000000
0.103248 0.312158 0.000000
0.098521 0.337977 0.000000
0.101659 0.368343 0.000000
0.100787 0.395111 0.000000
0.093304 0.420275 0.000000
0.097307 0.444545 0.000000
0.094766 0.485775 0.000000
0.098540 0.510897 0.000000
0.111111 0.533200 0.000000
0.082999 0.526019 0.000000
0.088505 0.577296 0.000000
0.169982 0.576866 0.000000
0.187729 0.600000 0.000000
0.125000 -0.075000 0.000000
0.125000 -0.050000 0.000000
0.125000 -0.025000 0.000000
0.125000 0.000000 0.000000
0.111824 0.041570 0.000000
0.117525 0.066083 0.000000
0.107459 0.101597 0.000000
0.097381 0.120407 0.000000
0.117380 0.138339 0.000000
0.097606 0.172463 0.000000
0.125874 0.180573 0.000000
0.109379 0.213072 0.000000
0.117464 0.235408 0.000000
0.121303 0.265900 0.000000
0.129101 0.297062 0.000000
0.123202 0.325845 0.000000
0.121667 0.349781 0.000000
0.126217 0.374877 0.000000
0.125425 0.402378 0.000000
0.119823 0.426773 0.000000
0.111137 0.463884 0.000000
0.121567 0.486890 0.000000
0.126508 0.510653 0.000000
0.125825 0.555755 0.000000
0.143532 0.576958 0.000000
0.099113 0.553875 0.000000
0.197662 0.578286 0.000000
0.207504 0.600000 0.000000
0.150000 -0.075000 0.000000
0.150000 -0.050000 0.000000
0.150000 -0.025000 0.000000
0.150000 0.000000 0.000000
0.132499 0.023054 0.000000
0.134326 0.046952 0.000000
0.140687 0.081284 0.000000
0.128306 0.111631 0.000000
0.149369 0.128091 0.000000
0.130629 0.154946 0.000000
0.148010 0.178779 0.000000
0.131040 0.202789 0.000000
0.141368 0.229504 0.000000
0.142746 0.257501 0.000000
0.146085 0.282705 0.000000
0.149260 0.311804 0.000000
0.147825 0.337394 0.000000
0.151924 0.360112 0.000000
0.146366 0.387095 0.000000
0.146798 0.414011 0.000000
0.138479 0.439318 0.000000
0.136536 0.462537 0.000000
0.146860 0.487464 0.000000
0.151453 0.513042 0.000000
0.139327 0.535180 0.000000
0.156220 0.551740 0.000000
0.223633 0.589691 0.000000
0.238441 0.600000 0.000000
0.175000 -0.075000 0.000000
0.175000 -0.050000 0.000000
0.175000 -0.025000 0.000000
0.175000 0.000000 0.000000
0.158922 0.024746 0.000000
0.166049 0.046826 0.000000
0.157131 0.067014 0.000000
0.148284 0.101772 0.000000
0.173674 0.121970 0.000000
0.153912 0.151417 0.000000
0.169459 0.181159 0.000000
0.156146 0.210365 0.000000
0.178762 0.217383 0.000000
0.166091 0.237232 0.000000
0.166125 0.265840 0.000000
0.172992 0.290411 0.000000
0.173423 0.316108 0.000000
0.174926 0.338532 0.000000
0.174242 0.362564 0.000000
0.172639 0.391781 0.000000
0.177925 0.414199 0.000000
0.164507 0.432694 0.000000
0.162053 0.460821 0.000000
0.170896 0.482125 0.000000
0.179677 0.506658 0.000000
0.171951 0.528813 0.000000
0.248769 0.576415 0.000000
0.256342 0.600000 0.000000
0.200000 -0.075000 0.000000
0.200000 -0.050000 0.000000
0.200000 -0.025000 0.000000
0.200000 0.000000 0.000000
0.185127 0.025210 0.000000
0.193208 0.047766 0.000000
0.181392 0.074026 0.000000
0.174824 0.097658 0.000000
0.200884 0.121077 0.000000
0.178844 0.146227 0.000000
0.191782 0.165803 0.000000
0.189882 0.193436 0.000000
0.205361 0.217467 0.000000
0.186819 0.249044 0.000000
0.195952 0.272831 0.000000
0.194396 0.299772 0.000000
0.201975 0.333554 0.000000
0.204197 0.357075 0.000000
0.191650 0.382652 0.000000
0.204798 0.406796 0.000000
0.201995 0.430546 0.000000
0.184884 0.449787 0.000000
0.195241 0.479469 0.000000
0.203078 0.506410 0.000000
0.197463 0.535520 0.000000
0.181874 0.553306 0.000000
0.276676 0.575926 0.000000
0.275875 0.600000 0.000000
0.225000 -0.075000 0.000000
0.225000 -0.050000 0.000000
0.225000 -0.025000 0.000000
0.225000 0.000000 0.000000
0.210856 0.024268 0.000000
0.220956 0.048822 0.000000
0.209974 0.069698 0.000000
0.198552 0.092135 0.000000
0.223436 0.120396 0.000000
0.203320 0.144266 0.000000
0.224164 0.166470 0.000000
0.210612 0.187298 0.000000
0.227578 0.213333 0.000000
0.209559 0.241459 0.000000
0.219094 0.263848 0.000000
0.219298 0.289586 0.000000
0.215154 0.316533 0.000000
0.227233 0.347631 0.000000
0.218472 0.373705 0.000000
[...]
<PointData>
<DataArray NumberOfComponents='1' type='Int32' Name='ParticleType' format='ascii'>
3
3
3
3
3
3
3
3
3
3
3
3
3
3
3
3
3
3
3
3
3
3
3
3
3
3
3
3
3
3
3
3
3
3
3
3
3
3
3
3
3
3
3
3
3
3
3
3
3
3
3
3
3
3
3
3
3
3
2
2
2
2
2
2
2
2
2
2
2
2
2
2
2
2
2
2
2
2
2
2
2
2
2
2
3
3
2
2
2
2
2
2
2
2
2
2
2
2
2
2
2
2
2
2
2
2
2
2
2
2
2
2
3
3
2
2
0
0
0
0
0
0
0
0
0
0
0
0
0
0
0
0
0
0
0
0
0
0
0
0
3
3
2
2
0
0
0
0
0
0
0
0
0
0
0
0
0
0
0
0
0
0
0
0
0
0
0
0
3
3
2
2
0
0
0
0
0
0
0
0
0
0
0
0
0
0
0
0
0
0
0
0
0
0
0
0
3
3
2
2
0
0
0
0
0
0
0
0
0
0
0
0
0
0
0
0
0
0
0
0
0
0
0
0
3
3
2
2
0
0
0
0
0
0
0
0
0
0
0
0
0
0
0
0
0
0
0
0
0
0
0
0
3
3
2
2
0
0
0
0
0
0
0
0
0
0
0
0
0
0
0
0
0
0
0
0
0
0
0
0
3
3
2
2
0
0
0
0
0
0
0
0
0
0
0
0
0
0
0
0
0
0
0
0
0
0
0
0
3
3
2
2
0
0
0
0
0
0
0
0
0
0
0
0
0
0
0
0
0
0
0
0
0
0
0
0
3
3
2
2
0
0
0
0
0
0
0
0
0
0
0
0
0
0
0
0
0
0
0
0
0
0
0
0
3
3
2
2
0
0
0
0
0
0
0
0
0
0
0
0
0
0
0
0
0
0
0
0
0
0
0
0
3
3
2
2
0
0
0
0
0
0
0
0
0
0
0
0
0
0
0
0
0
0
0
0
0
0
0
0
3
3
2
2
0
0
0
0
0
0
0
0
0
0
0
0
0
0
0
0
0
0
0
0
0
0
0
0
3
3
2
2
0
0
0
0
0
0
0
0
0
0
0
0
0
0
0
0
0
0
0
0
0
0
0
0
3
3
2
2
0
0
0
0
0
0
0
0
0
0
0
0
0
0
0
0
0
0
0
0
0
0
0
0
3
3
2
2
0
0
0
0
0
0
0
0
0
0
0
0
0
0
0
0
0
0
0
0
0
0
0
0
3
3
2
2
0
0
0
0
0
0
0
0
0
0
0
0
0
0
0
0
0
0
0
0
0
0
0
0
3
3
2
2
0
0
0
0
0
0
0
0
0
0
0
0
0
0
0
0
0
0
0
0
0
0
0
0
3
3
2
2
0
0
0
0
0
0
0
0
0
0
0
0
0
0
0
0
0
0
0
0
0
0
0
0
3
3
2
2
0
0
0
0
0
0
0
0
0
0
0
0
0
0
0
0
0
0
0
0
0
0
0
0
3
3
2
2
0
0
0
0
0
0
0
0
0
0
0
0
0
0
0
0
0
0
0
0
0
0
0
0
3
3
2
2
0
0
0
0
0
0
0
0
0
0
0
0
0
0
0
0
0
0
0
0
0
0
0
0
3
3
2
2
0
0
0
0
0
0
0
0
0
0
0
0
0
0
0
0
0
0
0
0
0
0
0
0
3
3
2
2
0
0
0
0
0
0
0
0
0
0
0
0
0
0
0
0
0
0
0
0
0
0
0
0
3
3
2
2
0
0
0
0
0
0
0
0
0
0
0
0
0
0
0
0
0
0
0
0
0
0
0
0
3
3
2
2
0
0
0
0
0
0
0
0
0
0
0
0
0
0
0
0
0
0
0
0
0
0
0
0
3
3
2
2
0
0
0
0
0
0
0
0
0
0
0
0
0
0
0
0
0
0
0
0
0
0
0
0
3
3
2
2
0
0
0
0
0
0
0
0
0
0
0
0
0
0
0
0
0
0
0
0
0
0
0
0
3
3
2
2
0
0
0
0
0
0
0
0
0
0
0
0
0
0
0
0
0
0
0
0
0
0
0
0
3
3
2
2
0
0
0
0
0
0
0
0
0
0
0
0
0
0
0
0
0
0
0
0
0
0
0
0
3
3
2
2
0
0
0
0
0
0
0
0
0
0
0
0
0
0
0
0
0
0
0
0
0
0
0
0
3
3
2
2
0
0
0
0
0
0
0
0
0
0
0
0
0
0
0
0
0
0
0
0
0
0
0
0
3
3
2
2
0
0
0
0
0
0
0
0
0
0
0
0
0
0
0
0
0
0
0
0
0
0
0
0
3
3
2
2
0
0
0
0
0
0
0
0
0
0
0
0
0
0
0
0
0
0
0
0
0
0
0
0
3
3
2
2
0
0
0
0
0
0
0
0
0
0
0
0
0
0
0
0
0
0
0
0
0
0
0
0
3
3
2
2
0
0
0
0
0
0
0
0
0
0
0
0
0
0
0
0
0
0
0
0
0
0
0
0
3
3
2
2
0
0
0
0
0
0
0
0
0
0
0
0
0
0
0
0
0
0
0
0
0
0
0
0
3
3
2
2
0
0
0
0
0
0
0
0
0
0
0
0
0
0
0
0
0
0
0
0
0
0
0
0
3
3
2
2
0
0
0
0
0
0
0
0
0
0
0
0
0
0
0
0
0
0
0
0
0
0
0
0
3
3
2
2
0
0
0
0
0
0
0
0
0
0
0
0
0
0
0
0
0
0
0
0
0
0
0
0
3
3
2
2
0
0
0
0
0
0
0
0
0
0
0
0
0
0
0
0
0
0
0
0
0
0
0
0
3
3
2
2
2
2
2
2
2
2
2
2
2
2
2
2
2
2
2
2
2
2
2
2
2
2
2
2
3
3
2
2
2
2
2
2
2
2
2
2
2
2
2
2
2
2
2
2
2
2
2
2
2
2
2
2
3
3
3
3
3
3
3
3
3
3
3
3
3
3
3
3
3
3
3
3
3
3
3
3
3
3
3
3
3
3
3
3
3
3
3
3
3
3
3
3
3
3
3
3
3
3
3
3
3
3
3
3
3
3
3
3
</DataArray>
<DataArray NumberOfComponents='1' type='Float32' Name='Velocity' format='ascii'>
0.000000
0.000000
0.000000
0.000000
0.000000
0.000000
0.000000
0.000000
0.000000
0.000000
0.000000
0.000000
0.000000
0.000000
0.000000
0.000000
0.000000
0.000000
0.000000
0.000000
0.000000
0.000000
0.000000
0.000000
0.000000
0.000000
0.000000
0.000000
0.000000
0.000000
0.000000
0.000000
0.000000
0.000000
0.000000
0.000000
0.000000
0.000000
0.000000
0.000000
0.000000
0.000000
0.000000
0.000000
0.000000
0.000000
0.000000
0.000000
0.000000
0.000000
0.000000
0.000000
0.000000
0.000000
0.000000
0.000000
0.000000
0.000000
0.000000
0.000000
0.000000
0.000000
0.000000
0.000000
0.000000
0.000000
0.000000
0.000000
0.000000
0.000000
0.000000
0.000000
0.000000
0.000000
0.000000
0.000000
0.000000
0.000000
0.000000
0.000000
0.000000
0.000000
0.000000
0.000000
0.000000
0.000000
0.000000
0.000000
0.000000
0.000000
0.000000
0.000000
0.000000
0.000000
0.000000
0.000000
0.000000
0.000000
0.000000
0.000000
0.000000
0.000000
0.000000
0.000000
0.000000
0.000000
0.000000
0.000000
0.000000
0.000000
0.000000
0.000000
0.000000
0.000000
0.000000
0.000000
0.104197
0.122091
0.147822
0.139008
0.193005
0.172671
0.211376
0.120892
0.169558
0.110657
0.129699
0.092399
0.071534
0.208659
0.071910
0.122596
0.061931
0.120051
0.083302
0.065735
0.100000
0.100000
0.100000
0.100000
0.000000
0.000000
0.000000
0.000000
0.184244
0.091657
0.122785
0.098391
0.127535
0.078531
0.075305
0.227964
0.099020
0.133181
0.135666
0.056546
0.124011
0.107079
0.130054
0.208942
0.154131
0.109997
0.152504
0.026620
0.100000
0.100000
0.100000
0.100000
0.000000
0.000000
0.000000
0.000000
0.117033
0.065381
0.016083
0.233496
0.061259
0.097477
0.059373
0.187685
0.100663
0.119012
0.050367
0.118947
0.030135
0.090138
0.115171
0.125847
0.233184
0.202455
0.234161
0.181787
0.091779
0.100000
0.100000
0.100000
0.000000
0.000000
0.000000
0.000000
0.100868
0.161112
0.088711
0.169375
0.328678
0.287807
0.086564
0.172764
0.069863
0.012467
0.152803
0.153237
0.167290
0.077132
0.106985
0.135828
0.046433
0.271061
0.183748
0.211847
0.140740
0.100000
0.100000
0.100000
0.000000
0.000000
0.000000
0.000000
0.017701
0.166060
0.144630
0.356277
0.099895
0.218249
0.025716
0.100140
0.052451
0.153344
0.067451
0.062354
0.195156
0.185588
0.088008
0.140912
0.167650
0.288440
0.274317
0.156018
0.100000
0.244486
0.100000
0.100000
0.000000
0.000000
0.000000
0.000000
0.125221
0.067182
0.209252
0.086573
0.044569
0.118048
0.130906
0.022885
0.096096
0.086580
0.103875
0.080660
0.042068
0.198718
0.169484
0.220336
0.194977
0.164071
0.103294
0.034987
0.220748
0.220559
0.100000
0.100000
0.000000
0.000000
0.000000
0.000000
0.092388
0.014748
0.213206
0.094124
0.100322
0.128811
0.069952
0.130490
0.084131
0.089262
0.100002
0.118440
0.028211
0.145655
0.078374
0.177825
0.300602
0.105565
0.086831
0.068136
0.203563
0.256910
0.100000
0.100000
0.000000
0.000000
0.000000
0.000000
0.162832
0.099115
0.190310
0.088298
0.186973
0.164916
0.096966
0.217810
0.120770
0.123221
0.088080
0.063884
0.174578
0.161609
0.084327
0.095569
0.209605
0.083218
0.105141
0.276245
0.185902
0.186744
0.100000
0.100000
0.000000
0.000000
0.000000
0.000000
0.068764
0.086928
0.089578
0.221037
0.145785
0.124037
0.184234
0.103644
0.161522
0.142139
0.247575
0.048804
0.135207
0.208254
0.152796
0.122372
0.026739
0.080091
0.015111
0.096551
0.504424
0.007675
0.100000
0.100000
0.000000
0.000000
0.000000
0.000000
0.098681
0.106992
0.051995
0.202091
0.175342
0.104348
0.086866
0.078861
0.136841
0.067000
0.262377
0.102665
0.103898
0.132472
0.154857
0.179031
0.222497
0.218605
0.193645
0.121171
0.280612
0.159636
0.100000
0.100000
0.000000
0.000000
0.000000
0.000000
0.051886
0.044457
0.045478
0.059660
0.127370
0.119749
0.212476
0.077165
0.043955
0.077426
0.119554
0.113277
0.249783
0.067995
0.091762
0.202665
0.031537
0.148388
0.106251
0.199356
0.352870
0.247394
0.100000
0.100000
0.000000
0.000000
0.000000
0.000000
0.059304
0.054666
0.095608
0.147682
0.049395
0.198292
0.135445
0.086434
0.098314
0.113278
0.233282
0.295257
0.173678
0.123173
0.121620
0.144785
0.066208
0.125947
0.150481
0.090660
0.176704
0.095997
0.267506
0.100000
0.000000
0.000000
0.000000
0.000000
0.053197
0.052820
0.083345
0.158722
0.182538
0.036320
0.019348
0.011509
0.067310
0.137203
0.249365
0.092464
0.224634
0.079433
0.167573
0.268293
0.305196
0.061675
0.103744
0.105232
0.079136
0.179247
0.100000
0.100000
0.000000
0.000000
0.000000
0.000000
0.042814
0.006846
0.158907
0.067371
0.083522
0.090386
0.145070
0.177583
0.175697
0.072596
0.081018
0.098457
0.011483
0.027943
0.074325
0.212256
0.120577
0.147124
0.340449
0.274673
0.115668
0.310114
0.100000
0.100000
0.000000
0.000000
0.000000
0.000000
0.121593
0.027631
0.087977
0.150523
0.057994
0.126904
0.089987
0.057317
0.057565
0.089681
0.136264
0.110655
0.291849
0.236798
0.040331
0.123843
0.086465
0.147576
0.121073
0.241554
0.059266
0.342323
0.100000
0.100000
0.000000
0.000000
0.000000
0.000000
0.087823
0.025618
0.124407
0.171223
0.081186
0.042629
0.092297
0.101828
0.070034
0.040084
0.159632
0.068749
0.107865
0.090625
0.083902
0.068924
0.093157
0.236045
0.140433
0.099617
0.318005
0.183399
0.100000
0.100000
0.000000
0.000000
0.000000
0.000000
0.136220
0.054972
0.054145
0.104043
0.014507
0.099245
0.013467
0.056669
0.040450
0.084333
0.175236
0.129818
0.128375
0.051662
0.074079
0.327840
0.049978
0.161206
0.336928
0.227513
0.118859
0.100000
0.100000
0.100000
0.000000
0.000000
0.000000
0.000000
0.029998
0.032377
0.099619
0.027444
0.165283
0.040994
0.062255
0.075579
0.071145
0.106242
0.051015
0.105501
0.078608
0.163209
0.110296
0.102627
0.034531
0.285496
0.135399
0.228710
0.170851
0.119948
0.100000
0.100000
0.000000
0.000000
0.000000
0.000000
0.144306
0.029589
0.062539
0.024208
0.039465
0.020085
0.092446
0.058586
0.067706
0.028760
0.103209
0.127705
0.094381
0.070710
0.184541
0.116395
0.075669
0.172561
0.212683
0.116809
0.288597
0.291801
0.100000
0.100000
0.000000
0.000000
0.000000
0.000000
0.021175
0.057193
0.077671
0.056342
0.065418
0.070046
0.071164
0.117040
0.124990
0.029618
0.069614
0.073282
0.142012
0.149478
0.209561
0.065271
0.310012
0.108128
0.120487
0.235003
0.095628
0.424819
0.100000
0.100000
0.000000
0.000000
0.000000
0.000000
0.110381
0.017557
0.084125
0.075328
0.042615
0.086282
0.146159
0.133071
0.074882
0.054660
0.153414
0.117419
0.077256
0.158241
0.100598
0.087647
0.102832
0.179475
0.162382
0.213818
0.083435
0.143108
0.100000
0.100000
0.000000
0.000000
0.000000
0.000000
0.055551
0.027658
0.091118
0.050091
0.099694
0.033817
0.099684
0.192496
0.116074
0.128940
0.227767
0.113252
0.152572
0.121984
0.131803
0.107953
0.016376
0.134270
0.257707
0.388208
0.352249
0.208768
0.100000
0.100000
0.000000
0.000000
0.000000
0.000000
0.083971
0.065575
0.058535
0.084363
0.059416
0.019676
0.171375
0.090828
0.011006
0.103598
0.145583
0.087582
0.120023
0.211408
0.135441
0.007114
0.134832
0.084544
0.140346
0.243828
0.377595
0.219080
0.100000
0.100000
0.000000
0.000000
0.000000
0.000000
0.097192
0.086037
0.067557
0.070727
0.037082
0.090617
0.176713
0.046811
0.053043
0.194745
0.080334
0.128969
0.132304
0.312485
0.082270
0.055707
0.112645
0.118020
0.220415
0.247974
0.419191
0.440563
0.100000
0.100000
0.000000
0.000000
0.000000
0.000000
0.054898
0.037488
0.119573
0.123220
0.105617
0.150780
0.167379
0.076952
0.236012
0.177901
0.068006
0.106082
0.095767
0.103781
0.054143
0.070958
0.237283
0.176684
0.251308
0.167784
0.363239
0.106785
0.100000
0.100000
0.000000
0.000000
0.000000
0.000000
0.026470
0.069374
0.059922
0.059177
0.008715
0.051741
0.034948
0.099195
0.027187
0.189607
0.273987
0.198529
0.102706
0.082081
0.217685
0.238217
0.158662
0.192552
0.351406
0.128581
0.018572
0.247572
0.100000
0.100000
0.000000
0.000000
0.000000
0.000000
0.107558
0.117737
0.080384
0.129970
0.153609
0.039654
0.106658
0.068083
0.231945
0.238631
0.094681
0.144352
0.090936
0.161248
0.038086
0.188419
0.178893
0.136616
0.237120
0.224515
0.049848
0.130790
0.100000
0.100000
0.000000
0.000000
0.000000
0.000000
0.072645
0.024480
0.044635
0.119023
0.144718
0.070571
0.241706
0.119023
0.260959
0.079418
0.217243
0.030739
0.184238
0.077444
0.141099
0.229930
0.115678
0.177331
0.519199
0.210469
0.269269
0.099542
0.100000
0.100000
0.000000
0.000000
0.000000
0.000000
0.071255
0.145921
0.080145
0.141178
0.060850
0.045122
0.180630
0.030676
0.168540
0.166219
0.043207
0.093899
0.300221
0.132282
0.092582
0.143709
0.073382
0.058288
0.166019
0.278326
0.213410
0.262084
0.100000
0.100000
0.000000
0.000000
0.000000
0.000000
0.136871
0.180895
0.028309
0.041317
0.100844
0.206548
0.080391
0.077919
0.099048
0.248090
0.167846
0.070175
0.146064
0.054918
0.130145
0.290677
0.043606
0.121443
0.150621
0.156049
0.129022
0.192904
0.100000
0.100000
0.000000
0.000000
0.000000
0.000000
0.090393
0.097161
0.117096
0.083279
0.212885
0.036825
0.158835
0.066080
0.185030
0.049200
0.034458
0.361933
0.029490
0.227383
0.081240
0.099450
0.107780
0.071596
0.070716
0.141773
0.212638
0.139110
0.067336
0.100000
0.000000
0.000000
0.000000
0.000000
0.068317
0.163215
0.187526
0.067186
0.221622
0.237198
0.099996
0.119774
0.009162
0.116533
0.134174
0.065441
0.274945
0.162586
0.075361
0.069853
0.263882
0.116083
0.044641
0.137678
0.154124
0.379135
0.127591
0.100000
0.000000
0.000000
0.000000
0.000000
0.060393
0.038559
0.125596
0.076888
0.155073
0.179908
0.219129
0.163030
0.094305
0.179918
0.114926
0.057265
0.083920
0.037505
0.096450
0.145004
0.095598
0.032747
0.057993
0.435088
0.252222
0.271286
0.100000
0.100000
0.000000
0.000000
0.000000
0.000000
0.052819
0.082894
0.009722
0.153812
0.098344
0.078804
0.240037
0.285812
0.087401
0.142785
0.420473
0.050250
0.203070
0.122894
0.127870
0.300937
0.126267
0.224148
0.082813
0.106030
0.025034
0.146021
0.083687
0.100000
0.000000
0.000000
0.000000
0.000000
0.047001
0.022614
0.094300
0.097863
0.115286
0.121733
0.182648
0.081169
0.149702
0.242912
0.497264
0.140816
0.115418
0.105368
0.218407
0.304580
0.241315
0.184757
0.155617
0.338239
0.104719
0.225826
0.197668
0.100000
0.000000
0.000000
0.000000
0.000000
0.024414
0.182935
0.081815
0.202097
0.059027
0.378460
0.181706
0.227410
0.061347
0.019163
0.076089
0.143383
0.173415
0.117806
0.157180
0.263384
0.203685
0.215172
0.287635
0.260579
0.202964
0.145125
0.393749
0.100000
0.000000
0.000000
0.000000
0.000000
0.106488
0.106425
0.036864
0.179542
0.162418
0.073466
0.155581
0.111595
0.113267
0.141859
0.139387
0.012530
0.297047
0.193630
0.115558
0.085135
0.114557
0.073972
0.215594
0.358267
0.371330
0.139609
0.116547
0.100000
0.000000
0.000000
0.000000
0.000000
0.063330
0.055361
0.086314
0.168881
0.075216
0.070275
0.153865
0.267884
0.150379
0.154813
0.159034
0.014033
0.072376
0.187553
0.196416
0.229785
0.278906
0.182157
0.146427
0.175550
0.298154
0.177808
0.200220
0.100000
0.000000
0.000000
0.000000
0.000000
0.044807
0.274497
0.096470
0.152284
0.137073
0.066739
0.153233
0.217152
0.137284
0.169186
0.283282
0.166832
0.123035
0.039879
0.175480
0.107664
0.274590
0.356770
0.120060
0.222376
0.189744
0.229501
0.350045
0.100000
0.000000
0.000000
0.000000
0.000000
0.032714
0.110537
0.110819
0.099905
0.155490
0.206054
0.016359
0.177419
0.300328
0.115607
0.138349
0.059954
0.103796
0.160977
0.180278
0.236331
0.210672
0.291961
0.058144
0.091950
0.140765
0.241284
0.132126
0.100000
0.000000
0.000000
0.000000
0.000000
0.000000
0.000000
0.000000
0.000000
0.000000
0.000000
0.000000
0.000000
0.000000
0.000000
0.000000
0.000000
0.000000
0.000000
0.000000
0.000000
0.000000
0.000000
0.000000
0.000000
0.000000
0.000000
0.000000
0.000000
0.000000
0.000000
0.000000
0.000000
0.000000
0.000000
0.000000
0.000000
0.000000
0.000000
0.000000
0.000000
0.000000
0.000000
0.000000
0.000000
0.000000
0.000000
0.000000
0.000000
0.000000
0.000000
0.000000
0.000000
0.000000
0.000000
0.000000
0.000000
0.000000
0.000000
0.000000
0.000000
0.000000
0.000000
0.000000
0.000000
0.000000
0.000000
0.000000
0.000000
0.000000
0.000000
0.000000
0.000000
0.000000
0.000000
0.000000
0.000000
0.000000
0.000000
0.000000
0.000000
0.000000
0.000000
0.000000
0.000000
0.000000
0.000000
0.000000
0.000000
0.000000
0.000000
0.000000
0.000000
0.000000
0.000000
0.000000
0.000000
0.000000
0.000000
0.000000
0.000000
0.000000
0.000000
0.000000
0.000000
0.000000
0.000000
0.000000
0.000000
0.000000
0.000000
0.000000
0.000000
</DataArray>
<DataArray NumberOfComponents='1' type='Float32' Name='pressure' format='ascii'>
0.000000
0.000000
0.000000
0.000000
0.000000
0.000000
0.000000
0.000000
0.000000
0.000000
0.000000
0.000000
0.000000
0.000000
0.000000
0.000000
0.000000
0.000000
0.000000
0.000000
0.000000
0.000000
0.000000
0.000000
0.000000
0.000000
0.000000
0.000000
0.000000
0.000000
0.000000
0.000000
0.000000
0.000000
0.000000
0.000000
0.000000
0.000000
0.000000
0.000000
0.000000
0.000000
0.000000
0.000000
0.000000
0.000000
0.000000
0.000000
0.000000
0.000000
0.000000
0.000000
0.000000
0.000000
0.000000
0.000000
0.000000
0.000000
38208.375000
38198.218750
38432.191406
37979.816406
37806.972656
36849.246094
37094.925781
36981.937500
37533.253906
36709.500000
36906.773438
36103.742188
37599.984375
36337.597656
37273.308594
37035.496094
37161.214844
37181.519531
37635.410156
37774.992188
36911.253906
38331.183594
39193.578125
37997.761719
33941.195312
0.000000
0.000000
0.000000
38163.277344
38493.292969
38081.597656
37410.886719
37543.484375
36777.429688
36854.863281
35670.355469
36926.621094
36710.859375
37033.261719
36120.656250
37462.093750
36310.992188
37180.292969
37150.347656
37427.617188
36392.714844
38119.363281
38018.695312
36873.464844
37838.406250
38804.343750
40398.179688
42705.832031
31682.939453
0.000000
0.000000
37993.542969
38396.832031
37209.449219
37674.945312
38247.812500
37489.214844
36393.906250
36824.746094
36760.375000
37691.238281
36680.250000
37369.964844
37207.308594
36590.289062
37424.062500
36805.718750
37519.820312
37302.585938
38198.300781
37531.902344
40745.464844
42312.398438
42592.078125
37324.656250
29876.572266
0.000000
0.000000
0.000000
37830.457031
37951.074219
38375.480469
37571.421875
36566.019531
37632.992188
37569.878906
37277.769531
36745.164062
36903.847656
36559.660156
36826.253906
36165.214844
37334.222656
36606.054688
37155.140625
37366.964844
37493.382812
37596.027344
37437.312500
39019.898438
38312.750000
43052.667969
36228.425781
39193.125000
28733.748047
0.000000
0.000000
37152.816406
37148.746094
38068.996094
36655.070312
37811.234375
35660.269531
37448.062500
36752.671875
36795.984375
35492.949219
37413.566406
36744.257812
37176.855469
36907.324219
36996.332031
36780.468750
37083.210938
36975.910156
36894.222656
37458.152344
38414.890625
38756.265625
37024.011719
34796.207031
34262.277344
35764.718750
0.000000
0.000000
38713.117188
38210.867188
38171.003906
37655.011719
37359.960938
37563.160156
36457.632812
37066.085938
36196.460938
37309.589844
36505.593750
36879.800781
35776.769531
36935.671875
36670.355469
36870.957031
36961.144531
36866.750000
37854.050781
37389.425781
37482.457031
37127.960938
36661.976562
40391.828125
44140.687500
36128.343750
0.000000
0.000000
38732.273438
38293.238281
38054.855469
37630.023438
36745.101562
36952.347656
37285.878906
36981.410156
36450.406250
36719.433594
36565.527344
36837.734375
37025.269531
36674.457031
36414.894531
36860.351562
37179.687500
36088.394531
36215.917969
37045.582031
36778.394531
35005.878906
42179.546875
36548.941406
44970.929688
33624.597656
0.000000
0.000000
38443.847656
38384.574219
37129.371094
37744.316406
37063.585938
37260.496094
36276.386719
36584.988281
36883.722656
36685.148438
36011.847656
36354.695312
36512.648438
35896.363281
36664.613281
36592.953125
36357.457031
35844.109375
37293.214844
37161.292969
36346.976562
35645.050781
38012.726562
36978.089844
38098.558594
0.000000
0.000000
0.000000
37677.105469
38176.832031
38182.101562
37549.992188
37847.281250
37552.105469
36908.890625
37225.515625
36069.039062
36650.531250
36521.785156
37226.289062
36498.003906
36403.640625
36610.683594
36115.437500
36209.609375
36936.914062
35792.285156
36672.527344
35858.765625
37044.371094
36274.851562
36653.898438
32755.017578
21052.388672
0.000000
0.000000
37674.792969
37886.320312
37822.046875
37478.527344
37305.191406
36929.285156
36824.488281
37262.628906
36469.273438
37133.921875
36223.011719
36180.421875
36264.550781
36764.710938
36031.378906
36712.222656
35677.363281
36151.062500
36092.714844
35334.523438
36040.019531
35640.222656
36549.335938
37814.894531
30838.126953
21959.488281
0.000000
0.000000
37330.585938
37555.375000
38004.804688
37696.406250
37339.230469
37713.257812
36842.425781
36606.425781
36486.535156
36588.667969
36426.480469
36472.722656
36706.007812
35939.273438
36027.562500
35477.164062
35420.578125
35448.855469
34277.398438
35423.863281
34706.687500
34887.894531
34930.273438
36049.714844
30581.945312
19123.755859
0.000000
0.000000
37762.832031
38485.273438
37509.066406
37386.859375
37466.160156
36490.746094
36832.332031
36574.246094
37090.554688
36683.636719
36542.148438
36466.593750
36186.386719
36543.382812
35937.742188
35726.957031
35765.855469
35852.597656
35057.511719
34985.937500
33172.843750
33594.390625
34430.699219
34972.363281
33626.468750
0.000000
0.000000
0.000000
37741.156250
37883.152344
37910.882812
37102.769531
36919.152344
37577.195312
36752.550781
36682.554688
36333.843750
35741.511719
36491.671875