<?xml version='1.0' encoding='UTF-8'?>
<VTKFile xmlns='VTK' byte_order='LittleEndian' version='0.1' type='UnstructuredGrid'>
<UnstructuredGrid>
<Piece NumberOfCells='1344' NumberOfPoints='1344'>
<Points>
<DataArray NumberOfComponents='3' type='Float32' Name='Position' format='ascii'>
-0.075000 -0.075000 0.000000
-0.075000 -0.050000 0.000000
-0.075000 -0.025000 0.000000
-0.075000 0.000000 0.000000
-0.075000 0.025000 0.000000
-0.075000 0.050000 0.000000
-0.075000 0.075000 0.000000
-0.075000 0.100000 0.000000
-0.075000 0.125000 0.000000
-0.075000 0.150000 0.000000
-0.075000 0.175000 0.000000
-0.075000 0.200000 0.000000
-0.075000 0.225000 0.000000
-0.075000 0.250000 0.000000
-0.075000 0.275000 0.000000
-0.075000 0.300000 0.000000
-0.075000 0.325000 0.000000
-0.075000 0.350000 0.000000
-0.075000 0.375000 0.000000
-0.075000 0.400000 0.000000
-0.075000 0.425000 0.000000
-0.075000 0.450000 0.000000
-0.075000 0.475000 0.000000
-0.075000 0.500000 0.000000
-0.075000 0.525000 0.000000
-0.075000 0.550000 0.000000
-0.075000 0.575000 0.000000
-0.075000 0.600000 0.000000
-0.050000 -0.075000 0.000000
-0.050000 -0.050000 0.000000
-0.050000 -0.025000 0.000000
-0.050000 0.000000 0.000000
-0.050000 0.025000 0.000000
-0.050000 0.050000 0.000000
-0.050000 0.075000 0.000000
-0.050000 0.100000 0.000000
-0.050000 0.125000 0.000000
-0.050000 0.150000 0.000000
-0.050000 0.175000 0.000000
-0.050000 0.200000 0.000000
-0.050000 0.225000 0.000000
-0.050000 0.250000 0.000000
-0.050000 0.275000 0.000000
-0.050000 0.300000 0.000000
-0.050000 0.325000 0.000000
-0.050000 0.350000 0.000000
-0.050000 0.375000 0.000000
-0.050000 0.400000 0.000000
-0.050000 0.425000 0.000000
-0.050000 0.450000 0.000000
-0.050000 0.475000 0.000000
-0.050000 0.500000 0.000000
-0.050000 0.525000 0.000000
-0.050000 0.550000 0.000000
-0.050000 0.575000 0.000000
-0.050000 0.600000 0.000000
-0.025000 -0.075000 0.000000
-0.025000 -0.050000 0.000000
-0.025000 -0.025000 0.000000
-0.025000 0.000000 0.000000
-0.025000 0.025000 0.000000
-0.025000 0.050000 0.000000
-0.025000 0.075000 0.000000
-0.025000 0.100000 0.000000
-0.025000 0.125000 0.000000
-0.025000 0.150000 0.000000
-0.025000 0.175000 0.000000
-0.025000 0.200000 0.000000
-0.025000 0.225000 0.000000
-0.025000 0.250000 0.000000
-0.025000 0.275000 0.000000
-0.025000 0.300000 0.000000
-0.025000 0.325000 0.000000
-0.025000 0.350000 0.000000
-0.025000 0.375000 0.000000
-0.025000 0.400000 0.000000
-0.025000 0.425000 0.000000
-0.025000 0.450000 0.000000
-0.025000 0.475000 0.000000
-0.025000 0.500000 0.000000
-0.025000 0.525000 0.000000
-0.025000 0.550000 0.000000
-0.025000 0.575000 0.000000
-0.025000 0.600000 0.000000
0.000000 -0.075000 0.000000
0.000000 -0.050000 0.000000
0.000000 -0.025000 0.000000
0.000000 0.000000 0.000000
0.000000 0.025000 0.000000
0.000000 0.050000 0.000000
0.000000 0.075000 0.000000
0.000000 0.100000 0.000000
0.000000 0.125000 0.000000
0.000000 0.150000 0.000000
0.000000 0.175000 0.000000
0.000000 0.200000 0.000000
0.000000 0.225000 0.000000
0.000000 0.250000 0.000000
0.000000 0.275000 0.000000
0.000000 0.300000 0.000000
0.000000 0.325000 0.000000
0.000000 0.350000 0.000000
0.000000 0.375000 0.000000
0.000000 0.400000 0.000000
0.000000 0.425000 0.000000
0.000000 0.450000 0.000000
0.000000 0.475000 0.000000
0.000000 0.500000 0.000000
0.000000 0.525000 0.000000
0.000000 0.550000 0.000000
0.000000 0.575000 0.000000
0.000000 0.600000 0.000000
0.025000 -0.075000 0.000000
0.025000 -0.050000 0.000000
0.025000 -0.025000 0.000000
0.025000 0.000000 0.000000
0.024155 0.025598 0.000000
0.045187 0.032173 0.000000
0.023011 0.055894 0.000000
0.024144 0.110231 0.000000
0.022216 0.190527 0.000000
0.027652 0.216626 0.000000
0.024833 0.240091 0.000000
0.024200 0.265732 0.000000
0.023393 0.294743 0.000000
0.027882 0.317308 0.000000
0.027390 0.339508 0.000000
0.024554 0.362895 0.000000
0.024600 0.388433 0.000000
0.027506 0.411801 0.000000
0.023327 0.436280 0.000000
0.025839 0.463479 0.000000
0.023833 0.486981 0.000000
0.030420 0.509713 0.000000
0.024554 0.555658 0.000000
0.027824 0.579584 0.000000
0.036927 0.600000 0.000000
0.016154 0.600000 0.000000
0.096651 0.600000 0.000000
0.115533 0.600000 0.000000
0.050000 -0.075000 0.000000
0.050000 -0.050000 0.000000
0.050000 -0.025000 0.000000
0.050000 0.000000 0.000000
0.064991 0.020983 0.000000
0.061378 0.052530 0.000000
0.040317 0.067281 0.000000
0.024414 0.088589 0.000000
0.024218 0.141614 0.000000
0.026641 0.166099 0.000000
0.048545 0.196378 0.000000
0.051317 0.223291 0.000000
0.046269 0.278782 0.000000
0.055023 0.299830 0.000000
0.053599 0.324951 0.000000
0.055608 0.347076 0.000000
0.047737 0.372483 0.000000
0.051473 0.402502 0.000000
0.052580 0.426524 0.000000
0.045895 0.450655 0.000000
0.054575 0.475274 0.000000
0.051656 0.497712 0.000000
0.023701 0.531601 0.000000
0.049998 0.563789 0.000000
0.067071 0.581810 0.000000
0.055087 0.600000 0.000000
0.123782 0.578140 0.000000
0.135637 0.600000 0.000000
0.075000 -0.075000 0.000000
0.075000 -0.050000 0.000000
0.075000 -0.025000 0.000000
0.075000 0.000000 0.000000
0.086835 0.040230 0.000000
0.078942 0.064402 0.000000
0.061067 0.082996 0.000000
0.044811 0.129534 0.000000
0.068990 0.137785 0.000000
0.060845 0.176725 0.000000
0.071667 0.202626 0.000000
0.046782 0.252445 0.000000
0.071599 0.255187 0.000000
0.074848 0.278317 0.000000
0.079142 0.302807 0.000000
0.080048 0.334006 0.000000
0.079062 0.358511 0.000000
0.067684 0.384457 0.000000
0.079164 0.405257 0.000000
0.071554 0.438607 0.000000
0.077700 0.475387 0.000000
0.078458 0.503521 0.000000
0.064364 0.521768 0.000000
0.049796 0.539052 0.000000
0.074016 0.554275 0.000000
0.077285 0.600000 0.000000
0.154679 0.600000 0.000000
0.173664 0.600000 0.000000
0.100000 -0.075000 0.000000
0.100000 -0.050000 0.000000
0.100000 -0.025000 0.000000
0.100000 0.000000 0.000000
0.101430 0.025249 0.000000
0.095446 0.085523 0.000000
0.073288 0.103884 0.000000
0.050711 0.105956 0.000000
0.079072 0.163521 0.000000
0.048948 0.156612 0.000000
0.093065 0.204753 0.000000
0.073813 0.230370 0.000000
0.095845 0.239718 0.000000
0.098647 0.266133 0.000000
0.100694 0.293021 0.000000
0.101472 0.319369 0.000000
0.102667 0.345301 0.000000
0.095066 0.376111 0.000000
0.104113 0.401787 0.000000
0.095877 0.425327 0.000000
0.088014 0.452284 0.000000
0.099134 0.484509 0.000000
0.102022 0.511951 0.000000
0.117611 0.531349 0.000000
0.088340 0.535850 0.000000
0.095778 0.576001 0.000000
0.180252 0.576613 0.000000
0.192291 0.600000 0.000000
0.125000 -0.075000 0.000000
0.125000 -0.050000 0.000000
0.125000 -0.025000 0.000000
0.125000 0.000000 0.000000
0.114219 0.047541 0.000000
0.113691 0.071223 0.000000
0.094524 0.111400 0.000000
0.090727 0.136319 0.000000
0.114592 0.142966 0.000000
0.100905 0.167584 0.000000
0.109478 0.194160 0.000000
0.116722 0.218616 0.000000
0.118048 0.249017 0.000000
0.124783 0.276737 0.000000
0.125201 0.300569 0.000000
0.125473 0.330412 0.000000
0.122737 0.358134 0.000000
0.119889 0.385436 0.000000
0.129947 0.410636 0.000000
0.117416 0.434325 0.000000
0.111372 0.458696 0.000000
0.120632 0.493858 0.000000
0.137346 0.514101 0.000000
0.131278 0.553893 0.000000
0.151704 0.576363 0.000000
0.104684 0.553024 0.000000
0.207859 0.576765 0.000000
0.211631 0.600000 0.000000
0.150000 -0.075000 0.000000
0.150000 -0.050000 0.000000
0.150000 -0.025000 0.000000
0.150000 0.000000 0.000000
0.127056 0.025820 0.000000
0.144537 0.049056 0.000000
0.121827 0.096297 0.000000
0.121291 0.117178 0.000000
0.141145 0.140609 0.000000
0.123008 0.164757 0.000000
0.136694 0.184650 0.000000
0.144191 0.203350 0.000000
0.135160 0.228728 0.000000
0.141732 0.255061 0.000000
0.149218 0.279286 0.000000
0.143150 0.314698 0.000000
0.150300 0.340606 0.000000
0.140510 0.371572 0.000000
0.151966 0.401929 0.000000
0.150409 0.424035 0.000000
0.142122 0.446622 0.000000
0.132030 0.469324 0.000000
0.148257 0.491076 0.000000
0.164700 0.508144 0.000000
0.147635 0.536328 0.000000
0.164242 0.553215 0.000000
0.230281 0.600000 0.000000
0.248800 0.600000 0.000000
0.175000 -0.075000 0.000000
0.175000 -0.050000 0.000000
0.175000 -0.025000 0.000000
0.175000 0.000000 0.000000
0.151823 0.025162 0.000000
0.169553 0.046252 0.000000
0.137091 0.072001 0.000000
0.146856 0.114656 0.000000
0.168690 0.111881 0.000000
0.159750 0.149428 0.000000
0.161620 0.171114 0.000000
0.169034 0.196783 0.000000
0.169219 0.219515 0.000000
0.164276 0.239501 0.000000
0.170261 0.270561 0.000000
0.171439 0.294071 0.000000
0.168283 0.316805 0.000000
0.161594 0.361116 0.000000
0.169888 0.385290 0.000000
0.183702 0.402775 0.000000
0.184092 0.426978 0.000000
0.170483 0.444478 0.000000
0.159632 0.467133 0.000000
0.179046 0.483369 0.000000
0.190429 0.507340 0.000000
0.176087 0.531606 0.000000
0.257788 0.577109 0.000000
0.268173 0.600000 0.000000
0.200000 -0.075000 0.000000
0.200000 -0.050000 0.000000
0.200000 -0.025000 0.000000
0.200000 0.000000 0.000000
0.178987 0.024032 0.000000
0.199583 0.048123 0.000000
0.170432 0.069927 0.000000
0.154792 0.088387 0.000000
0.195848 0.112260 0.000000
0.180021 0.134629 0.000000
0.189959 0.156005 0.000000
0.187164 0.182054 0.000000
0.198227 0.205234 0.000000
0.185779 0.246406 0.000000
0.194519 0.278894 0.000000
0.195113 0.306665 0.000000
0.177370 0.340344 0.000000
0.197213 0.352204 0.000000
0.193987 0.374736 0.000000
0.206821 0.397702 0.000000
0.207474 0.429026 0.000000
0.189746 0.461232 0.000000
0.204744 0.486035 0.000000
0.221260 0.507516 0.000000
0.205321 0.526577 0.000000
0.191320 0.551151 0.000000
0.285988 0.574927 0.000000
0.286625 0.600000 0.000000
0.225000 -0.075000 0.000000
0.225000 -0.050000 0.000000
0.225000 -0.025000 0.000000
0.225000 0.000000 0.000000
0.204967 0.024157 0.000000
0.222292 0.047826 0.000000
0.200514 0.071676 0.000000
0.184632 0.089206 0.000000
0.226150 0.114935 0.000000
0.209996 0.130800 0.000000
0.212285 0.162357 0.000000
0.214947 0.185706 0.000000
0.222243 0.217886 0.000000
0.202550 0.229684 0.000000
0.208509 0.258328 0.000000
0.220953 0.277065 0.000000
0.204100 0.328554 0.000000
0.225979 0.351598 0.000000
0.221220 0.373567 0.000000
[...]
<PointData>
<DataArray NumberOfComponents='1' type='Int32' Name='ParticleType' format='ascii'>
3
3
3
3
3
3
3
3
3
3
3
3
3
3
3
3
3
3
3
3
3
3
3
3
3
3
3
3
3
3
3
3
3
3
3
3
3
3
3
3
3
3
3
3
3
3
3
3
3
3
3
3
3
3
3
3
3
3
2
2
2
2
2
2
2
2
2
2
2
2
2
2
2
2
2
2
2
2
2
2
2
2
2
2
3
3
2
2
2
2
2
2
2
2
2
2
2
2
2
2
2
2
2
2
2
2
2
2
2
2
2
2
3
3
2
2
0
0
0
0
0
0
0
0
0
0
0
0
0
0
0
0
0
0
0
0
0
0
0
0
3
3
2
2
0
0
0
0
0
0
0
0
0
0
0
0
0
0
0
0
0
0
0
0
0
0
0
0
3
3
2
2
0
0
0
0
0
0
0
0
0
0
0
0
0
0
0
0
0
0
0
0
0
0
0
0
3
3
2
2
0
0
0
0
0
0
0
0
0
0
0
0
0
0
0
0
0
0
0
0
0
0
0
0
3
3
2
2
0
0
0
0
0
0
0
0
0
0
0
0
0
0
0
0
0
0
0
0
0
0
0
0
3
3
2
2
0
0
0
0
0
0
0
0
0
0
0
0
0
0
0
0
0
0
0
0
0
0
0
0
3
3
2
2
0
0
0
0
0
0
0
0
0
0
0
0
0
0
0
0
0
0
0
0
0
0
0
0
3
3
2
2
0
0
0
0
0
0
0
0
0
0
0
0
0
0
0
0
0
0
0
0
0
0
0
0
3
3
2
2
0
0
0
0
0
0
0
0
0
0
0
0
0
0
0
0
0
0
0
0
0
0
0
0
3
3
2
2
0
0
0
0
0
0
0
0
0
0
0
0
0
0
0
0
0
0
0
0
0
0
0
0
3
3
2
2
0
0
0
0
0
0
0
0
0
0
0
0
0
0
0
0
0
0
0
0
0
0
0
0
3
3
2
2
0
0
0
0
0
0
0
0
0
0
0
0
0
0
0
0
0
0
0
0
0
0
0
0
3
3
2
2
0
0
0
0
0
0
0
0
0
0
0
0
0
0
0
0
0
0
0
0
0
0
0
0
3
3
2
2
0
0
0
0
0
0
0
0
0
0
0
0
0
0
0
0
0
0
0
0
0
0
0
0
3
3
2
2
0
0
0
0
0
0
0
0
0
0
0
0
0
0
0
0
0
0
0
0
0
0
0
0
3
3
2
2
0
0
0
0
0
0
0
0
0
0
0
0
0
0
0
0
0
0
0
0
0
0
0
0
3
3
2
2
0
0
0
0
0
0
0
0
0
0
0
0
0
0
0
0
0
0
0
0
0
0
0
0
3
3
2
2
0
0
0
0
0
0
0
0
0
0
0
0
0
0
0
0
0
0
0
0
0
0
0
0
3
3
2
2
0
0
0
0
0
0
0
0
0
0
0
0
0
0
0
0
0
0
0
0
0
0
0
0
3
3
2
2
0
0
0
0
0
0
0
0
0
0
0
0
0
0
0
0
0
0
0
0
0
0
0
0
3
3
2
2
0
0
0
0
0
0
0
0
0
0
0
0
0
0
0
0
0
0
0
0
0
0
0
0
3
3
2
2
0
0
0
0
0
0
0
0
0
0
0
0
0
0
0
0
0
0
0
0
0
0
0
0
3
3
2
2
0
0
0
0
0
0
0
0
0
0
0
0
0
0
0
0
0
0
0
0
0
0
0
0
3
3
2
2
0
0
0
0
0
0
0
0
0
0
0
0
0
0
0
0
0
0
0
0
0
0
0
0
3
3
2
2
0
0
0
0
0
0
0
0
0
0
0
0
0
0
0
0
0
0
0
0
0
0
0
0
3
3
2
2
0
0
0
0
0
0
0
0
0
0
0
0
0
0
0
0
0
0
0
0
0
0
0
0
3
3
2
2
0
0
0
0
0
0
0
0
0
0
0
0
0
0
0
0
0
0
0
0
0
0
0
0
3
3
2
2
0
0
0
0
0
0
0
0
0
0
0
0
0
0
0
0
0
0
0
0
0
0
0
0
3
3
2
2
0
0
0
0
0
0
0
0
0
0
0
0
0
0
0
0
0
0
0
0
0
0
0
0
3
3
2
2
0
0
0
0
0
0
0
0
0
0
0
0
0
0
0
0
0
0
0
0
0
0
0
0
3
3
2
2
0
0
0
0
0
0
0
0
0
0
0
0
0
0
0
0
0
0
0
0
0
0
0
0
3
3
2
2
0
0
0
0
0
0
0
0
0
0
0
0
0
0
0
0
0
0
0
0
0
0
0
0
3
3
2
2
0
0
0
0
0
0
0
0
0
0
0
0
0
0
0
0
0
0
0
0
0
0
0
0
3
3
2
2
0
0
0
0
0
0
0
0
0
0
0
0
0
0
0
0
0
0
0
0
0
0
0
0
3
3
2
2
0
0
0
0
0
0
0
0
0
0
0
0
0
0
0
0
0
0
0
0
0
0
0
0
3
3
2
2
0
0
0
0
0
0
0
0
0
0
0
0
0
0
0
0
0
0
0
0
0
0
0
0
3
3
2
2
0
0
0
0
0
0
0
0
0
0
0
0
0
0
0
0
0
0
0
0
0
0
0
0
3
3
2
2
0
0
0
0
0
0
0
0
0
0
0
0
0
0
0
0
0
0
0
0
0
0
0
0
3
3
2
2
0
0
0
0
0
0
0
0
0
0
0
0
0
0
0
0
0
0
0
0
0
0
0
0
3
3
2
2
0
0
0
0
0
0
0
0
0
0
0
0
0
0
0
0
0
0
0
0
0
0
0
0
3
3
2
2
2
2
2
2
2
2
2
2
2
2
2
2
2
2
2
2
2
2
2
2
2
2
2
2
3
3
2
2
2
2
2
2
2
2
2
2
2
2
2
2
2
2
2
2
2
2
2
2
2
2
2
2
3
3
3
3
3
3
3
3
3
3
3
3
3
3
3
3
3
3
3
3
3
3
3
3
3
3
3
3
3
3
3
3
3
3
3
3
3
3
3
3
3
3
3
3
3
3
3
3
3
3
3
3
3
3
3
3
</DataArray>
<DataArray NumberOfComponents='1' type='Float32' Name='Velocity' format='ascii'>
0.000000
0.000000
0.000000
0.000000
0.000000
0.000000
0.000000
0.000000
0.000000
0.000000
0.000000
0.000000
0.000000
0.000000
0.000000
0.000000
0.000000
0.000000
0.000000
0.000000
0.000000
0.000000
0.000000
0.000000
0.000000
0.000000
0.000000
0.000000
0.000000
0.000000
0.000000
0.000000
0.000000
0.000000
0.000000
0.000000
0.000000
0.000000
0.000000
0.000000
0.000000
0.000000
0.000000
0.000000
0.000000
0.000000
0.000000
0.000000
0.000000
0.000000
0.000000
0.000000
0.000000
0.000000
0.000000
0.000000
0.000000
0.000000
0.000000
0.000000
0.000000
0.000000
0.000000
0.000000
0.000000
0.000000
0.000000
0.000000
0.000000
0.000000
0.000000
0.000000
0.000000
0.000000
0.000000
0.000000
0.000000
0.000000
0.000000
0.000000
0.000000
0.000000
0.000000
0.000000
0.000000
0.000000
0.000000
0.000000
0.000000
0.000000
0.000000
0.000000
0.000000
0.000000
0.000000
0.000000
0.000000
0.000000
0.000000
0.000000
0.000000
0.000000
0.000000
0.000000
0.000000
0.000000
0.000000
0.000000
0.000000
0.000000
0.000000
0.000000
0.000000
0.000000
0.000000
0.000000
0.031726
0.293188
0.138641
0.058602
0.180699
0.222453
0.155190
0.365785
0.038973
0.166883
0.108720
0.106299
0.214160
0.248144
0.350652
0.332586
0.375881
0.490560
0.284541
0.100000
0.100000
0.100000
0.100000
0.100000
0.000000
0.000000
0.000000
0.000000
0.146004
0.138766
0.160202
0.157699
0.028000
0.179746
0.429719
0.169398
0.213097
0.247244
0.117452
0.218984
0.261541
0.090189
0.110460
0.052951
0.451563
0.132787
0.278257
0.116580
0.100000
0.100000
0.100000
0.100000
0.000000
0.000000
0.000000
0.000000
0.125940
0.256358
0.011391
0.124801
0.123967
0.063167
0.054425
0.071082
0.103212
0.110225
0.084603
0.173394
0.098432
0.082643
0.190187
0.028477
0.220837
0.136647
0.168463
0.056531
0.172036
0.100000
0.100000
0.100000
0.000000
0.000000
0.000000
0.000000
0.159806
0.273478
0.170175
0.282789
0.204573
0.094890
0.115266
0.203429
0.235733
0.132151
0.042517
0.199666
0.262805
0.191707
0.118311
0.331515
0.156937
0.200903
0.065840
0.013166
0.150199
0.100000
0.100000
0.100000
0.000000
0.000000
0.000000
0.000000
0.229182
0.241768
0.219360
0.110585
0.218230
0.159788
0.068978
0.127909
0.070773
0.137929
0.237163
0.202883
0.098363
0.105491
0.320456
0.105677
0.176563
0.171342
0.029900
0.154895
0.100000
0.310788
0.100000
0.100000
0.000000
0.000000
0.000000
0.000000
0.048433
0.156309
0.117359
0.096401
0.197259
0.102059
0.186862
0.255527
0.131369
0.121407
0.200742
0.081941
0.103971
0.261334
0.160915
0.157454
0.185861
0.104829
0.115270
0.097542
0.146154
0.072312
0.100000
0.100000
0.000000
0.000000
0.000000
0.000000
0.069281
0.117577
0.017230
0.270615
0.281185
0.042589
0.192055
0.115822
0.031596
0.360679
0.049614
0.027934
0.142617
0.189713
0.217463
0.148114
0.287354
0.039672
0.145435
0.031350
0.184421
0.277629
0.100000
0.100000
0.000000
0.000000
0.000000
0.000000
0.086142
0.106603
0.068271
0.310492
0.238519
0.105698
0.214854
0.358530
0.299833
0.101070
0.092640
0.160088
0.350712
0.224926
0.288121
0.101001
0.215461
0.124987
0.108862
0.266324
0.118698
0.192189
0.188627
0.100000
0.000000
0.000000
0.000000
0.000000
0.116363
0.058298
0.091367
0.164538
0.025545
0.115319
0.178306
0.167072
0.068211
0.295356
0.097427
0.132515
0.472671
0.015018
0.135043
0.064371
0.135651
0.164707
0.052907
0.115390
0.135073
0.243535
0.200629
0.100000
0.000000
0.000000
0.000000
0.000000
0.028163
0.090977
0.155155
0.254085
0.049470
0.101141
0.113083
0.163887
0.033123
0.247436
0.048878
0.351164
0.335452
0.099448
0.165298
0.223474
0.138390
0.127980
0.262515
0.134715
0.098682
0.201387
0.100000
0.100000
0.000000
0.000000
0.000000
0.000000
0.054134
0.091066
0.235914
0.092518
0.080217
0.074426
0.095771
0.224695
0.333664
0.097393
0.152143
0.197207
0.168037
0.327576
0.234697
0.406061
0.179920
0.076691
0.136248
0.072500
0.263465
0.147987
0.100000
0.100000
0.000000
0.000000
0.000000
0.000000
0.062226
0.078504
0.098384
0.162331
0.116278
0.262627
0.127577
0.098342
0.326935
0.067080
0.165619
0.088794
0.099471
0.147934
0.056991
0.203333
0.150552
0.201808
0.202803
0.061209
0.329640
0.493387
0.472130
0.100000
0.000000
0.000000
0.000000
0.000000
0.159692
0.139834
0.088646
0.193911
0.220565
0.172766
0.125934
0.248661
0.075951
0.131297
0.110763
0.135454
0.119634
0.115148
0.234848
0.369649
0.295389
0.047875
0.060710
0.134123
0.099159
0.128803
0.100000
0.100000
0.000000
0.000000
0.000000
0.000000
0.049473
0.215968
0.106143
0.182379
0.141898
0.157329
0.252969
0.047703
0.197612
0.244899
0.091921
0.174821
0.103015
0.419555
0.283799
0.194849
0.339940
0.110399
0.400570
0.065397
0.122905
0.106799
0.100000
0.100000
0.000000
0.000000
0.000000
0.000000
0.057823
0.301636
0.035362
0.207734
0.207258
0.067901
0.267282
0.176640
0.190338
0.184471
0.066668
0.066209
0.234265
0.137464
0.440322
0.216285
0.253111
0.312575
0.042834
0.174027
0.170898
0.082182
0.100000
0.100000
0.000000
0.000000
0.000000
0.000000
0.074927
0.104492
0.105459
0.027486
0.102605
0.220279
0.156371
0.208446
0.146100
0.122254
0.007340
0.153083
0.059325
0.130272
0.150676
0.184846
0.107746
0.281837
0.446119
0.446764
0.321730
0.308432
0.100000
0.100000
0.000000
0.000000
0.000000
0.000000
0.057953
0.207882
0.150796
0.056982
0.172703
0.322066
0.110810
0.125338
0.217819
0.043231
0.189615
0.268265
0.123989
0.275340
0.193270
0.064290
0.104750
0.149155
0.215566
0.172557
0.105294
0.100000
0.014912
0.100000
0.000000
0.000000
0.000000
0.000000
0.125291
0.208245
0.034040
0.062906
0.214280
0.082163
0.243156
0.210151
0.169168
0.154442
0.105024
0.149759
0.234373
0.107511
0.080706
0.234552
0.023921
0.190149
0.182133
0.345713
0.139783
0.215548
0.100000
0.100000
0.000000
0.000000
0.000000
0.000000
0.077731
0.148884
0.020973
0.069340
0.046477
0.234266
0.023356
0.283591
0.113844
0.177795
0.099306
0.179690
0.097413
0.159021
0.042224
0.220831
0.045785
0.191347
0.237167
0.220779
0.407286
0.252140
0.100000
0.100000
0.000000
0.000000
0.000000
0.000000
0.094478
0.169205
0.057920
0.055073
0.038847
0.162676
0.250044
0.078316
0.084198
0.047747
0.050325
0.156820
0.196857
0.147939
0.067998
0.142882
0.107548
0.329022
0.173043
0.148154
0.082119
0.100000
0.100000
0.100000
0.000000
0.000000
0.000000
0.000000
0.071600
0.136348
0.013464
0.034748
0.066946
0.117211
0.068531
0.117155
0.205684
0.194203
0.060524
0.052423
0.104376
0.304612
0.209216
0.121511
0.221401
0.220258
0.377322
0.089306
0.264199
0.197449
0.100000
0.100000
0.000000
0.000000
0.000000
0.000000
0.110187
0.089454
0.051081
0.107670
0.128842
0.166048
0.184486
0.069161
0.207301
0.283837
0.351868
0.066907
0.055580
0.123526
0.257276
0.090717
0.301247
0.110499
0.314009
0.517569
0.203478
0.287343
0.194992
0.100000
0.000000
0.000000
0.000000
0.000000
0.160400
0.094696
0.151415
0.053989
0.084506
0.070491
0.193925
0.075811
0.209091
0.061322
0.060591
0.134678
0.141864
0.096041
0.189475
0.281226
0.320905
0.183082
0.217732
0.092123
0.151493
0.116277
0.100000
0.100000
0.000000
0.000000
0.000000
0.000000
0.131951
0.170649
0.101566
0.125259
0.050567
0.155998
0.174068
0.026577
0.050255
0.140599
0.015820
0.214318
0.149675
0.181843
0.160155
0.071251
0.212358
0.148479
0.415423
0.210446
0.215311
0.100000
0.100000
0.100000
0.000000
0.000000
0.000000
0.000000
0.115040
0.061018
0.087868
0.046443
0.055202
0.106183
0.053939
0.070909
0.091668
0.142835
0.191334
0.135110
0.165907
0.144698
0.274097
0.121741
0.191549
0.182272
0.182199
0.060333
0.439706
0.414697
0.303706
0.100000
0.000000
0.000000
0.000000
0.000000
0.094490
0.214933
0.012130
0.172206
0.198492
0.071389
0.036028
0.132744
0.033473
0.067709
0.166104
0.205588
0.150290
0.108574
0.224983
0.163216
0.076336
0.257660
0.032842
0.125359
0.320938
0.314470
0.100000
0.100000
0.000000
0.000000
0.000000
0.000000
0.019843
0.077084
0.116344
0.128731
0.037315
0.137349
0.085085
0.099955
0.229854
0.031840
0.021195
0.087044
0.172273
0.158671
0.131142
0.087958
0.258211
0.111939
0.256163
0.137432
0.278803
0.262836
0.100000
0.100000
0.000000
0.000000
0.000000
0.000000
0.034236
0.160228
0.089612
0.128265
0.064601
0.057275
0.237468
0.211396
0.106534
0.165108
0.202236
0.165795
0.197543
0.123103
0.200211
0.261309
0.283145
0.367624
0.322817
0.403806
0.420864
0.431808
0.100000
0.100000
0.000000
0.000000
0.000000
0.000000
0.135557
0.223524
0.095159
0.158298
0.071742
0.091996
0.217657
0.109686
0.238612
0.102398
0.035355
0.219123
0.257542
0.112101
0.245424
0.201208
0.036481
0.205354
0.092657
0.203665
0.124045
0.276064
0.100000
0.100000
0.000000
0.000000
0.000000
0.000000
0.227173
0.228153
0.053933
0.169734
0.114767
0.171989
0.044279
0.164694
0.140778
0.319496
0.151409
0.070004
0.226289
0.282372
0.165535
0.246149
0.090708
0.318163
0.218470
0.231053
0.460570
0.146643
0.100000
0.100000
0.000000
0.000000
0.000000
0.000000
0.156209
0.068675
0.244889
0.167562
0.116273
0.266563
0.050758
0.074154
0.179788
0.082733
0.230578
0.027101
0.183444
0.196524
0.136654
0.250232
0.224974
0.083296
0.112702
0.093250
0.175752
0.164673
0.100000
0.100000
0.000000
0.000000
0.000000
0.000000
0.296506
0.096810
0.114607
0.265755
0.146754
0.065086
0.179445
0.198364
0.272988
0.179033
0.027684
0.190339
0.066791
0.097557
0.181695
0.109349
0.279646
0.216537
0.131303
0.129393
0.490627
0.142925
0.100000
0.100000
0.000000
0.000000
0.000000
0.000000
0.157579
0.133642
0.111494
0.021728
0.063821
0.283285
0.199591
0.259599
0.113573
0.329481
0.115862
0.235268
0.120133
0.075014
0.172049
0.239037
0.124361
0.162650
0.429810
0.044388
0.122587
0.359409
0.100000
0.100000
0.000000
0.000000
0.000000
0.000000
0.111500
0.134978
0.323736
0.199013
0.288319
0.317366
0.147791
0.241528
0.122712
0.123369
0.182130
0.103460
0.326050
0.300840
0.110573
0.217896
0.104646
0.246268
0.115801
0.145433
0.363773
0.294110
0.093670
0.100000
0.000000
0.000000
0.000000
0.000000
0.233337
0.140612
0.189344
0.179910
0.215890
0.141675
0.460363
0.177936
0.091028
0.022193
0.244929
0.131687
0.032759
0.015669
0.281162
0.112601
0.079149
0.221696
0.239400
0.211985
0.143178
0.238536
0.296736
0.100000
0.000000
0.000000
0.000000
0.000000
0.011933
0.069146
0.100239
0.080244
0.233696
0.111341
0.356687
0.464422
0.146539
0.127163
0.159059
0.072703
0.107783
0.107403
0.292690
0.112505
0.317041
0.360841
0.075348
0.211485
0.269230
0.290531
0.068969
0.100000
0.000000
0.000000
0.000000
0.000000
0.105427
0.094004
0.172177
0.141174
0.120031
0.315622
0.053354
0.043561
0.390845
0.292853
0.233398
0.229849
0.075401
0.159641
0.132265
0.185107
0.278061
0.193510
0.107176
0.039442
0.165399
0.232441
0.159562
0.100000
0.000000
0.000000
0.000000
0.000000
0.107494
0.198586
0.039861
0.151565
0.157283
0.361861
0.230374
0.233472
0.319380
0.125948
0.147862
0.051916
0.221283
0.091682
0.155891
0.082141
0.028083
0.156309
0.112478
0.165097
0.315507
0.241745
0.360107
0.100000
0.000000
0.000000
0.000000
0.000000
0.083375
0.021354
0.077882
0.330219
0.354091
0.147521
0.281361
0.103113
0.375294
0.160897
0.239039
0.314209
0.259952
0.118530
0.128257
0.057584
0.235077
0.189239
0.223238
0.121214
0.095065
0.387364
0.399743
0.100000
0.000000
0.000000
0.000000
0.000000
0.048180
0.085457
0.166830
0.061655
0.135854
0.115272
0.164102
0.200298
0.053490
0.120827
0.087021
0.217700
0.063627
0.058912
0.066829
0.209400
0.215059
0.185120
0.156159
0.168737
0.086887
0.421417
0.307581
0.100000
0.000000
0.000000
0.000000
0.000000
0.000000
0.000000
0.000000
0.000000
0.000000
0.000000
0.000000
0.000000
0.000000
0.000000
0.000000
0.000000
0.000000
0.000000
0.000000
0.000000
0.000000
0.000000
0.000000
0.000000
0.000000
0.000000
0.000000
0.000000
0.000000
0.000000
0.000000
0.000000
0.000000
0.000000
0.000000
0.000000
0.000000
0.000000
0.000000
0.000000
0.000000
0.000000
0.000000
0.000000
0.000000
0.000000
0.000000
0.000000
0.000000
0.000000
0.000000
0.000000
0.000000
0.000000
0.000000
0.000000
0.000000
0.000000
0.000000
0.000000
0.000000
0.000000
0.000000
0.000000
0.000000
0.000000
0.000000
0.000000
0.000000
0.000000
0.000000
0.000000
0.000000
0.000000
0.000000
0.000000
0.000000
0.000000
0.000000
0.000000
0.000000
0.000000
0.000000
0.000000
0.000000
0.000000
0.000000
0.000000
0.000000
0.000000
0.000000
0.000000
0.000000
0.000000
0.000000
0.000000
0.000000
0.000000
0.000000
0.000000
0.000000
0.000000
0.000000
0.000000
0.000000
0.000000
0.000000
0.000000
0.000000
0.000000
0.000000
0.000000
</DataArray>
<DataArray NumberOfComponents='1' type='Float32' Name='pressure' format='ascii'>
0.000000
0.000000
0.000000
0.000000
0.000000
0.000000
0.000000
0.000000
0.000000
0.000000
0.000000
0.000000
0.000000
0.000000
0.000000
0.000000
0.000000
0.000000
0.000000
0.000000
0.000000
0.000000
0.000000
0.000000
0.000000
0.000000
0.000000
0.000000
0.000000
0.000000
0.000000
0.000000
0.000000
0.000000
0.000000
0.000000
0.000000
0.000000
0.000000
0.000000
0.000000
0.000000
0.000000
0.000000
0.000000
0.000000
0.000000
0.000000
0.000000
0.000000
0.000000
0.000000
0.000000
0.000000
0.000000
0.000000
0.000000
0.000000
64509.992188
64704.257812
65239.261719
65666.312500
65063.699219
65696.593750
65172.171875
65923.375000
66693.242188
67747.101562
67005.632812
68400.382812
69381.921875
70603.484375
70332.656250
72059.242188
74170.195312
75562.750000
77576.382812
78938.921875
80116.828125
80366.875000
79765.265625
74626.843750
64607.437500
0.000000
0.000000
0.000000
64350.765625
64567.339844
65227.359375
65369.738281
65189.585938
65220.925781
64788.371094
65821.070312
66560.875000
67984.687500
66606.984375
68718.843750
69517.015625
70629.460938
70315.429688
71865.718750
75200.320312
75747.375000
77069.703125
80000.984375
80679.492188
81184.820312
82511.062500
80300.351562
79311.203125
66955.593750
0.000000
0.000000
63980.218750
63738.828125
63915.792969
64490.152344
63650.289062
64785.925781
66694.953125
66370.726562
68348.539062
68565.296875
69344.031250
71207.062500
72240.265625
74014.070312
75677.648438
76553.656250
79130.281250
80249.203125
82251.054688
83924.515625
87468.593750
92877.046875
85294.687500
79342.570312
94936.218750
95077.601562
0.000000
0.000000
64509.445312
63608.160156
63927.027344
63143.292969
64642.175781
64344.777344
65272.742188
65248.007812
66528.101562
67217.031250
69138.695312
69741.632812
70325.414062
71886.851562
73398.062500
75371.476562
77996.187500
78697.554688
81233.773438
82698.976562
86434.750000
94072.640625
102735.750000
90627.789062
100991.945312
93306.406250
0.000000
0.000000
64498.433594
63665.980469
62841.019531
63768.398438
64044.523438
64965.351562
64426.449219
65543.710938
65435.242188
67256.273438
67504.062500
68314.062500
69000.687500
70660.125000
72307.859375
74700.375000
75279.000000
78417.859375
81230.273438
84674.203125
85591.453125
88138.609375
90343.460938
93073.351562
93980.843750
93234.031250
0.000000
0.000000
62645.003906
62054.066406
62963.031250
62841.109375
64232.160156
64064.468750
64703.855469
65241.878906
65775.453125
66644.812500
66504.117188
66516.960938
68672.335938
69433.023438
70929.093750
72058.078125
75456.945312
76765.312500
79906.585938
82519.921875
85007.671875
88678.812500
88969.781250
100933.562500
95874.890625
90406.406250
0.000000
0.000000
61777.550781
61314.566406
61785.757812
62924.261719
63118.804688
63970.402344
64233.906250
63554.699219
64061.187500
64303.792969
66544.945312
66617.390625
67881.898438
69286.515625
71399.304688
73289.343750
74533.148438
77400.476562
80160.250000
83960.226562
85893.960938
92733.812500
97961.546875
92990.257812
93395.242188
87585.625000
0.000000
0.000000
61669.136719
61560.011719
62872.738281
61664.898438
62625.003906
63621.382812
61612.316406
63717.882812
64108.152344
63632.914062
64540.042969
65690.710938
66157.460938
67917.281250
68462.179688
71460.015625
73386.078125
75044.367188
77822.265625
81243.953125
82931.515625
84451.859375
90015.257812
90188.507812
83749.382812
82465.554688
0.000000
0.000000
61800.617188
62118.816406
61748.625000
61765.726562
62524.339844
61367.613281
61943.328125
62951.941406
60797.847656
63725.460938
63506.867188
64449.222656
65138.789062
65479.710938
67987.054688
70529.906250
71262.109375
72327.742188
74293.335938
77040.437500
80114.257812
80958.132812
83388.101562
87400.078125
86589.554688
80338.398438
0.000000
0.000000
61305.007812
61505.144531
60757.808594
61267.640625
61048.394531
61472.945312
60002.511719
61625.609375
61492.937500
62206.261719
60877.929688
63985.648438
63796.355469
65458.894531
67908.945312
68333.320312
68922.875000
71045.421875
72712.812500
76765.703125
80001.281250
80539.742188
85134.531250
88236.179688
85851.921875
80033.062500
0.000000
0.000000
60897.289062
60605.492188
60113.878906
60268.593750
60022.074219
61879.949219
60103.164062
61295.542969
60037.660156
62044.035156
61691.167969
62489.546875
63367.050781
63316.675781
65227.437500
66931.750000
67695.234375
69945.117188
71052.648438
75284.523438
74351.039062
77355.242188
80287.156250
85729.210938
84615.531250
78035.164062
0.000000
0.000000
59283.062500
58715.093750
59504.382812
59510.320312
59796.277344
60434.730469
58886.968750
60174.425781
59719.191406
59773.378906
60184.625000
61078.511719
61618.960938
64615.371094
64122.355469
64685.085938
67330.914062
68110.468750
70009.890625
72202.507812
72972.687500
75430.515625
78810.875000
83226.765625
76321.890625
75530.109375
0.000000
0.000000
58714.050781
59000.808594
59253.746094
58371.578125
59116.421875
58867.570312
57847.984375
59161.335938
58308.792969
60269.562500