<?xml version='1.0' encoding='UTF-8'?>
<VTKFile xmlns='VTK' byte_order='LittleEndian' version='0.1' type='UnstructuredGrid'>
<UnstructuredGrid>
<Piece NumberOfCells='1816' NumberOfPoints='1816'>
<Points>
<DataArray NumberOfComponents='3' type='Float32' Name='Position' format='ascii'>
0.730000 0.400000 0.000000
0.730000 0.412500 0.000000
0.730000 0.425000 0.000000
0.730000 0.437500 0.000000
0.730000 0.450000 0.000000
0.730000 0.462500 0.000000
0.730000 0.475000 0.000000
0.730000 0.487500 0.000000
0.767500 0.400000 0.000000
0.767500 0.412500 0.000000
0.767500 0.425000 0.000000
0.767500 0.437500 0.000000
0.767500 0.450000 0.000000
0.767500 0.462500 0.000000
0.767500 0.475000 0.000000
0.767500 0.487500 0.000000
0.025000 0.000000 0.000000
0.025000 0.012500 0.000000
0.025000 0.025000 0.000000
0.025000 0.037500 0.000000
0.025000 0.050000 0.000000
0.025000 0.062500 0.000000
0.025000 0.075000 0.000000
0.025000 0.087500 0.000000
0.025000 0.100000 0.000000
0.025000 0.112500 0.000000
0.025000 0.125000 0.000000
0.025000 0.137500 0.000000
0.025000 0.150000 0.000000
0.025000 0.162500 0.000000
0.025000 0.175000 0.000000
0.025000 0.187500 0.000000
0.025000 0.200000 0.000000
0.025000 0.212500 0.000000
0.025000 0.225000 0.000000
0.025000 0.237500 0.000000
0.025000 0.250000 0.000000
0.025000 0.262500 0.000000
0.025000 0.275000 0.000000
0.025000 0.287500 0.000000
0.025000 0.300000 0.000000
0.025000 0.312500 0.000000
0.025000 0.325000 0.000000
0.025000 0.337500 0.000000
0.025000 0.350000 0.000000
0.025000 0.362500 0.000000
0.025000 0.375000 0.000000
0.025000 0.387500 0.000000
0.805000 0.400000 0.000000
0.805000 0.412500 0.000000
0.805000 0.425000 0.000000
0.805000 0.437500 0.000000
0.805000 0.450000 0.000000
0.805000 0.462500 0.000000
0.805000 0.475000 0.000000
0.805000 0.487500 0.000000
0.062500 0.000000 0.000000
0.062500 0.012500 0.000000
0.062500 0.025000 0.000000
0.062500 0.037500 0.000000
0.062500 0.050000 0.000000
0.062500 0.062500 0.000000
0.062500 0.075000 0.000000
0.062500 0.087500 0.000000
0.062500 0.100000 0.000000
0.062500 0.112500 0.000000
0.062500 0.125000 0.000000
0.062500 0.137500 0.000000
0.062500 0.150000 0.000000
0.062500 0.162500 0.000000
0.062500 0.175000 0.000000
0.062500 0.187500 0.000000
0.062500 0.200000 0.000000
0.062500 0.212500 0.000000
0.062500 0.225000 0.000000
0.062500 0.237500 0.000000
0.062500 0.250000 0.000000
0.062500 0.262500 0.000000
0.062500 0.275000 0.000000
0.062500 0.287500 0.000000
0.062500 0.300000 0.000000
0.062500 0.312500 0.000000
0.062500 0.325000 0.000000
0.062500 0.337500 0.000000
0.062500 0.350000 0.000000
0.062500 0.362500 0.000000
0.062500 0.375000 0.000000
0.062500 0.387500 0.000000
0.842500 0.400000 0.000000
0.842500 0.412500 0.000000
0.842500 0.425000 0.000000
0.842500 0.437500 0.000000
0.842500 0.450000 0.000000
0.842500 0.462500 0.000000
0.842500 0.475000 0.000000
0.842500 0.487500 0.000000
0.100000 0.000000 0.000000
0.100000 0.012500 0.000000
0.100000 0.025000 0.000000
0.100000 0.037500 0.000000
0.100000 0.050000 0.000000
0.100000 0.062500 0.000000
0.100000 0.075000 0.000000
0.100000 0.087500 0.000000
0.100000 0.100000 0.000000
0.100000 0.112500 0.000000
0.100000 0.125000 0.000000
0.100000 0.137500 0.000000
0.100000 0.150000 0.000000
0.100000 0.162500 0.000000
0.100000 0.175000 0.000000
0.100000 0.187500 0.000000
0.100000 0.200000 0.000000
0.100000 0.212500 0.000000
0.100000 0.225000 0.000000
0.100000 0.237500 0.000000
0.100000 0.250000 0.000000
0.100000 0.262500 0.000000
0.100000 0.275000 0.000000
0.100000 0.287500 0.000000
0.100000 0.300000 0.000000
0.100000 0.312500 0.000000
0.100000 0.325000 0.000000
0.100000 0.337500 0.000000
0.100000 0.350000 0.000000
0.100000 0.362500 0.000000
0.100000 0.375000 0.000000
0.100000 0.387500 0.000000
0.880000 0.400000 0.000000
0.880000 0.412500 0.000000
0.880000 0.425000 0.000000
0.880000 0.437500 0.000000
0.880000 0.450000 0.000000
0.880000 0.462500 0.000000
0.880000 0.475000 0.000000
0.880000 0.487500 0.000000
0.137500 0.000000 0.000000
0.137500 0.012500 0.000000
0.137500 0.025000 0.000000
0.137500 0.037500 0.000000
0.137500 0.050000 0.000000
0.137500 0.062500 0.000000
0.137500 0.075000 0.000000
0.137500 0.087500 0.000000
0.137500 0.100000 0.000000
0.137500 0.112500 0.000000
0.137500 0.125000 0.000000
0.137500 0.137500 0.000000
0.137500 0.150000 0.000000
0.137500 0.162500 0.000000
0.137500 0.175000 0.000000
0.137500 0.187500 0.000000
0.137500 0.200000 0.000000
0.137500 0.212500 0.000000
0.137500 0.225000 0.000000
0.137500 0.237500 0.000000
0.137500 0.250000 0.000000
0.137500 0.262500 0.000000
0.137500 0.275000 0.000000
0.137500 0.287500 0.000000
0.137500 0.300000 0.000000
0.137500 0.312500 0.000000
0.137500 0.325000 0.000000
0.137500 0.337500 0.000000
0.137500 0.350000 0.000000
0.137500 0.362500 0.000000
0.137500 0.375000 0.000000
0.137500 0.387500 0.000000
0.917500 0.400000 0.000000
0.917500 0.412500 0.000000
0.917500 0.425000 0.000000
0.917500 0.437500 0.000000
0.917500 0.450000 0.000000
0.917500 0.462500 0.000000
0.917500 0.475000 0.000000
0.917500 0.487500 0.000000
0.175000 0.000000 0.000000
0.175000 0.012500 0.000000
0.175000 0.025000 0.000000
0.175000 0.037500 0.000000
0.175000 0.050000 0.000000
0.175000 0.062500 0.000000
0.175000 0.075000 0.000000
0.175000 0.087500 0.000000
0.175000 0.100000 0.000000
0.175000 0.112500 0.000000
0.175000 0.125000 0.000000
0.175000 0.137500 0.000000
0.175000 0.150000 0.000000
0.175000 0.162500 0.000000
0.175000 0.175000 0.000000
0.175000 0.187500 0.000000
0.175000 0.200000 0.000000
0.175000 0.212500 0.000000
0.175000 0.225000 0.000000
0.175000 0.237500 0.000000
0.175000 0.250000 0.000000
0.175000 0.262500 0.000000
0.175000 0.275000 0.000000
0.175000 0.287500 0.000000
0.175000 0.300000 0.000000
0.175000 0.312500 0.000000
0.175000 0.325000 0.000000
0.175000 0.337500 0.000000
0.175000 0.350000 0.000000
0.175000 0.362500 0.000000
0.175000 0.375000 0.000000
0.175000 0.387500 0.000000
0.955000 0.400000 0.000000
0.955000 0.412500 0.000000
0.955000 0.425000 0.000000
0.955000 0.437500 0.000000
0.955000 0.450000 0.000000
0.955000 0.462500 0.000000
0.955000 0.475000 0.000000
0.955000 0.487500 0.000000
0.212500 0.000000 0.000000
0.212500 0.012500 0.000000
0.212500 0.025000 0.000000
0.212500 0.037500 0.000000
0.212500 0.050000 0.000000
0.212500 0.062500 0.000000
0.212500 0.075000 0.000000
0.212500 0.087500 0.000000
0.212500 0.100000 0.000000
0.212500 0.112500 0.000000
0.212500 0.125000 0.000000
0.212500 0.137500 0.000000
0.212500 0.150000 0.000000
0.212500 0.162500 0.000000
0.212500 0.175000 0.000000
0.212500 0.187500 0.000000
0.212500 0.200000 0.000000
0.212500 0.212500 0.000000
0.212500 0.225000 0.000000
0.212500 0.237500 0.000000
0.212500 0.250000 0.000000
0.212500 0.262500 0.000000
0.212500 0.275000 0.000000
0.212500 0.287500 0.000000
0.212500 0.300000 0.000000
0.212500 0.312500 0.000000
0.212500 0.325000 0.000000
0.212500 0.337500 0.000000
0.212500 0.350000 0.000000
0.212500 0.362500 0.000000
0.212500 0.375000 0.000000
0.212500 0.387500 0.000000
0.992500 0.400000 0.000000
0.992500 0.412500 0.000000
0.992500 0.425000 0.000000
0.992500 0.437500 0.000000
0.992500 0.450000 0.000000
0.992500 0.462500 0.000000
0.992500 0.475000 0.000000
0.992500 0.487500 0.000000
0.250000 0.000000 0.000000
0.250000 0.012500 0.000000
0.250000 0.025000 0.000000
0.250000 0.037500 0.000000
0.250000 0.050000 0.000000
0.250000 0.062500 0.000000
0.250000 0.075000 0.000000
0.250000 0.087500 0.000000
0.250000 0.100000 0.000000
0.250000 0.112500 0.000000
0.250000 0.125000 0.000000
0.250000 0.137500 0.000000
0.250000 0.150000 0.000000
0.250000 0.162500 0.000000
0.250000 0.175000 0.000000
0.250000 0.187500 0.000000
0.250000 0.200000 0.000000
0.250000 0.212500 0.000000
0.250000 0.225000 0.000000
0.250000 0.237500 0.000000
0.250000 0.250000 0.000000
0.250000 0.262500 0.000000
0.250000 0.275000 0.000000
0.250000 0.287500 0.000000
0.250000 0.300000 0.000000
0.250000 0.312500 0.000000
0.250000 0.325000 0.000000
0.250000 0.337500 0.000000
0.250000 0.350000 0.000000
0.250000 0.362500 0.000000
0.250000 0.375000 0.000000
0.250000 0.387500 0.000000
1.030000 0.400000 0.000000
1.030000 0.412500 0.000000
1.030000 0.425000 0.000000
1.030000 0.437500 0.000000
1.030000 0.450000 0.000000
1.030000 0.462500 0.000000
1.030000 0.475000 0.000000
1.030000 0.487500 0.000000
0.287500 0.000000 0.000000
0.287500 0.012500 0.000000
0.287500 0.025000 0.000000
0.287500 0.037500 0.000000
0.287500 0.050000 0.000000
0.287500 0.062500 0.000000
0.287500 0.075000 0.000000
0.287500 0.087500 0.000000
0.287500 0.100000 0.000000
0.287500 0.112500 0.000000
0.287500 0.125000 0.000000
0.287500 0.137500 0.000000
0.287500 0.150000 0.000000
0.287500 0.162500 0.000000
0.287500 0.175000 0.000000
0.287500 0.187500 0.000000
0.287500 0.200000 0.000000
0.287500 0.212500 0.000000
0.287500 0.225000 0.000000
0.287500 0.237500 0.000000
0.287500 0.250000 0.000000
0.287500 0.262500 0.000000
0.287500 0.275000 0.000000
0.287500 0.287500 0.000000
0.287500 0.300000 0.000000
0.287500 0.312500 0.000000
0.287500 0.325000 0.000000
0.287500 0.337500 0.000000
0.287500 0.350000 0.000000
0.287500 0.362500 0.000000
0.287500 0.375000 0.000000
0.287500 0.387500 0.000000
1.067500 0.400000 0.000000
1.067500 0.412500 0.000000
1.067500 0.425000 0.000000
1.067500 0.437500 0.000000
1.067500 0.450000 0.000000
1.067500 0.462500 0.000000
1.067500 0.475000 0.000000
1.067500 0.487500 0.000000
0.325000 0.000000 0.000000
0.325000 0.012500 0.000000
0.325000 0.025000 0.000000
0.325000 0.037500 0.000000
0.325000 0.050000 0.000000
0.325000 0.062500 0.000000
0.325000 0.075000 0.000000
0.325000 0.087500 0.000000
0.325000 0.100000 0.000000
0.325000 0.112500 0.000000
0.325000 0.125000 0.000000
0.325000 0.137500 0.000000
0.325000 0.150000 0.000000
0.325000 0.162500 0.000000
0.325000 0.175000 0.000000
0.325000 0.187500 0.000000
0.325000 0.200000 0.000000
0.325000 0.212500 0.000000
0.325000 0.225000 0.000000
0.325000 0.237500 0.000000
0.325000 0.250000 0.000000
0.325000 0.262500 0.000000
0.325000 0.275000 0.000000
[...]
<PointData>
<DataArray NumberOfComponents='1' type='Int32' Name='ParticleType' format='ascii'>
5
5
5
5
5
5
5
5
5
5
5
5
5
5
5
5
2
2
2
2
2
2
2
2
2
2
2
2
2
2
2
2
2
2
2
2
2
2
2
2
2
2
1
1
0
0
0
0
5
5
5
5
5
5
5
5
2
2
2
2
2
2
2
2
2
2
2
2
2
2
2
2
2
2
2
2
2
2
2
2
2
1
1
0
0
0
0
0
5
5
5
5
5
5
5
5
2
2
2
2
2
2
2
2
2
2
2
2
2
2
2
2
2
2
2
2
2
2
2
2
2
1
1
0
0
0
0
0
5
5
5
5
5
5
5
5
2
2
2
2
2
2
2
2
2
2
2
2
2
2
2
2
2
2
2
2
2
2
2
2
2
1
1
0
0
0
0
0
5
5
5
5
5
5
5
5
2
2
2
2
2
2
2
2
2
2
2
2
2
2
2
2
2
2
2
2
2
2
2
2
2
1
1
0
0
0
0
0
5
5
5
5
5
5
5
5
2
2
2
2
2
2
2
2
2
2
2
2
2
2
2
2
2
2
2
2
2
2
2
2
2
1
1
0
0
0
0
0
5
5
5
5
5
5
5
5
2
2
2
2
2
2
2
2
2
2
2
2
2
2
2
2
2
2
2
2
2
2
2
2
2
1
1
0
0
0
0
0
5
5
5
5
5
5
5
5
2
2
2
2
2
2
2
2
2
2
2
2
2
2
2
2
2
2
2
2
2
2
2
2
2
1
1
0
0
0
0
0
5
5
5
5
5
5
5
5
2
2
2
2
2
2
2
2
2
2
2
2
2
2
2
2
2
2
2
2
2
2
2
2
2
1
1
0
0
0
0
0
5
5
5
5
5
5
5
5
2
2
2
2
2
2
2
2
2
2
2
2
2
2
2
2
2
2
2
2
2
2
2
2
2
1
1
0
0
0
0
0
5
5
5
5
5
5
5
5
2
2
2
2
2
2
2
2
2
2
2
2
2
2
2
2
2
2
2
2
2
2
2
2
2
1
1
0
0
0
0
0
5
5
5
5
5
5
5
5
2
2
2
2
2
2
2
2
2
2
2
2
2
2
2
2
2
2
2
2
2
2
2
2
2
1
1
0
0
0
0
0
5
5
5
5
5
5
5
5
2
2
2
2
2
2
2
2
2
2
2
2
2
2
2
2
2
2
2
2
2
2
2
2
1
1
0
0
0
0
0
0
5
5
5
5
5
5
5
5
2
2
2
2
2
2
2
2
2
2
2
2
2
2
2
2
2
2
2
2
2
2
2
2
2
1
0
0
0
0
0
0
2
2
2
2
2
2
2
2
2
2
2
2
2
2
2
2
2
2
2
2
2
2
2
2
2
1
1
0
0
0
0
0
2
2
2
2
2
2
2
2
2
2
2
2
2
2
2
2
2
2
2
2
2
2
2
2
2
1
1
0
0
0
0
0
2
2
2
2
2
2
2
2
2
2
2
2
2
2
2
2
2
2
2
2
2
2
2
2
2
1
1
0
0
0
0
0
2
2
2
2
2
2
2
2
2
2
2
2
2
2
2
2
2
2
2
2
2
2
2
2
2
1
1
0
0
0
0
0
2
2
2
2
2
2
2
2
2
2
2
2
2
2
2
2
2
2
2
2
2
2
2
2
2
1
1
0
0
0
0
0
2
2
2
2
2
2
2
2
2
2
2
2
2
2
2
2
2
2
2
2
2
2
2
2
2
2
1
0
0
0
0
0
2
2
2
2
2
2
2
2
2
2
2
2
2
2
2
2
2
2
2
2
2
2
2
2
2
1
1
0
0
0
0
0
2
2
2
2
2
2
2
2
2
2
2
2
2
2
2
2
2
2
2
2
2
2
2
2
2
2
1
1
0
0
0
0
2
2
2
2
2
2
2
2
2
2
2
2
2
2
2
2
2
2
2
2
2
2
2
2
2
1
1
0
0
0
0
0
2
2
2
2
2
2
2
2
2
2
2
2
2
2
2
2
2
2
2
2
2
2
2
2
2
2
1
1
0
0
0
0
2
2
2
2
2
2
2
2
2
2
2
2
2
2
2
2
2
2
2
2
2
2
2
2
2
2
1
0
0
0
0
0
2
2
2
2
2
2
2
2
2
2
2
2
2
2
2
2
2
2
2
2
2
2
2
2
2
2
1
1
0
0
0
0
2
2
2
2
2
2
2
2
2
2
2
2
2
2
2
2
2
2
2
2
2
2
2
2
2
2
1
0
0
0
0
0
2
2
2
2
2
2
2
2
2
2
2
2
2
2
2
2
2
2
2
2
2
2
2
2
2
2
2
1
0
0
0
0
2
2
2
2
2
2
2
2
2
2
2
2
2
2
2
2
2
2
2
2
2
2
2
2
2
2
2
1
0
0
0
0
2
2
2
2
2
2
2
2
2
2
2
2
2
2
2
2
2
2
2
2
2
2
2
2
2
2
2
0
0
0
0
0
2
2
2
2
2
2
2
2
2
2
2
2
2
2
2
2
2
2
2
2
2
2
2
2
2
2
2
2
0
0
0
0
2
2
2
2
2
2
2
2
2
2
2
2
2
2
2
2
2
2
2
2
2
2
2
2
2
2
2
2
0
0
0
0
2
2
2
2
2
2
2
2
2
2
2
2
2
2
2
2
2
2
2
2
2
2
2
2
2
2
2
2
2
0
0
0
2
2
2
2
2
2
2
2
2
2
2
2
2
2
2
2
2
2
2
2
2
2
2
2
2
2
2
2
2
2
0
0
2
2
2
2
2
2
2
2
2
2
2
2
2
2
2
2
2
2
2
2
2
2
2
2
2
2
2
2
2
2
2
2
2
2
2
2
2
2
2
2
2
2
2
2
2
2
2
2
2
2
2
2
2
2
2
2
2
2
2
2
2
2
2
2
2
2
2
2
2
2
2
2
2
2
2
2
2
2
2
2
2
2
2
2
2
2
2
2
2
2
2
2
2
2
2
2
2
2
2
2
2
2
2
2
2
2
2
2
2
2
2
2
2
2
2
2
2
2
2
2
2
2
2
2
2
2
2
2
2
2
2
2
2
2
2
2
2
2
2
2
2
2
2
2
2
2
2
2
2
2
2
2
2
2
2
2
2
2
2
2
2
2
2
2
2
2
2
2
2
2
2
2
2
2
2
2
2
2
2
2
2
2
2
2
2
2
2
2
2
2
2
2
2
2
2
2
2
2
2
2
2
2
2
2
2
2
2
2
2
2
2
2
2
2
2
2
2
2
2
2
2
2
2
2
2
2
2
2
2
2
2
2
2
2
2
2
2
2
2
2
2
2
2
2
2
2
2
2
2
2
2
2
2
2
2
2
2
2
2
2
2
2
2
2
2
2
2
2
2
2
2
2
2
2
2
2
2
2
2
2
2
2
2
2
2
2
2
2
2
2
2
2
2
2
2
2
2
2
2
2
2
2
2
2
2
2
2
2
2
2
2
2
2
2
2
2
2
2
2
2
2
2
2
2
2
2
2
2
2
2
2
2
2
2
2
2
2
2
2
2
2
2
2
2
2
2
2
2
2
2
2
2
2
2
2
2
2
2
2
2
2
2
2
2
2
2
2
2
2
2
2
2
2
2
2
2
2
2
2
2
2
2
2
2
2
2
2
2
2
2
2
2
2
2
2
2
2
2
2
2
2
2
2
2
2
2
2
2
2
2
2
2
2
2
2
2
2
2
2
2
2
2
2
2
2
2
2
2
2
2
2
2
2
2
2
2
2
2
2
2
2
2
2
2
2
2
2
2
2
2
2
2
2
2
2
2
2
2
2
2
2
2
2
2
2
2
2
2
2
2
2
2
2
2
2
2
2
2
2
2
2
2
2
2
2
2
2
2
2
2
2
2
2
2
2
2
2
2
2
2
2
2
2
2
2
2
2
2
2
2
2
2
2
2
2
2
2
2
2
2
2
2
2
2
2
2
2
2
2
2
2
2
2
2
2
2
2
2
2
2
2
2
2
2
2
2
2
2
2
2
2
2
2
2
2
2
2
2
2
2
2
2
2
2
2
2
2
2
2
2
2
2
2
2
2
2
2
2
2
2
2
2
2
2
2
2
2
2
2
2
2
2
2
2
2
2
2
2
2
2
2
2
2
2
2
2
2
2
</DataArray>
<DataArray NumberOfComponents='1' type='Float32' Name='Temperature' format='ascii'>
-3.000000
-3.000000
-3.000000
-3.000000
-3.000000
-3.000000
-3.000000
-3.000000
-3.000000
-3.000000
-3.000000
-3.000000
-3.000000
-3.000000
-3.000000
-3.000000
-4.999568
-4.999383
-4.999032
-4.998384
-4.997275
-4.995436
-4.992455
-4.987712
-4.980302
-4.968927
-4.951782
-4.926407
-4.889544
-4.836995
-4.763512
-4.662751
-4.527327
-4.349025
-4.119200
-3.829416
-3.472313
-3.042678
-2.538704
-1.962365
-1.327111
-0.608238
-0.003747
0.008187
25.187292
57.550348
95.667841
142.322857
-3.000000
-3.000000
-3.000000
-3.000000
-3.000000
-3.000000
-3.000000
-3.000000
-4.999562
-4.999373
-4.999015
-4.998355
-4.997223
-4.995343
-4.992290
-4.987423
-4.979804
-4.968085
-4.950383
-4.924129
-4.885915
-4.831346
-4.754931
-4.650026
-4.508878
-4.322747
-4.082105
-3.776814
-3.396213
-2.929193
-2.364886
-1.694923
-0.926761
-0.003086
-0.001798
11.115385
40.301080
86.079970
141.557700
211.591682
-3.000000
-3.000000
-3.000000
-3.000000
-3.000000
-3.000000
-3.000000
-3.000000
-4.999559
-4.999368
-4.999008
-4.998341
-4.997196
-4.995294
-4.992202
-4.987269
-4.979536
-4.967631
-4.949630
-4.922910
-4.883993
-4.828399
-4.750548
-4.643729
-4.500189
-4.311355
-4.068171
-3.761455
-3.382068
-2.920618
-2.366862
-1.708967
-0.948444
-0.006587
-0.003439
10.980373
51.852944
111.560472
184.499093
278.545847
-3.000000
-3.000000
-3.000000
-3.000000
-3.000000
-3.000000
-3.000000
-3.000000
-4.999557
-4.999366
-4.999003
-4.998333
-4.997181
-4.995266
-4.992151
-4.987177
-4.979376
-4.967357
-4.949172
-4.922163
-4.882797
-4.826523
-4.747651
-4.639304
-4.493460
-4.301084
-4.052354
-3.736939
-3.344345
-2.864557
-2.289226
-1.616719
-0.842799
-0.006085
0.006591
17.500417
64.074325
136.613497
226.889309
346.572954
-3.000000
-3.000000
-3.000000
-3.000000
-3.000000
-3.000000
-3.000000
-3.000000
-4.999557
-4.999365
-4.999001
-4.998329
-4.997174
-4.995253
-4.992127
-4.987133
-4.979299
-4.967225
-4.948948
-4.921789
-4.882184
-4.825525
-4.746038
-4.636704
-4.489270
-4.294356
-4.041670
-3.720374
-3.319702
-2.830103
-2.244718
-1.566449
-0.781058
0.001460
0.007405
22.474304
74.764837
159.212347
266.045817
411.652800
-3.000000
-3.000000
-3.000000
-3.000000
-3.000000
-3.000000
-3.000000
-3.000000
-4.999556
-4.999364
-4.999000
-4.998327
-4.997170
-4.995246
-4.992113
-4.987110
-4.979257
-4.967151
-4.948821
-4.921571
-4.881815
-4.824903
-4.744993
-4.634953
-4.486364
-4.289605
-4.034109
-3.708806
-3.302916
-2.807338
-2.216034
-1.534576
-0.738515
0.001168
0.002679
26.863623
84.838679
181.055758
304.787457
478.595006
-3.000000
-3.000000
-3.000000
-3.000000
-3.000000
-3.000000
-3.000000
-3.000000
-4.999556
-4.999364
-4.999000
-4.998327
-4.997169
-4.995243
-4.992108
-4.987100
-4.979239
-4.967117
-4.948758
-4.921456
-4.881606
-4.824527
-4.744326
-4.633792
-4.484388
-4.286351
-4.028960
-3.701052
-3.291905
-2.792720
-2.197851
-1.514511
-0.709454
-0.003756
0.005805
30.339830
93.456440
200.546641
340.385899
543.003154
-3.000000
-3.000000
-3.000000
-3.000000
-3.000000
-3.000000
-3.000000
-3.000000
-4.999556
-4.999364
-4.999000
-4.998326
-4.997168
-4.995242
-4.992106
-4.987096
-4.979231
-4.967100
-4.948725
-4.921392
-4.881481
-4.824293
-4.743893
-4.633016
-4.483043
-4.284109
-4.025392
-3.695662
-3.284223
-2.782438
-2.184789
-1.499632
-0.685896
-0.007909
0.008032
33.404231
101.399062
219.238808
375.561991
610.034636
-3.000000
-3.000000
-3.000000
-3.000000
-3.000000
-3.000000
-3.000000
-3.000000
-4.999556
-4.999364
-4.999000
-4.998326
-4.997168
-4.995242
-4.992106
-4.987094
-4.979227
-4.967093
-4.948710
-4.921362
-4.881422
-4.824176
-4.743672
-4.632608
-4.482318
-4.282872
-4.023374
-3.692526
-3.279585
-2.775904
-2.175876
-1.488474
-0.666832
-0.006074
0.008394
35.764092
108.061882
235.724564
407.617346
674.925233
-3.000000
-3.000000
-3.000000
-3.000000
-3.000000
-3.000000
-3.000000
-3.000000
-4.999556
-4.999364
-4.999000
-4.998326
-4.997168
-4.995242
-4.992105
-4.987094
-4.979226
-4.967089
-4.948702
-4.921343
-4.881382
-4.824094
-4.743509
-4.632298
-4.481750
-4.281875
-4.021700
-3.689845
-3.275485
-2.769912
-2.167376
-1.477334
-0.647849
-0.000685
0.008693
37.900607
114.117395
251.403320
439.132807
743.274296
-3.000000
-3.000000
-3.000000
-3.000000
-3.000000
-3.000000
-3.000000
-3.000000
-4.999556
-4.999364
-4.999000
-4.998326
-4.997168
-4.995242
-4.992106
-4.987095
-4.979227
-4.967091
-4.948703
-4.921342
-4.881374
-4.824071
-4.743452
-4.632171
-4.481491
-4.281382
-4.020818
-3.688347
-3.273063
-2.766165
-2.161730
-1.469502
-0.633710
0.004154
0.008872
39.533274
119.056223
264.977652
467.402962
809.845002
-3.000000
-3.000000
-3.000000
-3.000000
-3.000000
-3.000000
-3.000000
-3.000000
-4.999557
-4.999365
-4.999001
-4.998329
-4.997172
-4.995249
-4.992117
-4.987114
-4.979258
-4.967142
-4.948783
-4.921468
-4.881565
-4.824351
-4.743848
-4.632704
-4.482160
-4.282140
-4.021525
-3.688718
-3.272606
-2.764175
-2.157348
-1.462517
-0.621719
0.003791
0.006415
40.750078
123.270409
277.589429
494.765753
880.781860
-3.000000
-3.000000
-3.000000
-3.000000
-3.000000
-3.000000
-3.000000
-3.000000
-4.999563
-4.999373
-4.999013
-4.998347
-4.997202
-4.995295
-4.992190
-4.987226
-4.979429
-4.967396
-4.949154
-4.921987
-4.882251
-4.825168
-4.744610
-4.632878
-4.480466
-4.275790
-4.004886
-3.651161
-3.195564
-2.618212
-1.902561
-1.054204
-0.007699
-0.005168
12.518893
41.840425
123.976444
286.003529
517.083159
949.360689
-3.000000
-3.000000
-3.000000
-3.000000
-3.000000
-3.000000
-3.000000
-3.000000
-4.999588
-4.999400
-4.999041
-4.998369
-4.997199
-4.995224
-4.991964
-4.986682
-4.978277
-4.965148
-4.945022
-4.914763
-4.870172
-4.805811
-4.714885
-4.589247
-4.419582
-4.195823
-3.907833
-3.546328
-3.103906
-2.575986
-1.958257
-1.260412
-0.302153
-0.004480
3.842684
52.948262
134.454316
296.614009
534.213445
1014.877013
-4.999709
-4.999567
-4.999293
-4.998773
-4.997850
-4.996267
-4.993606
-4.989218
-4.982115
-4.970831
-4.953248
-4.926389
-4.886198
-4.827324
-4.742969
-4.624847
-4.463325
-4.247835
-3.967580
-3.612546
-3.174726
-2.649565
-2.035463
-1.349188
-0.511441
-0.002921
0.008410
48.194226
125.324673
285.090563
525.563616
1056.745622
-4.999823
-4.999730
-4.999549
-4.999198
-4.998566
-4.997460
-4.995567
-4.992387
-4.987148
-4.978683
-4.965273
-4.944462
-4.912836
-4.865806
-4.797399
-4.700122
-4.564923
-4.381296
-4.137560
-3.821330
-3.420237
-2.923146
-2.321326
-1.617740
-0.780160
-0.006186
0.002181
30.500180
109.676879
268.796278
512.295003
1104.718115
-4.999892
-4.999831
-4.999707
-4.999464
-4.999012
-4.998200
-4.996768
-4.994292
-4.990091
-4.983098
-4.971690
-4.953456
-4.924930
-4.881279
-4.816002
-4.720702
-4.585016
-4.396830
-4.142901
-3.809975
-3.386379
-2.864073
-2.239486
-1.525309
-0.672099
-0.004192
0.005861
38.149242
104.824356
256.538442
496.982270
1155.068248
-4.999940
-4.999904
-4.999828
-4.999676
-4.999388
-4.998857
-4.997898
-4.996199
-4.993252
-4.988237
-4.979882
-4.966259
-4.944534
-4.910685
-4.859192
-4.782779
-4.672257
-4.516564
-4.303051
-4.018003
-3.647221
-3.176322
-2.590681
-1.876119
-1.024915
0.001588
-0.001692
17.083211
89.232864
237.811393
475.311834
1213.744622
-4.999968
-4.999946
-4.999900
-4.999804
-4.999617
-4.999262
-4.998598
-4.997383
-4.995201
-4.991363
-4.984748
-4.973588
-4.955173
-4.925476
-4.878719
-4.806915
-4.699495
-4.543158
-4.322162
-4.019290
-3.617691
-3.103703
-2.469547
-1.722670
-0.842111
-0.005067
0.002445
28.768211
83.895042
222.353235
449.657986
1276.070203
-4.999984
-4.999972
-4.999947
-4.999893
-4.999785
-4.999571
-4.999162
-4.998390
-4.996964
-4.994385
-4.989821
-4.981921
-4.968564
-4.946521
-4.911055
-4.855482
-4.770781
-4.645373
-4.465235
-4.214555
-3.877048
-3.437943
-2.886587
-2.216074
-1.443811
-0.403197
-0.004737
2.939451
69.518151
201.021866
419.235982
1370.181020
-4.999993
-4.999986
-4.999973
-4.999943
-4.999881
-4.999755
-4.999502
-4.999008
-4.998060
-4.996277
-4.992997
-4.987094
-4.976716
-4.958898
-4.929062
-4.880382
-4.803081
-4.683768
-4.505048
-4.245737
-3.882181
-3.391263
-2.755177
-1.970434
-1.040318
-0.005684
-0.000868
20.423145
63.664423
182.520439
387.876843
1328.732404
-4.999997
-4.999994
-4.999988
-4.999973
-4.999941
-4.999874
-4.999736
-4.999454
-4.998895
-4.997805
-4.995731
-4.991873
-4.984868
-4.972463
-4.951071
-4.915190
-4.856734
-4.764391
-4.623201
-4.414667
-4.117793
-3.711337
-3.177540
-2.505037
-1.707529
-0.713260
-0.006571
0.006746
51.762697
161.278464
354.164554
1282.032109
-4.999999
-4.999998
-4.999995
-4.999988
-4.999973
-4.999939
-4.999866
-4.999711
-4.999389
-4.998733
-4.997426
-4.994883
-4.990052
-4.981096
-4.964926
-4.936514
-4.887997
-4.807597
-4.678487
-4.477877
-4.176758
-3.740927
-3.134519
-2.325843
-1.320429
-0.006042
-0.003712
13.406560
45.402324
142.628663
320.887015
1232.196847
-5.000000
-4.999999
-4.999998
-4.999995
-4.999989
-4.999974
-4.999940
-4.999865
-4.999702
-4.999354
-4.998631
-4.997161
-4.994247
-4.988620
-4.978044
-4.958727
-4.924492
-4.865726
-4.768225
-4.612244
-4.372328
-4.018746
-3.521519
-2.856552
-2.022485
-0.991044
-0.007925
0.002114
35.867127
122.627330
285.756716
1175.842478
-5.000000
-5.000000
-4.999999
-4.999998
-4.999996
-4.999990
-4.999976
-4.999942
-4.999866
-4.999693
-4.999315
-4.998505
-4.996808
-4.993349
-4.986481
-4.973226
-4.948392
-4.903302
-4.824109
-4.689877
-4.470844
-4.127742
-3.613472
-2.875482
-1.889029
-0.409638
-0.005827
7.826351
29.695415
104.591605
251.195875
1115.191725
-5.000000
-5.000000
-5.000000
-5.000000
-4.999999
-4.999997
-4.999992
-4.999979
-4.999948
-4.999875
-4.999706
-4.999320
-4.998468
-4.996630
-4.992778
-4.984940
-4.969479
-4.939971
-4.885585
-4.789009
-4.624214
-4.354901
-3.935262
-3.315616
-2.457384
-1.352317
-0.008785
-0.002392
22.358839
86.280847
215.387194
1046.144388
-5.000000
-5.000000
-5.000000
-5.000000
-5.000000
-4.999999
-4.999998
-4.999994
-4.999983
-4.999956
-4.999889
-4.999727
-4.999343
-4.998457
-4.996470
-4.992143
-4.983004
-4.964318
-4.927398
-4.857050
-4.728085
-4.501260
-4.119988
-3.510439
-2.598162
-1.258690
-0.007061
3.748260
17.028807
69.743371
180.662011
971.241076
-5.000000
-5.000000
-5.000000
-5.000000
-5.000000
-5.000000
-4.999999
-4.999998
-4.999996
-4.999988
-4.999967
-4.999912
-4.999771
-4.999420
-4.998572
-4.996579
-4.992045
-4.982069
-4.960902
-4.917708
-4.833195
-4.675217
-4.394191
-3.920625
-3.163844
-2.062102
-0.192500
-0.006367
11.756152
53.788203
145.595478
885.298433
-5.000000
-5.000000
-5.000000
-5.000000
-5.000000
-5.000000
-5.000000
-5.000000
-4.999999
-4.999997
-4.999992
-4.999978
-4.999938
-4.999829
-4.999540
-4.998795
-4.996936
-4.992451
-4.982012
-4.958640
-4.908472
-4.805635
-4.605313
-4.236802
-3.599371
-2.594628
-0.927883
-0.008738
7.628409
39.389352
111.770085
788.687915
-5.000000
-5.000000
-5.000000
-5.000000
-5.000000
-5.000000
-5.000000
-5.000000
-5.000000
-5.000000
-4.999999
-4.999996
-4.999988
-4.999963
-4.999889
-4.999677
-4.999088
-4.997503
-4.993388
-4.983106
-4.958461
-4.901983
-4.778737
-4.523906
-4.027779
-3.131294
-1.588027
0.387441
4.459058
27.042821
80.805618
682.676444
-5.000000
-5.000000
-5.000000
-5.000000
-5.000000
-5.000000
-5.000000
-5.000000
-5.000000
-5.000000
-5.000000
-5.000000
-4.999999
-4.999995
-4.999984
-4.999947
-4.999828
-4.999462
-4.998368
-4.995225
-4.986554
-4.963700
-4.906398
-4.770454
-4.467031
-3.831386
-2.616947
-0.170170
2.053171
16.384090
52.122020
559.565621
-5.000000
-5.000000
-5.000000
-5.000000
-5.000000
-5.000000
-5.000000
-5.000000
-5.000000
-5.000000
-5.000000
-5.000000
-5.000000
-5.000000
-4.999999
-4.999996
-4.999984
-4.999939
-4.999780
-4.999232
-4.997411
-4.991615
-4.974015
-4.923383
-4.786372
-4.441613
-3.648058
-1.938308
0.575202
8.254062
28.477429
423.383563
-5.000000
-5.000000
-5.000000
-5.000000
-5.000000
-5.000000
-5.000000
-5.000000
-5.000000
-5.000000
-5.000000
-5.000000
-5.000000
-5.000000
-5.000000
-5.000000
-5.000000
-4.999998
-4.999991
-4.999963
-4.999842
-4.999345
-4.997354
-4.989711
-4.961862
-4.866739
-4.562666
-3.717247
-1.194225
2.552275
10.362145
263.937985
-5.000000
-5.000000
-5.000000
-5.000000
-5.000000
-5.000000
-5.000000
-5.000000
-5.000000
-5.000000
-5.000000
-5.000000
-5.000000
-5.000000
-5.000000
-5.000000
-5.000000
-5.000000
-5.000000
-5.000000
-4.999998
-4.999993
-4.999968
-4.999858
-4.999347
-4.996816
-4.983108
-4.910120
-4.524434
-2.170516
0.841566
86.123833
-5.000000
-5.000000
-5.000000
-5.000000
-5.000000
-5.000000
-5.000000
-5.000000
-5.000000
-5.000000
-5.000000
-5.000000
-5.000000
-5.000000
-5.000000
-5.000000
-5.000000
-5.000000
-5.000000
-5.000000
-5.000000
-5.000000
-5.000000
-4.999999
-4.999997
-4.999986
-4.999936
-4.999693
-4.998535
-4.992328
-4.978576
-4.833934
-5.000000
-5.000000
-5.000000
-5.000000
-5.000000
-5.000000
-5.000000
-5.000000
-5.000000
-5.000000
-5.000000
-5.000000
-5.000000
-5.000000
-5.000000
-5.000000
-5.000000
-5.000000
-5.000000
-5.000000
-5.000000
-5.000000
-5.000000
-5.000000
-5.000000
-5.000000
-5.000000
-4.999999
-4.999997
-4.999987
-4.999963
-4.999775
-5.000000
-5.000000
-5.000000
-5.000000
-5.000000
-5.000000
-5.000000
-5.000000
-5.000000
-5.000000
-5.000000
-5.000000
-5.000000
-5.000000
-5.000000
-5.000000
-5.000000
-5.000000
-5.000000
-5.000000
-5.000000
-5.000000
-5.000000
-5.000000
-5.000000
-5.000000
-5.000000
-5.000000
-5.000000
-5.000000
-5.000000
-5.000000
-5.000000
-5.000000
-5.000000
-5.000000
-5.000000
-5.000000
-5.000000
-5.000000
-5.000000
-5.000000
-5.000000
-5.000000
-5.000000
-5.000000
-5.000000
-5.000000
-5.000000
-5.000000
-5.000000
-5.000000
-5.000000
-5.000000
-5.000000
-5.000000
-5.000000
-5.000000
-5.000000
-5.000000
-5.000000
-5.000000
-5.000000
-5.000000
-5.000000
-5.000000
-5.000000
-5.000000
-5.000000
-5.000000
-5.000000
-5.000000
-5.000000
-5.000000
-5.000000
-5.000000
-5.000000
-5.000000
-5.000000
-5.000000
-5.000000
-5.000000
-5.000000
-5.000000
-5.000000
-5.000000
-5.000000
-5.000000
-5.000000
-5.000000
-5.000000
-5.000000
-5.000000
-5.000000
-5.000000
-5.000000
-5.000000
-5.000000
-5.000000
-5.000000
-5.000000
-5.000000
-5.000000
-5.000000
-5.000000
-5.000000
-5.000000
-5.000000
-5.000000
-5.000000
-5.000000
-5.000000
-5.000000
-5.000000
-5.000000
-5.000000
-5.000000
-5.000000
-5.000000
-5.000000
-5.000000
-5.000000
-5.000000
-5.000000
-5.000000
-5.000000
-5.000000
-5.000000
-5.000000
-5.000000
-5.000000
-5.000000
-5.000000
-5.000000
-5.000000
-5.000000
-5.000000
-5.000000
-5.000000
-5.000000
-5.000000
-5.000000
-5.000000
-5.000000
-5.000000
-5.000000
-5.000000
-5.000000
-5.000000
-5.000000
-5.000000
-5.000000
-5.000000
-5.000000
-5.000000
-5.000000
-5.000000
-5.000000
-5.000000
-5.000000
-5.000000
-5.000000
-5.000000
-5.000000
-5.000000
-5.000000
-5.000000
-5.000000
-5.000000
-5.000000
-5.000000
-5.000000
-5.000000
-5.000000
-5.000000
-5.000000
-5.000000
-5.000000
-5.000000
-5.000000
-5.000000
-5.000000
-5.000000
-5.000000
-5.000000
-5.000000
-5.000000
-5.000000
-5.000000
-5.000000
-5.000000
-5.000000
-5.000000
-5.000000
-5.000000
-5.000000
-5.000000
-5.000000
-5.000000
-5.000000
-5.000000
-5.000000
-5.000000
-5.000000
-5.000000
-5.000000
-5.000000
-5.000000
-5.000000
-5.000000
-5.000000
-5.000000
-5.000000
-5.000000
-5.000000
-5.000000
-5.000000
-5.000000
-5.000000
-5.000000
-5.000000
-5.000000
-5.000000
-5.000000
-5.000000
-5.000000
-5.000000
-5.000000
-5.000000
-5.000000
-5.000000
-5.000000
-5.000000
-5.000000
-5.000000
-5.000000
-5.000000
-5.000000
-5.000000
-5.000000
-5.000000
-5.000000
-5.000000
-5.000000
-5.000000
-5.000000
-5.000000
-5.000000
-5.000000
-5.000000
-5.000000
-5.000000
-5.000000
-5.000000
-5.000000
-5.000000
-5.000000
-5.000000
-5.000000
-5.000000
-5.000000
-5.000000
-5.000000
-5.000000
-5.000000
-5.000000
-5.000000
-5.000000
-5.000000
-5.000000
-5.000000
-5.000000
-5.000000
-5.000000
-5.000000
-5.000000
-5.000000
-5.000000
-5.000000
-5.000000
-5.000000
-5.000000
-5.000000
-5.000000
-5.000000
-5.000000
-5.000000
-5.000000
-5.000000
-5.000000
-5.000000
-5.000000
-5.000000
-5.000000
-5.000000
-5.000000
-5.000000
-5.000000
-5.000000
-5.000000
-5.000000
-5.000000
-5.000000
-5.000000
-5.000000
-5.000000
-5.000000
-5.000000
-5.000000
-5.000000
-5.000000
-5.000000
-5.000000
-5.000000
-5.000000
-5.000000
-5.000000
-5.000000
-5.000000
-5.000000
-5.000000
-5.000000
-5.000000
-5.000000
-5.000000
-5.000000
-5.000000
-5.000000
-5.000000
-5.000000
-5.000000
-5.000000
-5.000000
-5.000000
-5.000000
-5.000000
-5.000000
-5.000000