<?xml version='1.0' encoding='UTF-8'?>
<VTKFile xmlns='VTK' byte_order='LittleEndian' version='0.1' type='UnstructuredGrid'>
<UnstructuredGrid>
<Piece NumberOfCells='1816' NumberOfPoints='1816'>
<Points>
<DataArray NumberOfComponents='3' type='Float32' Name='Position' format='ascii'>
2.090000 0.400000 0.000000
2.090000 0.412500 0.000000
2.090000 0.425000 0.000000
2.090000 0.437500 0.000000
2.090000 0.450000 0.000000
2.090000 0.462500 0.000000
2.090000 0.475000 0.000000
2.090000 0.487500 0.000000
2.127500 0.400000 0.000000
2.127500 0.412500 0.000000
2.127500 0.425000 0.000000
2.127500 0.437500 0.000000
2.127500 0.450000 0.000000
2.127500 0.462500 0.000000
2.127500 0.475000 0.000000
2.127500 0.487500 0.000000
0.025000 0.000000 0.000000
0.025000 0.012500 0.000000
0.025000 0.025000 0.000000
0.025000 0.037500 0.000000
0.025000 0.050000 0.000000
0.025000 0.062500 0.000000
0.025000 0.075000 0.000000
0.025000 0.087500 0.000000
0.025000 0.100000 0.000000
0.025000 0.112500 0.000000
0.025000 0.125000 0.000000
0.025000 0.137500 0.000000
0.025000 0.150000 0.000000
0.025000 0.162500 0.000000
0.025000 0.175000 0.000000
0.025000 0.187500 0.000000
0.025000 0.200000 0.000000
0.025000 0.212500 0.000000
0.025000 0.225000 0.000000
0.025000 0.237500 0.000000
0.025000 0.250000 0.000000
0.025000 0.262500 0.000000
0.025000 0.275000 0.000000
0.025000 0.287500 0.000000
0.025000 0.300000 0.000000
0.025000 0.312500 0.000000
0.025000 0.325000 0.000000
0.025000 0.337500 0.000000
0.025000 0.350000 0.000000
0.025000 0.362500 0.000000
0.025000 0.375000 0.000000
0.025000 0.387500 0.000000
2.165000 0.400000 0.000000
2.165000 0.412500 0.000000
2.165000 0.425000 0.000000
2.165000 0.437500 0.000000
2.165000 0.450000 0.000000
2.165000 0.462500 0.000000
2.165000 0.475000 0.000000
2.165000 0.487500 0.000000
0.062500 0.000000 0.000000
0.062500 0.012500 0.000000
0.062500 0.025000 0.000000
0.062500 0.037500 0.000000
0.062500 0.050000 0.000000
0.062500 0.062500 0.000000
0.062500 0.075000 0.000000
0.062500 0.087500 0.000000
0.062500 0.100000 0.000000
0.062500 0.112500 0.000000
0.062500 0.125000 0.000000
0.062500 0.137500 0.000000
0.062500 0.150000 0.000000
0.062500 0.162500 0.000000
0.062500 0.175000 0.000000
0.062500 0.187500 0.000000
0.062500 0.200000 0.000000
0.062500 0.212500 0.000000
0.062500 0.225000 0.000000
0.062500 0.237500 0.000000
0.062500 0.250000 0.000000
0.062500 0.262500 0.000000
0.062500 0.275000 0.000000
0.062500 0.287500 0.000000
0.062500 0.300000 0.000000
0.062500 0.312500 0.000000
0.062500 0.325000 0.000000
0.062500 0.337500 0.000000
0.062500 0.350000 0.000000
0.062500 0.362500 0.000000
0.062500 0.375000 0.000000
0.062500 0.387500 0.000000
2.202500 0.400000 0.000000
2.202500 0.412500 0.000000
2.202500 0.425000 0.000000
2.202500 0.437500 0.000000
2.202500 0.450000 0.000000
2.202500 0.462500 0.000000
2.202500 0.475000 0.000000
2.202500 0.487500 0.000000
0.100000 0.000000 0.000000
0.100000 0.012500 0.000000
0.100000 0.025000 0.000000
0.100000 0.037500 0.000000
0.100000 0.050000 0.000000
0.100000 0.062500 0.000000
0.100000 0.075000 0.000000
0.100000 0.087500 0.000000
0.100000 0.100000 0.000000
0.100000 0.112500 0.000000
0.100000 0.125000 0.000000
0.100000 0.137500 0.000000
0.100000 0.150000 0.000000
0.100000 0.162500 0.000000
0.100000 0.175000 0.000000
0.100000 0.187500 0.000000
0.100000 0.200000 0.000000
0.100000 0.212500 0.000000
0.100000 0.225000 0.000000
0.100000 0.237500 0.000000
0.100000 0.250000 0.000000
0.100000 0.262500 0.000000
0.100000 0.275000 0.000000
0.100000 0.287500 0.000000
0.100000 0.300000 0.000000
0.100000 0.312500 0.000000
0.100000 0.325000 0.000000
0.100000 0.337500 0.000000
0.100000 0.350000 0.000000
0.100000 0.362500 0.000000
0.100000 0.375000 0.000000
0.100000 0.387500 0.000000
2.240000 0.400000 0.000000
2.240000 0.412500 0.000000
2.240000 0.425000 0.000000
2.240000 0.437500 0.000000
2.240000 0.450000 0.000000
2.240000 0.462500 0.000000
2.240000 0.475000 0.000000
2.240000 0.487500 0.000000
0.137500 0.000000 0.000000
0.137500 0.012500 0.000000
0.137500 0.025000 0.000000
0.137500 0.037500 0.000000
0.137500 0.050000 0.000000
0.137500 0.062500 0.000000
0.137500 0.075000 0.000000
0.137500 0.087500 0.000000
0.137500 0.100000 0.000000
0.137500 0.112500 0.000000
0.137500 0.125000 0.000000
0.137500 0.137500 0.000000
0.137500 0.150000 0.000000
0.137500 0.162500 0.000000
0.137500 0.175000 0.000000
0.137500 0.187500 0.000000
0.137500 0.200000 0.000000
0.137500 0.212500 0.000000
0.137500 0.225000 0.000000
0.137500 0.237500 0.000000
0.137500 0.250000 0.000000
0.137500 0.262500 0.000000
0.137500 0.275000 0.000000
0.137500 0.287500 0.000000
0.137500 0.300000 0.000000
0.137500 0.312500 0.000000
0.137500 0.325000 0.000000
0.137500 0.337500 0.000000
0.137500 0.350000 0.000000
0.137500 0.362500 0.000000
0.137500 0.375000 0.000000
0.137500 0.387500 0.000000
2.277500 0.400000 0.000000
2.277500 0.412500 0.000000
2.277500 0.425000 0.000000
2.277500 0.437500 0.000000
2.277500 0.450000 0.000000
2.277500 0.462500 0.000000
2.277500 0.475000 0.000000
2.277500 0.487500 0.000000
0.175000 0.000000 0.000000
0.175000 0.012500 0.000000
0.175000 0.025000 0.000000
0.175000 0.037500 0.000000
0.175000 0.050000 0.000000
0.175000 0.062500 0.000000
0.175000 0.075000 0.000000
0.175000 0.087500 0.000000
0.175000 0.100000 0.000000
0.175000 0.112500 0.000000
0.175000 0.125000 0.000000
0.175000 0.137500 0.000000
0.175000 0.150000 0.000000
0.175000 0.162500 0.000000
0.175000 0.175000 0.000000
0.175000 0.187500 0.000000
0.175000 0.200000 0.000000
0.175000 0.212500 0.000000
0.175000 0.225000 0.000000
0.175000 0.237500 0.000000
0.175000 0.250000 0.000000
0.175000 0.262500 0.000000
0.175000 0.275000 0.000000
0.175000 0.287500 0.000000
0.175000 0.300000 0.000000
0.175000 0.312500 0.000000
0.175000 0.325000 0.000000
0.175000 0.337500 0.000000
0.175000 0.350000 0.000000
0.175000 0.362500 0.000000
0.175000 0.375000 0.000000
0.175000 0.387500 0.000000
2.315000 0.400000 0.000000
2.315000 0.412500 0.000000
2.315000 0.425000 0.000000
2.315000 0.437500 0.000000
2.315000 0.450000 0.000000
2.315000 0.462500 0.000000
2.315000 0.475000 0.000000
2.315000 0.487500 0.000000
0.212500 0.000000 0.000000
0.212500 0.012500 0.000000
0.212500 0.025000 0.000000
0.212500 0.037500 0.000000
0.212500 0.050000 0.000000
0.212500 0.062500 0.000000
0.212500 0.075000 0.000000
0.212500 0.087500 0.000000
0.212500 0.100000 0.000000
0.212500 0.112500 0.000000
0.212500 0.125000 0.000000
0.212500 0.137500 0.000000
0.212500 0.150000 0.000000
0.212500 0.162500 0.000000
0.212500 0.175000 0.000000
0.212500 0.187500 0.000000
0.212500 0.200000 0.000000
0.212500 0.212500 0.000000
0.212500 0.225000 0.000000
0.212500 0.237500 0.000000
0.212500 0.250000 0.000000
0.212500 0.262500 0.000000
0.212500 0.275000 0.000000
0.212500 0.287500 0.000000
0.212500 0.300000 0.000000
0.212500 0.312500 0.000000
0.212500 0.325000 0.000000
0.212500 0.337500 0.000000
0.212500 0.350000 0.000000
0.212500 0.362500 0.000000
0.212500 0.375000 0.000000
0.212500 0.387500 0.000000
2.352500 0.400000 0.000000
2.352500 0.412500 0.000000
2.352500 0.425000 0.000000
2.352500 0.437500 0.000000
2.352500 0.450000 0.000000
2.352500 0.462500 0.000000
2.352500 0.475000 0.000000
2.352500 0.487500 0.000000
0.250000 0.000000 0.000000
0.250000 0.012500 0.000000
0.250000 0.025000 0.000000
0.250000 0.037500 0.000000
0.250000 0.050000 0.000000
0.250000 0.062500 0.000000
0.250000 0.075000 0.000000
0.250000 0.087500 0.000000
0.250000 0.100000 0.000000
0.250000 0.112500 0.000000
0.250000 0.125000 0.000000
0.250000 0.137500 0.000000
0.250000 0.150000 0.000000
0.250000 0.162500 0.000000
0.250000 0.175000 0.000000
0.250000 0.187500 0.000000
0.250000 0.200000 0.000000
0.250000 0.212500 0.000000
0.250000 0.225000 0.000000
0.250000 0.237500 0.000000
0.250000 0.250000 0.000000
0.250000 0.262500 0.000000
0.250000 0.275000 0.000000
0.250000 0.287500 0.000000
0.250000 0.300000 0.000000
0.250000 0.312500 0.000000
0.250000 0.325000 0.000000
0.250000 0.337500 0.000000
0.250000 0.350000 0.000000
0.250000 0.362500 0.000000
0.250000 0.375000 0.000000
0.250000 0.387500 0.000000
2.390000 0.400000 0.000000
2.390000 0.412500 0.000000
2.390000 0.425000 0.000000
2.390000 0.437500 0.000000
2.390000 0.450000 0.000000
2.390000 0.462500 0.000000
2.390000 0.475000 0.000000
2.390000 0.487500 0.000000
0.287500 0.000000 0.000000
0.287500 0.012500 0.000000
0.287500 0.025000 0.000000
0.287500 0.037500 0.000000
0.287500 0.050000 0.000000
0.287500 0.062500 0.000000
0.287500 0.075000 0.000000
0.287500 0.087500 0.000000
0.287500 0.100000 0.000000
0.287500 0.112500 0.000000
0.287500 0.125000 0.000000
0.287500 0.137500 0.000000
0.287500 0.150000 0.000000
0.287500 0.162500 0.000000
0.287500 0.175000 0.000000
0.287500 0.187500 0.000000
0.287500 0.200000 0.000000
0.287500 0.212500 0.000000
0.287500 0.225000 0.000000
0.287500 0.237500 0.000000
0.287500 0.250000 0.000000
0.287500 0.262500 0.000000
0.287500 0.275000 0.000000
0.287500 0.287500 0.000000
0.287500 0.300000 0.000000
0.287500 0.312500 0.000000
0.287500 0.325000 0.000000
0.287500 0.337500 0.000000
0.287500 0.350000 0.000000
0.287500 0.362500 0.000000
0.287500 0.375000 0.000000
0.287500 0.387500 0.000000
2.427500 0.400000 0.000000
2.427500 0.412500 0.000000
2.427500 0.425000 0.000000
2.427500 0.437500 0.000000
2.427500 0.450000 0.000000
2.427500 0.462500 0.000000
2.427500 0.475000 0.000000
2.427500 0.487500 0.000000
0.325000 0.000000 0.000000
0.325000 0.012500 0.000000
0.325000 0.025000 0.000000
0.325000 0.037500 0.000000
0.325000 0.050000 0.000000
0.325000 0.062500 0.000000
0.325000 0.075000 0.000000
0.325000 0.087500 0.000000
0.325000 0.100000 0.000000
0.325000 0.112500 0.000000
0.325000 0.125000 0.000000
0.325000 0.137500 0.000000
0.325000 0.150000 0.000000
0.325000 0.162500 0.000000
0.325000 0.175000 0.000000
0.325000 0.187500 0.000000
0.325000 0.200000 0.000000
0.325000 0.212500 0.000000
0.325000 0.225000 0.000000
0.325000 0.237500 0.000000
0.325000 0.250000 0.000000
0.325000 0.262500 0.000000
0.325000 0.275000 0.000000
[...]
<PointData>
<DataArray NumberOfComponents='1' type='Int32' Name='ParticleType' format='ascii'>
5
5
5
5
5
5
5
5
5
5
5
5
5
5
5
5
2
2
2
2
2
2
2
2
2
2
2
2
2
2
2
2
2
2
2
2
2
2
2
2
1
1
0
0
0
0
0
0
5
5
5
5
5
5
5
5
2
2
2
2
2
2
2
2
2
2
2
2
2
2
2
2
2
2
2
2
2
2
2
1
1
0
0
0
0
0
0
0
5
5
5
5
5
5
5
5
2
2
2
2
2
2
2
2
2
2
2
2
2
2
2
2
2
2
2
2
2
2
2
1
1
0
0
0
0
0
0
0
5
5
5
5
5
5
5
5
2
2
2
2
2
2
2
2
2
2
2
2
2
2
2
2
2
2
2
2
2
2
2
1
1
0
0
0
0
0
0
0
5
5
5
5
5
5
5
5
2
2
2
2
2
2
2
2
2
2
2
2
2
2
2
2
2
2
2
2
2
2
1
1
0
0
0
0
0
0
0
0
5
5
5
5
5
5
5
5
2
2
2
2
2
2
2
2
2
2
2
2
2
2
2
2
2
2
2
2
2
2
1
1
0
0
0
0
0
0
0
0
5
5
5
5
5
5
5
5
2
2
2
2
2
2
2
2
2
2
2
2
2
2
2
2
2
2
2
2
2
2
1
1
0
0
0
0
0
0
0
0
5
5
5
5
5
5
5
5
2
2
2
2
2
2
2
2
2
2
2
2
2
2
2
2
2
2
2
2
2
2
1
1
0
0
0
0
0
0
0
0
5
5
5
5
5
5
5
5
2
2
2
2
2
2
2
2
2
2
2
2
2
2
2
2
2
2
2
2
2
2
1
1
0
0
0
0
0
0
0
0
5
5
5
5
5
5
5
5
2
2
2
2
2
2
2
2
2
2
2
2
2
2
2
2
2
2
2
2
2
2
1
1
0
0
0
0
0
0
0
0
5
5
5
5
5
5
5
5
2
2
2
2
2
2
2
2
2
2
2
2
2
2
2
2
2
2
2
2
2
2
1
1
0
0
0
0
0
0
0
0
5
5
5
5
5
5
5
5
2
2
2
2
2
2
2
2
2
2
2
2
2
2
2
2
2
2
2
2
2
2
1
1
0
0
0
0
0
0
0
0
5
5
5
5
5
5
5
5
2
2
2
2
2
2
2
2
2
2
2
2
2
2
2
2
2
2
2
2
2
2
1
0
0
0
0
0
0
0
0
0
5
5
5
5
5
5
5
5
2
2
2
2
2
2
2
2
2
2
2
2
2
2
2
2
2
2
2
2
2
1
1
0
0
0
0
0
0
0
0
0
2
2
2
2
2
2
2
2
2
2
2
2
2
2
2
2
2
2
2
2
2
2
1
0
0
0
0
0
0
0
0
0
2
2
2
2
2
2
2
2
2
2
2
2
2
2
2
2
2
2
2
2
2
2
1
1
0
0
0
0
0
0
0
0
2
2
2
2
2
2
2
2
2
2
2
2
2
2
2
2
2
2
2
2
2
2
1
1
0
0
0
0
0
0
0
0
2
2
2
2
2
2
2
2
2
2
2
2
2
2
2
2
2
2
2
2
2
2
1
1
0
0
0
0
0
0
0
0
2
2
2
2
2
2
2
2
2
2
2
2
2
2
2
2
2
2
2
2
2
2
1
1
0
0
0
0
0
0
0
0
2
2
2
2
2
2
2
2
2
2
2
2
2
2
2
2
2
2
2
2
2
2
1
1
0
0
0
0
0
0
0
0
2
2
2
2
2
2
2
2
2
2
2
2
2
2
2
2
2
2
2
2
2
2
1
1
0
0
0
0
0
0
0
0
2
2
2
2
2
2
2
2
2
2
2
2
2
2
2
2
2
2
2
2
2
2
1
1
0
0
0
0
0
0
0
0
2
2
2
2
2
2
2
2
2
2
2
2
2
2
2
2
2
2
2
2
2
2
1
1
0
0
0
0
0
0
0
0
2
2
2
2
2
2
2
2
2
2
2
2
2
2
2
2
2
2
2
2
2
2
1
1
0
0
0
0
0
0
0
0
2
2
2
2
2
2
2
2
2
2
2
2
2
2
2
2
2
2
2
2
2
2
1
1
0
0
0
0
0
0
0
0
2
2
2
2
2
2
2
2
2
2
2
2
2
2
2
2
2
2
2
2
2
2
1
1
0
0
0
0
0
0
0
0
2
2
2
2
2
2
2
2
2
2
2
2
2
2
2
2
2
2
2
2
2
2
1
1
0
0
0
0
0
0
0
0
2
2
2
2
2
2
2
2
2
2
2
2
2
2
2
2
2
2
2
2
2
2
2
1
0
0
0
0
0
0
0
0
2
2
2
2
2
2
2
2
2
2
2
2
2
2
2
2
2
2
2
2
2
2
2
1
1
0
0
0
0
0
0
0
2
2
2
2
2
2
2
2
2
2
2
2
2
2
2
2
2
2
2
2
2
2
2
1
1
0
0
0
0
0
0
0
2
2
2
2
2
2
2
2
2
2
2
2
2
2
2
2
2
2
2
2
2
2
2
1
1
0
0
0
0
0
0
0
2
2
2
2
2
2
2
2
2
2
2
2
2
2
2
2
2
2
2
2
2
2
2
1
1
0
0
0
0
0
0
0
2
2
2
2
2
2
2
2
2
2
2
2
2
2
2
2
2
2
2
2
2
2
2
1
1
0
0
0
0
0
0
0
2
2
2
2
2
2
2
2
2
2
2
2
2
2
2
2
2
2
2
2
2
2
2
1
1
0
0
0
0
0
0
0
2
2
2
2
2
2
2
2
2
2
2
2
2
2
2
2
2
2
2
2
2
2
2
1
1
0
0
0
0
0
0
0
2
2
2
2
2
2
2
2
2
2
2
2
2
2
2
2
2
2
2
2
2
2
2
1
1
0
0
0
0
0
0
0
2
2
2
2
2
2
2
2
2
2
2
2
2
2
2
2
2
2
2
2
2
2
2
1
1
0
0
0
0
0
0
0
2
2
2
2
2
2
2
2
2
2
2
2
2
2
2
2
2
2
2
2
2
2
2
1
1
0
0
0
0
0
0
0
2
2
2
2
2
2
2
2
2
2
2
2
2
2
2
2
2
2
2
2
2
2
2
2
1
1
0
0
0
0
0
0
2
2
2
2
2
2
2
2
2
2
2
2
2
2
2
2
2
2
2
2
2
2
2
2
1
0
0
0
0
0
0
0
2
2
2
2
2
2
2
2
2
2
2
2
2
2
2
2
2
2
2
2
2
2
2
1
1
0
0
0
0
0
0
0
2
2
2
2
2
2
2
2
2
2
2
2
2
2
2
2
2
2
2
2
2
2
2
2
1
1
0
0
0
0
0
0
2
2
2
2
2
2
2
2
2
2
2
2
2
2
2
2
2
2
2
2
2
2
2
2
1
1
0
0
0
0
0
0
2
2
2
2
2
2
2
2
2
2
2
2
2
2
2
2
2
2
2
2
2
2
2
2
1
1
0
0
0
0
0
0
2
2
2
2
2
2
2
2
2
2
2
2
2
2
2
2
2
2
2
2
2
2
2
2
1
1
0
0
0
0
0
0
2
2
2
2
2
2
2
2
2
2
2
2
2
2
2
2
2
2
2
2
2
2
2
2
1
1
0
0
0
0
0
0
2
2
2
2
2
2
2
2
2
2
2
2
2
2
2
2
2
2
2
2
2
2
2
2
1
1
0
0
0
0
0
0
2
2
2
2
2
2
2
2
2
2
2
2
2
2
2
2
2
2
2
2
2
2
2
2
1
1
0
0
0
0
0
0
2
2
2
2
2
2
2
2
2
2
2
2
2
2
2
2
2
2
2
2
2
2
2
2
1
1
0
0
0
0
0
0
2
2
2
2
2
2
2
2
2
2
2
2
2
2
2
2
2
2
2
2
2
2
2
2
2
1
0
0
0
0
0
0
2
2
2
2
2
2
2
2
2
2
2
2
2
2
2
2
2
2
2
2
2
2
2
2
2
1
0
0
0
0
0
0
2
2
2
2
2
2
2
2
2
2
2
2
2
2
2
2
2
2
2
2
2
2
2
2
2
1
1
0
0
0
0
0
2
2
2
2
2
2
2
2
2
2
2
2
2
2
2
2
2
2
2
2
2
2
2
2
2
1
1
0
0
0
0
0
</DataArray>
<DataArray NumberOfComponents='1' type='Float32' Name='Temperature' format='ascii'>
-3.000000
-3.000000
-3.000000
-3.000000
-3.000000
-3.000000
-3.000000
-3.000000
-3.000000
-3.000000
-3.000000
-3.000000
-3.000000
-3.000000
-3.000000
-3.000000
-4.845735
-4.834622
-4.816713
-4.789132
-4.751266
-4.702183
-4.640745
-4.565643
-4.475418
-4.368499
-4.243236
-4.097940
-3.930934
-3.740605
-3.525463
-3.284222
-3.015889
-2.719879
-2.396156
-2.045384
-1.669139
-1.269768
-0.853319
-0.410061
-0.005534
0.003749
11.754235
24.533360
39.387778
54.169951
66.181306
75.132078
-3.000000
-3.000000
-3.000000
-3.000000
-3.000000
-3.000000
-3.000000
-3.000000
-4.840236
-4.828669
-4.810019
-4.781286
-4.741815
-4.690615
-4.626476
-4.548005
-4.453657
-4.341772
-4.210628
-4.058491
-3.883672
-3.684579
-3.459748
-3.207827
-2.927493
-2.617288
-2.275396
-1.899549
-1.487367
-1.037658
-0.554412
-0.006746
0.000477
6.865634
22.173992
40.739309
61.703626
82.354346
99.152340
111.717145
-3.000000
-3.000000
-3.000000
-3.000000
-3.000000
-3.000000
-3.000000
-3.000000
-4.836976
-4.825145
-4.806068
-4.776675
-4.736293
-4.683905
-4.618271
-4.537962
-4.441390
-4.326850
-4.192556
-4.036691
-3.857446
-3.653052
-3.421809
-3.162103
-2.872442
-2.551524
-2.198413
-1.812867
-1.395529
-0.950769
-0.471111
-0.004627
-0.000092
11.807649
30.384479
54.067320
81.063331
107.878720
129.787147
146.230833
-3.000000
-3.000000
-3.000000
-3.000000
-3.000000
-3.000000
-3.000000
-3.000000
-4.832966
-4.820735
-4.801007
-4.770594
-4.728781
-4.674488
-4.606393
-4.522966
-4.422498
-4.303139
-4.162946
-3.999941
-3.812180
-3.597839
-3.355308
-3.083304
-2.780999
-2.448154
-2.085264
-1.693788
-1.275626
-0.839518
-0.354420
-0.006550
0.008895
20.497540
42.773402
71.069569
103.231669
135.427892
161.886626
181.853816
-3.000000
-3.000000
-3.000000
-3.000000
-3.000000
-3.000000
-3.000000
-3.000000
-4.830332
-4.817823
-4.797635
-4.766493
-4.723644
-4.667953
-4.598030
-4.512271
-4.408891
-4.285968
-4.141506
-3.973494
-3.779977
-3.559109
-3.309170
-3.028503
-2.715348
-2.367574
-1.982470
-1.556940
-1.089001
-0.580821
-0.006852
-0.002839
7.962485
27.611839
53.332969
85.910195
123.100043
160.570052
191.520731
214.982631
-3.000000
-3.000000
-3.000000
-3.000000
-3.000000
-3.000000
-3.000000
-3.000000
-4.829513
-4.816953
-4.796682
-4.765412
-4.722384
-4.666456
-4.596231
-4.510092
-4.406241
-4.282744
-4.137594
-3.968779
-3.774366
-3.552576
-3.301839
-3.020778
-2.708064
-2.362082
-1.980430
-1.559612
-1.095675
-0.589650
-0.006442
-0.000969
7.593084
30.946360
60.507491
98.031823
140.988385
184.388247
220.305236
247.578874
-3.000000
-3.000000
-3.000000
-3.000000
-3.000000
-3.000000
-3.000000
-3.000000
-4.828146
-4.815472
-4.795021
-4.763476
-4.720079
-4.663684
-4.592893
-4.506090
-4.401477
-4.277122
-4.131015
-3.961133
-3.765507
-3.542274
-3.289701
-3.006136
-2.689887
-2.339038
-1.951372
-1.524571
-1.058388
-0.550500
-0.005383
-0.001991
10.016558
35.280012
68.420255
110.549526
158.808119
207.598428
248.029889
278.792589
-3.000000
-3.000000
-3.000000
-3.000000
-3.000000
-3.000000
-3.000000
-3.000000
-4.826739
-4.813934
-4.793271
-4.761402
-4.717560
-4.660592
-4.589087
-4.501415
-4.395759
-4.270158
-4.122550
-3.950828
-3.752878
-3.526617
-3.270013
-2.981099
-2.658016
-2.299138
-1.903404
-1.470515
-1.004616
-0.493736
-0.009192
-0.000276
14.158130
40.406047
76.711462
123.187427
176.668629
230.877732
275.899991
310.242725
-3.000000
-3.000000
-3.000000
-3.000000
-3.000000
-3.000000
-3.000000
-3.000000
-4.825697
-4.812769
-4.791902
-4.759707
-4.715395
-4.657775
-4.585382
-4.496509
-4.389227
-4.261420
-4.110822
-3.935067
-3.731760
-3.498560
-3.233308
-2.934185
-2.599923
-2.230047
-1.825210
-1.386783
-0.922940
-0.404512
-0.003881
0.004359
20.693004
47.261922
85.599097
135.394767
193.412092
252.618966
301.997684
339.795912
-3.000000
-3.000000
-3.000000
-3.000000
-3.000000
-3.000000
-3.000000
-3.000000
-4.824675
-4.811617
-4.790539
-4.758015
-4.713249
-4.655043
-4.581930
-4.492211
-4.383983
-4.255177
-4.103599
-3.926984
-3.723052
-3.489580
-3.224507
-2.926059
-2.592940
-2.224551
-1.821328
-1.384329
-0.921556
-0.402065
-0.006383
0.003876
21.328816
51.046053
93.054408
147.218346
210.199022
274.601192
328.462483
369.827147
-3.000000
-3.000000
-3.000000
-3.000000
-3.000000
-3.000000
-3.000000
-3.000000
-4.823601
-4.810398
-4.789082
-4.756182
-4.710884
-4.651959
-4.577908
-4.486989
-4.377250
-4.246573
-4.092715
-3.913376
-3.706269
-3.469214
-3.200261
-2.897840
-2.560943
-2.189328
-1.783814
-1.345621
-0.884106
-0.359096
-0.003096
0.008744
24.779854
56.388784
101.023640
158.693548
226.084082
295.315896
353.432809
398.229531
-3.000000
-3.000000
-3.000000
-3.000000
-3.000000
-3.000000
-3.000000
-3.000000
-4.822900
-4.809647
-4.788247
-4.755213
-4.709717
-4.650517
-4.576084
-4.484641
-4.374190
-4.242555
-4.087435
-3.906476
-3.697356
-3.457900
-3.186220
-2.880878
-2.541072
-2.166817
-1.759218
-1.319614
-0.858459
-0.328161
-0.003457
0.008414
27.531441
60.513235
107.479868
168.723580
240.870447
315.389628
378.172894
426.728017
-3.000000
-3.000000
-3.000000
-3.000000
-3.000000
-3.000000
-3.000000
-3.000000
-4.818844
-4.805361
-4.783602
-4.750036
-4.703852
-4.643823
-4.568445
-4.475974
-4.364453
-4.231756
-4.075642
-3.893818
-3.684029
-3.444160
-3.172366
-2.867210
-2.527775
-2.153630
-1.744353
-1.296170
-0.809856
-0.145086
-0.006540
3.163181
28.832989
63.862494
113.854409
178.926873
255.510698
334.706041
401.577982
453.462617
-3.000000
-3.000000
-3.000000
-3.000000
-3.000000
-3.000000
-3.000000
-3.000000
-4.815684
-4.802050
-4.780045
-4.746099
-4.699387
-4.638660
-4.562387
-4.468785
-4.355854
-4.221423
-4.063209
-3.878897
-3.666228
-3.423104
-3.147664
-2.838279
-2.493308
-2.110359
-1.685002
-1.207978
-0.677488
-0.005644
-0.004027
6.351643
32.782556
69.173873
121.193935
189.231889
269.677690
353.127428
423.758341
478.709532
-4.824057
-4.810819
-4.789446
-4.756460
-4.711042
-4.651960
-4.577697
-4.486487
-4.376344
-4.245095
-4.090438
-3.909998
-3.701420
-3.462463
-3.191134
-2.885817
-2.545370
-2.169007
-1.755626
-1.299852
-0.800842
-0.100488
-0.001467
3.622466
29.760672
66.061901
118.479841
187.493141
269.519618
355.092787
427.891445
484.847981
-4.839508
-4.826991
-4.806758
-4.775489
-4.732357
-4.676128
-4.605286
-4.518062
-4.412465
-4.286312
-4.137273
-3.962919
-3.760781
-3.528427
-3.263560
-2.964156
-2.628646
-2.256146
-1.846809
-1.401294
-0.928267
-0.389327
-0.006518
0.008611
24.407668
59.952482
112.116120
181.792453
265.443772
353.485779
428.902243
488.310497
-4.847543
-4.835266
-4.815401
-4.784659
-4.742182
-4.686693
-4.616615
-4.530102
-4.425062
-4.299187
-4.150002
-3.974917
-3.771307
-3.536617
-3.268490
-2.964954
-2.624626
-2.246957
-1.832567
-1.382519
-0.906934
-0.360451
-0.005866
0.008462
27.219619
62.507141
114.540023
184.368541
268.792525
358.252927
435.349152
496.496572
-4.861037
-4.849375
-4.830473
-4.801163
-4.760551
-4.707322
-4.639842
-4.556189
-4.454167
-4.331342
-4.185079
-4.012610
-3.811109
-3.577815
-3.310180
-3.006073
-2.664018
-2.283457
-1.865101
-1.410265
-0.928979
-0.379341
-0.006503
0.007001
26.072208
59.717048
110.378004
179.822650
265.255065
356.973295
436.743009
500.549609
-4.868607
-4.857256
-4.838842
-4.810266
-4.770633
-4.718630
-4.652633
-4.570730
-4.470746
-4.350270
-4.206693
-4.037257
-3.839117
-3.609432
-3.345484
-3.044853
-2.705653
-2.326812
-1.908487
-1.451598
-0.965111
-0.412810
-0.007465
0.008226
24.075616
58.347597
109.985014
180.660502
267.597510
361.246912
443.082725
508.977562
-4.881205
-4.870509
-4.853128
-4.826096
-4.788496
-4.738990
-4.675912
-4.597292
-4.500870
-4.384122
-4.244289
-4.078428
-3.883472
-3.656321
-3.393981
-3.093756
-2.753507
-2.371986
-1.949281
-1.486454
-0.992345
-0.434352
-0.007069
0.005069
22.986414
55.408600
105.497269
175.701433
263.699796
359.815363
444.623777
513.541619
-4.888065
-4.877669
-4.860762
-4.834440
-4.797784
-4.749455
-4.687793
-4.610838
-4.516351
-4.401845
-4.264612
-4.101772
-3.910315
-3.687163
-3.429250
-3.133645
-2.797763
-2.419672
-1.998590
-1.534818
-1.035601
-0.475306
-0.008142
0.006645
20.487067
53.890126
105.056763
176.487378
265.961215
364.068007
451.111497
522.398416
-4.899646
-4.889924
-4.874083
-4.849361
-4.814825
-4.769118
-4.710552
-4.637119
-4.546505
-4.436117
-4.303102
-4.144390
-3.956733
-3.736763
-3.481083
-3.186409
-2.849810
-2.469065
-2.043228
-1.572672
-1.064603
-0.496610
-0.007700
0.003006
19.612014
50.879017
100.273552
171.110634
261.681048
362.468184
452.813082
527.547560
-4.905816
-4.896385
-4.881000
-4.856963
-4.823334
-4.778753
-4.721530
-4.649658
-4.560838
-4.452500
-4.321848
-4.165902
-3.981549
-3.765580
-3.514735
-3.225733
-2.895352
-2.520619
-2.099287
-1.630206
-1.117818
-0.548056
-0.008707
0.005036
16.448190
49.245329
99.820309
171.852471
263.840815
366.670898
459.440862
536.885950
-4.916342
-4.907596
-4.893298
-4.870901
-4.839459
-4.797606
-4.743635
-4.675506
-4.590858
-4.487031
-4.361093
-4.209881
-4.030035
-3.818038
-3.570247
-3.282941
-2.952425
-2.575276
-2.148904
-1.672080
-1.149269
-0.568977
-0.008223
0.000913
15.890118
46.160442
94.711883
166.015383
259.131249
364.870101
461.308228
542.702961
-4.921851
-4.913386
-4.899530
-4.877795
-4.847225
-4.806454
-4.753766
-4.687116
-4.604141
-4.502184
-4.378338
-4.229499
-4.052439
-3.843876
-3.600537
-3.319161
-2.996417
-2.628740
-2.212236
-1.742928
-1.219405
-0.638407
-0.009130
0.003502
11.832087
44.477625
94.292938
166.721023
261.163388
368.985718
468.062868
552.586705
-4.931302
-4.923525
-4.910766
-4.890693
-4.862357
-4.824394
-4.775090
-4.712380
-4.633859
-4.536797
-4.418169
-4.274701
-4.102933
-3.899274
-3.660052
-3.381497
-3.059658
-2.690259
-2.268724
-1.790642
-1.254642
-0.659088
-0.008652
-0.001090
11.733648
41.305691
88.823114
160.378236
255.972720
366.944484
470.097480
559.168928
-4.936257
-4.928759
-4.916437
-4.897018
-4.869546
-4.832652
-4.784614
-4.723363
-4.646486
-4.551248
-4.434621
-4.293338
-4.123971
-3.923036
-3.687130
-3.413090
-3.098127
-2.739818
-2.335640
-1.881608
-1.367234
-0.789283
-0.009262
0.002231
6.137878
39.636902
88.483601
161.054181
257.849013
370.929017
476.960319
569.676452
-4.945152
-4.938391
-4.927251
-4.909637
-4.884611
-4.850837
-4.806623
-4.749924
-4.678343
-4.589142
-4.479260
-4.345360
-4.183882
-3.991132
-3.763407
-3.497155
-3.189201
-2.837020
-2.439055
-1.995154
-1.505629
-0.981507
-0.353990
-0.001057
0.932867
33.701112
81.420451
153.768069
252.116580
368.671879
479.216227
577.174059
-4.951273
-4.944991
-4.934615
-4.918160
-4.894694
-4.862884
-4.821039
-4.767102
-4.698643
-4.612867
-4.506622
-4.376437
-4.218577
-4.029125
-3.804115
-3.539711
-3.232460
-2.879604
-2.479447
-2.031856
-1.537476
-1.008333
-0.388477
-0.005190
0.007174
33.083337
79.248828
150.903191
250.080939
369.466173
484.100880
587.216338
-4.954684
-4.948603
-4.938540
-4.922550
-4.899690
-4.868618
-4.827629
-4.774652
-4.707242
-4.622589
-4.517530
-4.388584
-4.232008
-4.043873
-3.820186
-3.557057
-3.250932
-2.898895
-2.499036
-2.050966
-1.555103
-1.023033
-0.400540
-0.004434
0.007610
32.527010
79.162981
151.339460
251.474986
373.070844
491.075540
598.902648
-4.961313
-4.955878
-4.946857
-4.932472
-4.911813
-4.883586
-4.846137
-4.797446
-4.735112
-4.656356
-4.558033
-4.436649
-4.288407
-4.109258
-3.894979
-3.641291
-3.344026
-2.999395
-2.604384
-2.157373
-1.657994
-1.115016
-0.491623
-0.007343
0.003836
26.300496
71.145978
142.751454
244.488032
370.052242
493.426786
607.933647
-4.964739
-4.959549
-4.950912
-4.937099
-4.917186
-4.889863
-4.853451
-4.805894
-4.744744
-4.667161
-4.569919
-4.449436
-4.301810
-4.122881
-3.908319
-3.653752
-3.354952
-3.008127
-2.610315
-2.160011
-1.656936
-1.110410
-0.480427
-0.005015
0.008552
27.601768
72.641394
144.128171
246.115894
373.554929
500.464106
620.521144
-4.970397
-4.965827
-4.958197
-4.945943
-4.928187
-4.903677
-4.870800
-4.827563
-4.771579
-4.700051
-4.609785
-4.497205
-4.358395
-4.189151
-3.985042
-3.741478
-3.453789
-3.117345
-2.727813
-2.281731
-1.776933
-1.218408
-0.585535
-0.004473
0.001156
20.610156
64.147979
134.949209
238.487351
370.104410
502.927018
630.836105
-4.973318
-4.968988
-4.961734
-4.950043
-4.933024
-4.909413
-4.877574
-4.835483
-4.780701
-4.710372
-4.621219
-4.509570
-4.371395
-4.202359
-3.997894
-3.753276
-3.463730
-3.124603
-2.731671
-2.281760
-1.773063
-1.211514
-0.572649
-0.005686
0.006748
22.121449
65.769985
136.253101
239.742516
373.167342
509.879049
644.489079
-4.977971
-4.974218
-4.967905
-4.957683
-4.942718
-4.921817
-4.893427
-4.855608
-4.806003
-4.741815
-4.659809
-4.556320
-4.427300
-4.268381
-4.074977
-3.842372
-3.565796
-3.240397
-2.861118
-2.422578
-1.919242
-1.348477
-0.704474
-0.004914
-0.001502
14.176715
56.857859
126.478857
231.407398
369.189080
512.392510
656.309160
-4.980409
-4.976886
-4.970937
-4.961262
-4.947019
-4.927006
-4.899651
-4.862983
-4.814595
-4.751629
-4.670763
-4.568233
-4.439870
-4.281175
-4.087404
-3.853665
-3.574974
-3.246254
-2.862311
-2.417961
-1.908442
-1.333420
-0.683740
-0.006206
0.004958
15.981900
58.652477
127.734731
232.233905
371.690798
519.155013
671.236004
-4.984128
-4.981127
-4.976037
-4.967717
-4.955389
-4.937937
-4.913892
-4.881390
-4.838134
-4.781359
-4.707812
-4.613750
-4.494966
-4.346857
-4.164531
-3.942976
-3.677275
-3.362850
-2.995619
-2.571735
-2.086372
-1.527716
-0.892278
-0.005154
-0.003789
6.813935
49.430939
117.366720
223.115669
367.063511
521.620025
684.830489
-4.986116
-4.983334
-4.978591
-4.970797
-4.959171
-4.942592
-4.919576
-4.888232
-4.846217
-4.790698
-4.718330
-4.625258
-4.507143
-4.359242
-4.176525
-3.953854
-3.686181
-3.368721
-2.996913
-2.565835
-2.068898
-1.494606
-0.839831
-0.006525
0.003363
8.999628
51.438120
118.608489
223.453358
368.854845
528.044365
701.294291
-4.988989
-4.986666
-4.982687
-4.976109
-4.966224
-4.952012
-4.932106
-4.904748
-4.867734
-4.818367
-4.753418
-4.669109
-4.561114
-4.424603
-4.254327
-4.044757
-3.790312
-3.485657
-3.126115
-2.708155
-2.230085
-1.691144
-1.105381
-0.398667
-0.005338
0.009552
42.083856
107.651361
213.464841
363.431286
530.311333
716.997222
-4.990564
-4.988444
-4.984791
-4.978710
-4.969499
-4.956136
-4.937249
-4.911056
-4.875312
-4.827251
-4.763546
-4.680289
-4.572996
-4.436657
-4.265840
-4.054861
-3.798035
-3.490020
-3.126251
-2.703432
-2.220218
-1.676089
-1.085634
-0.361572
0.002290
0.889825
44.362922
108.937942
213.254810
364.331551
536.186758
735.332835
-4.992692
-4.990961
-4.987960
-4.982933
-4.975254
-4.964010
-4.947958
-4.925470
-4.894463
-4.852340
-4.795935
-4.721472
-4.624554
-4.500175
-4.342775
-4.146329
-3.904466
-3.610570
-3.257725
-2.838165
-2.341665
-1.749151
-1.050772
-0.009814
-0.006288
6.851948
34.997065
97.498580
202.413662
357.991956
538.060428
753.576791
-4.993856
-4.992296
-4.989573
-4.984971
-4.977869
-4.967356
-4.952180
-4.930684
-4.900737
-4.859658
-4.804163
-4.730315
-4.633517
-4.508534
-4.349573
-4.150429
-3.904713
-3.606195
-3.249267
-2.829538
-2.344654
-1.793770
-1.189602
-0.471099
-0.002439
0.007414
37.670150
98.953998
201.641089
357.811893
543.104046
774.221931
-4.995121
-4.993800
-4.991478
-4.987519
-4.981345
-4.972100
-4.958595
-4.939238
-4.911949
-4.874087
-4.822368
-4.752809
-4.660703
-4.540627
-4.386513
-4.191799
-3.949672
-3.653444
-3.297083
-2.875885
-2.387389
-1.831023
-1.219372
-0.496757
0.001340
0.006015
36.122992
94.721730
195.724929
353.953550
546.292854
796.680798
-4.996219
-4.995129
-4.993194
-4.989866
-4.984618
-4.976664
-4.964897
-4.947819
-4.923450
-4.889241
-4.841993
-4.777787
-4.691954
-4.579067
-4.433004
-4.247059
-4.014142
-3.727077
-3.379056
-2.964290
-2.478981
-1.921479
-1.301706
-0.577831
-0.007808
0.004670
31.057367
88.569001
188.409190
348.758630
547.989171
819.005559
-4.997134
-4.996250
-4.994669
-4.991920
-4.987532
-4.980791
-4.970680
-4.955798
-4.934268
-4.903636
-4.860771
-4.801787
-4.721975
-4.615793
-4.476891
-4.298209
-4.072157
-3.790902
-3.446825
-3.033215
-2.545346
-1.980964
-1.348958
-0.614800
0.001714
0.002864
28.871825
83.611540
181.287221
343.242153
549.690003
844.984506
-4.997864
-4.997160
-4.995887
-4.993650
-4.990031
-4.984392
-4.975808
-4.962986
-4.944165
-4.917010
-4.878496
-4.824823
-4.751339
-4.652522
-4.522017
-4.352734
-4.137009
-3.866806
-3.533999
-3.130788
-2.650517
-2.088540
-1.449012
-0.712075
-0.008644
0.001567
23.145351
77.292251
173.162667
336.508678
549.711896
871.064671
-4.998448
-4.997899
-4.996897
-4.995114
-4.992186
-4.987553
-4.980385
-4.969506