<?xml version='1.0' encoding='UTF-8'?>
<VTKFile xmlns='VTK' byte_order='LittleEndian' version='0.1' type='UnstructuredGrid'>
<UnstructuredGrid>
<Piece NumberOfCells='1888' NumberOfPoints='1888'>
<Points>
<DataArray NumberOfComponents='3' type='Float32' Name='Position' format='ascii'>
-0.040000 -0.030000 0.000000
-0.040000 -0.020000 0.000000
-0.040000 -0.010000 0.000000
-0.040000 0.000000 0.000000
-0.040000 0.010000 0.000000
-0.040000 0.020000 0.000000
-0.040000 0.030000 0.000000
-0.040000 0.040000 0.000000
-0.040000 0.050000 0.000000
-0.040000 0.060000 0.000000
-0.040000 0.070000 0.000000
-0.040000 0.080000 0.000000
-0.040000 0.090000 0.000000
-0.040000 0.100000 0.000000
-0.040000 0.110000 0.000000
-0.040000 0.120000 0.000000
-0.040000 0.130000 0.000000
-0.040000 0.140000 0.000000
-0.040000 0.150000 0.000000
-0.040000 0.160000 0.000000
-0.040000 0.170000 0.000000
-0.040000 0.180000 0.000000
-0.040000 0.190000 0.000000
-0.040000 0.200000 0.000000
-0.040000 0.210000 0.000000
-0.040000 0.220000 0.000000
-0.040000 0.230000 0.000000
-0.040000 0.240000 0.000000
-0.040000 0.250000 0.000000
-0.040000 0.260000 0.000000
-0.040000 0.270000 0.000000
-0.040000 0.280000 0.000000
-0.040000 0.290000 0.000000
-0.040000 0.300000 0.000000
-0.040000 0.310000 0.000000
-0.040000 0.320000 0.000000
-0.040000 0.330000 0.000000
-0.040000 0.340000 0.000000
-0.040000 0.350000 0.000000
-0.040000 0.360000 0.000000
-0.040000 0.370000 0.000000
-0.040000 0.380000 0.000000
-0.040000 0.390000 0.000000
-0.040000 0.400000 0.000000
0.010000 -0.030000 0.000000
0.010000 -0.020000 0.000000
0.010000 -0.010000 0.000000
0.010000 0.000000 0.000000
0.010000 0.010000 0.000000
0.010000 0.020000 0.000000
0.010000 0.030000 0.000000
0.010000 0.040000 0.000000
0.010000 0.050000 0.000000
0.010000 0.060000 0.000000
0.010000 0.070000 0.000000
0.010000 0.080000 0.000000
0.010000 0.090000 0.000000
0.010000 0.100000 0.000000
0.010000 0.110000 0.000000
0.010000 0.120000 0.000000
0.010000 0.130000 0.000000
0.010000 0.140000 0.000000
0.010000 0.150000 0.000000
0.010000 0.160000 0.000000
0.010000 0.170000 0.000000
0.010000 0.180000 0.000000
0.010000 0.190000 0.000000
0.010000 0.200000 0.000000
0.010000 0.210000 0.000000
0.010000 0.220000 0.000000
0.010000 0.230000 0.000000
0.010000 0.240000 0.000000
0.010000 0.250000 0.000000
0.010000 0.260000 0.000000
0.010000 0.270000 0.000000
0.010000 0.280000 0.000000
0.010000 0.290000 0.000000
0.010000 0.300000 0.000000
0.010000 0.310000 0.000000
0.010000 0.320000 0.000000
0.010000 0.330000 0.000000
0.010000 0.340000 0.000000
0.010000 0.350000 0.000000
0.010000 0.360000 0.000000
0.010000 0.370000 0.000000
0.010000 0.380000 0.000000
0.010000 0.390000 0.000000
0.010000 0.400000 0.000000
0.312000 0.410000 0.000000
0.312000 0.420000 0.000000
0.312000 0.430000 0.000000
0.312000 0.440000 0.000000
0.060000 -0.030000 0.000000
0.060000 -0.020000 0.000000
0.060000 -0.010000 0.000000
0.060000 0.000000 0.000000
0.060000 0.010000 0.000000
0.060000 0.020000 0.000000
0.060000 0.030000 0.000000
0.060000 0.040000 0.000000
0.060000 0.050000 0.000000
0.060000 0.060000 0.000000
0.060000 0.070000 0.000000
0.060000 0.080000 0.000000
0.060000 0.090000 0.000000
0.060000 0.100000 0.000000
0.060000 0.110000 0.000000
0.060000 0.120000 0.000000
0.060000 0.130000 0.000000
0.060000 0.140000 0.000000
0.060000 0.150000 0.000000
0.060000 0.160000 0.000000
0.060000 0.170000 0.000000
0.060000 0.180000 0.000000
0.060000 0.190000 0.000000
0.060000 0.200000 0.000000
0.060000 0.210000 0.000000
0.060000 0.220000 0.000000
0.060000 0.230000 0.000000
0.060000 0.240000 0.000000
0.060000 0.250000 0.000000
0.060000 0.260000 0.000000
0.060000 0.270000 0.000000
0.060000 0.280000 0.000000
0.060000 0.290000 0.000000
0.060000 0.300000 0.000000
0.060000 0.310000 0.000000
0.060000 0.320000 0.000000
0.060000 0.330000 0.000000
0.060000 0.340000 0.000000
0.060000 0.350000 0.000000
0.060000 0.360000 0.000000
0.060000 0.370000 0.000000
0.060000 0.380000 0.000000
0.060000 0.390000 0.000000
0.060000 0.400000 0.000000
0.362000 0.410000 0.000000
0.362000 0.420000 0.000000
0.362000 0.430000 0.000000
0.362000 0.440000 0.000000
0.110000 -0.030000 0.000000
0.110000 -0.020000 0.000000
0.110000 -0.010000 0.000000
0.110000 0.000000 0.000000
0.110000 0.010000 0.000000
0.110000 0.020000 0.000000
0.110000 0.030000 0.000000
0.110000 0.040000 0.000000
0.110000 0.050000 0.000000
0.110000 0.060000 0.000000
0.110000 0.070000 0.000000
0.110000 0.080000 0.000000
0.110000 0.090000 0.000000
0.110000 0.100000 0.000000
0.110000 0.110000 0.000000
0.110000 0.120000 0.000000
0.110000 0.130000 0.000000
0.110000 0.140000 0.000000
0.110000 0.150000 0.000000
0.110000 0.160000 0.000000
0.110000 0.170000 0.000000
0.110000 0.180000 0.000000
0.110000 0.190000 0.000000
0.110000 0.200000 0.000000
0.110000 0.210000 0.000000
0.110000 0.220000 0.000000
0.110000 0.230000 0.000000
0.110000 0.240000 0.000000
0.110000 0.250000 0.000000
0.110000 0.260000 0.000000
0.110000 0.270000 0.000000
0.110000 0.280000 0.000000
0.110000 0.290000 0.000000
0.110000 0.300000 0.000000
0.110000 0.310000 0.000000
0.110000 0.320000 0.000000
0.110000 0.330000 0.000000
0.110000 0.340000 0.000000
0.110000 0.350000 0.000000
0.110000 0.360000 0.000000
0.110000 0.370000 0.000000
0.110000 0.380000 0.000000
0.110000 0.390000 0.000000
0.110000 0.400000 0.000000
0.412000 0.410000 0.000000
0.412000 0.420000 0.000000
0.412000 0.430000 0.000000
0.412000 0.440000 0.000000
0.160000 -0.030000 0.000000
0.160000 -0.020000 0.000000
0.160000 -0.010000 0.000000
0.160000 0.000000 0.000000
0.160000 0.010000 0.000000
0.160000 0.020000 0.000000
0.160000 0.030000 0.000000
0.160000 0.040000 0.000000
0.160000 0.050000 0.000000
0.160000 0.060000 0.000000
0.160000 0.070000 0.000000
0.160000 0.080000 0.000000
0.160000 0.090000 0.000000
0.160000 0.100000 0.000000
0.160000 0.110000 0.000000
0.160000 0.120000 0.000000
0.160000 0.130000 0.000000
0.160000 0.140000 0.000000
0.160000 0.150000 0.000000
0.160000 0.160000 0.000000
0.160000 0.170000 0.000000
0.160000 0.180000 0.000000
0.160000 0.190000 0.000000
0.160000 0.200000 0.000000
0.160000 0.210000 0.000000
0.160000 0.220000 0.000000
0.160000 0.230000 0.000000
0.160000 0.240000 0.000000
0.160000 0.250000 0.000000
0.160000 0.260000 0.000000
0.160000 0.270000 0.000000
0.160000 0.280000 0.000000
0.160000 0.290000 0.000000
0.160000 0.300000 0.000000
0.160000 0.310000 0.000000
0.160000 0.320000 0.000000
0.160000 0.330000 0.000000
0.160000 0.340000 0.000000
0.160000 0.350000 0.000000
0.160000 0.360000 0.000000
0.160000 0.370000 0.000000
0.160000 0.380000 0.000000
0.160000 0.390000 0.000000
0.160000 0.400000 0.000000
0.462000 0.410000 0.000000
0.462000 0.420000 0.000000
0.462000 0.430000 0.000000
0.462000 0.440000 0.000000
0.210000 -0.030000 0.000000
0.210000 -0.020000 0.000000
0.210000 -0.010000 0.000000
0.210000 0.000000 0.000000
0.210000 0.010000 0.000000
0.210000 0.020000 0.000000
0.210000 0.030000 0.000000
0.210000 0.040000 0.000000
0.210000 0.050000 0.000000
0.210000 0.060000 0.000000
0.210000 0.070000 0.000000
0.210000 0.080000 0.000000
0.210000 0.090000 0.000000
0.210000 0.100000 0.000000
0.210000 0.110000 0.000000
0.210000 0.120000 0.000000
0.210000 0.130000 0.000000
0.210000 0.140000 0.000000
0.210000 0.150000 0.000000
0.210000 0.160000 0.000000
0.210000 0.170000 0.000000
0.210000 0.180000 0.000000
0.210000 0.190000 0.000000
0.210000 0.200000 0.000000
0.210000 0.210000 0.000000
0.210000 0.220000 0.000000
0.210000 0.230000 0.000000
0.210000 0.240000 0.000000
0.210000 0.250000 0.000000
0.210000 0.260000 0.000000
0.210000 0.270000 0.000000
0.210000 0.280000 0.000000
0.210000 0.290000 0.000000
0.210000 0.300000 0.000000
0.210000 0.310000 0.000000
0.210000 0.320000 0.000000
0.210000 0.330000 0.000000
0.210000 0.340000 0.000000
0.210000 0.350000 0.000000
0.210000 0.360000 0.000000
0.210000 0.370000 0.000000
0.210000 0.380000 0.000000
0.210000 0.390000 0.000000
0.210000 0.400000 0.000000
0.512000 0.410000 0.000000
0.512000 0.420000 0.000000
0.512000 0.430000 0.000000
0.512000 0.440000 0.000000
0.260000 -0.030000 0.000000
0.260000 -0.020000 0.000000
0.260000 -0.010000 0.000000
0.260000 0.000000 0.000000
0.260000 0.010000 0.000000
0.260000 0.020000 0.000000
0.260000 0.030000 0.000000
0.260000 0.040000 0.000000
0.260000 0.050000 0.000000
0.260000 0.060000 0.000000
0.260000 0.070000 0.000000
0.260000 0.080000 0.000000
0.260000 0.090000 0.000000
0.260000 0.100000 0.000000
0.260000 0.110000 0.000000
0.260000 0.120000 0.000000
0.260000 0.130000 0.000000
0.260000 0.140000 0.000000
0.260000 0.150000 0.000000
0.260000 0.160000 0.000000
0.260000 0.170000 0.000000
0.260000 0.180000 0.000000
0.260000 0.190000 0.000000
0.260000 0.200000 0.000000
0.260000 0.210000 0.000000
0.260000 0.220000 0.000000
0.260000 0.230000 0.000000
0.260000 0.240000 0.000000
0.260000 0.250000 0.000000
0.260000 0.260000 0.000000
0.260000 0.270000 0.000000
0.260000 0.280000 0.000000
0.260000 0.290000 0.000000
0.260000 0.300000 0.000000
0.260000 0.310000 0.000000
0.260000 0.320000 0.000000
0.260000 0.330000 0.000000
0.260000 0.340000 0.000000
0.260000 0.350000 0.000000
0.260000 0.360000 0.000000
0.260000 0.370000 0.000000
0.260000 0.380000 0.000000
0.260000 0.390000 0.000000
0.260000 0.400000 0.000000
0.562000 0.410000 0.000000
0.562000 0.420000 0.000000
0.562000 0.430000 0.000000
0.562000 0.440000 0.000000
0.310000 -0.030000 0.000000
0.310000 -0.020000 0.000000
0.310000 -0.010000 0.000000
0.310000 0.000000 0.000000
0.310000 0.010000 0.000000
0.310000 0.020000 0.000000
0.310000 0.030000 0.000000
0.310000 0.040000 0.000000
0.310000 0.050000 0.000000
0.310000 0.060000 0.000000
0.310000 0.070000 0.000000
0.310000 0.080000 0.000000
0.310000 0.090000 0.000000
0.310000 0.100000 0.000000
0.310000 0.110000 0.000000
0.310000 0.120000 0.000000
0.310000 0.130000 0.000000
0.310000 0.140000 0.000000
0.310000 0.150000 0.000000
0.310000 0.160000 0.000000
0.310000 0.170000 0.000000
0.310000 0.180000 0.000000
0.310000 0.190000 0.000000
0.310000 0.200000 0.000000
0.310000 0.210000 0.000000
[...]
<PointData>
<DataArray NumberOfComponents='1' type='Int32' Name='ParticleType' format='ascii'>
4
4
4
4
4
4
4
4
4
4
4
4
4
4
4
4
4
4
4
4
4
4
4
4
4
4
4
4
4
4
4
4
4
4
4
4
4
4
4
4
4
4
4
4
4
4
3
3
2
2
2
2
2
2
2
2
2
2
2
2
2
2
2
2
2
2
2
2
2
2
2
2
2
2
2
2
2
2
2
2
2
2
2
2
2
2
2
2
5
5
5
5
4
4
3
3
2
2
2
2
2
2
2
2
2
2
2
2
2
2
2
2
2
2
2
2
2
2
2
2
2
2
2
2
2
2
2
2
2
2
2
2
2
2
2
2
5
5
5
5
4
4
3
3
2
2
2
2
2
2
2
2
2
2
2
2
2
2
2
2
2
2
2
2
2
2
2
2
2
2
2
2
2
2
2
2
2
2
2
2
2
2
2
2
5
5
5
5
4
4
3
3
2
2
2
2
2
2
2
2
2
2
2
2
2
2
2
2
2
2
2
2
2
2
2
2
2
2
2
2
2
2
2
2
2
2
2
2
2
2
2
2
5
5
5
5
4
4
3
3
2
2
2
2
2
2
2
2
2
2
2
2
2
2
2
2
2
2
2
2
2
2
2
2
2
2
2
2
2
2
2
2
2
2
2
2
2
2
2
2
5
5
5
5
4
4
3
3
2
2
2
2
2
2
2
2
2
2
2
2
2
2
2
2
2
2
2
2
2
2
2
2
2
2
2
2
2
2
2
2
2
2
2
2
2
2
2
2
5
5
5
5
4
4
3
3
2
2
2
2
2
2
2
2
2
2
2
2
2
2
2
2
2
2
2
2
2
2
2
2
2
2
2
2
2
2
2
2
2
2
2
2
2
2
2
2
5
5
5
5
4
4
3
3
2
2
2
2
2
2
2
2
2
2
2
2
2
2
2
2
2
2
2
2
2
2
2
2
2
2
2
2
2
2
2
2
2
2
2
2
2
2
2
2
5
5
5
5
4
4
3
3
2
2
2
2
2
2
2
2
2
2
2
2
2
2
2
2
2
2
2
2
2
2
2
2
2
2
2
2
2
2
2
2
2
2
2
2
2
2
2
2
5
5
5
5
4
4
3
3
2
2
2
2
2
2
2
2
2
2
2
2
2
2
2
2
2
2
2
2
2
2
2
2
2
2
2
2
2
2
2
2
2
2
2
2
2
2
2
2
5
5
5
5
4
4
3
3
2
2
2
2
2
2
2
2
2
2
2
2
2
2
2
2
2
2
2
2
2
2
2
2
2
2
2
2
2
2
2
2
2
2
2
2
2
2
2
2
4
4
3
3
2
2
2
2
2
2
2
2
2
2
2
2
2
2
2
2
2
2
2
2
2
2
2
2
2
2
2
2
2
2
2
2
2
2
2
2
2
2
2
2
4
4
3
3
2
2
2
2
2
2
2
2
2
2
2
2
2
2
2
2
2
2
2
2
2
2
2
2
2
2
2
2
2
2
2
2
2
2
2
2
2
2
2
2
4
4
3
3
2
2
2
2
2
2
2
2
2
2
2
2
2
2
2
2
2
2
2
2
2
2
2
2
2
2
2
2
2
2
2
2
2
2
2
2
2
2
2
2
4
4
3
3
2
2
2
2
2
2
2
2
2
2
2
2
2
2
2
2
2
2
2
2
2
2
2
2
2
2
2
2
2
2
2
2
2
2
2
2
2
2
2
2
4
4
3
3
2
2
2
2
2
2
2
2
2
2
2
2
2
2
2
2
2
2
2
2
2
2
2
2
2
2
2
2
2
2
2
2
2
2
2
2
2
2
2
2
4
4
3
3
2
2
2
2
2
2
2
2
2
2
2
2
2
2
2
2
2
2
2
2
2
2
2
2
2
2
2
2
2
2
2
2
2
2
2
2
2
2
2
2
4
4
3
3
2
2
2
2
2
2
2
2
2
2
2
2
2
2
2
2
2
2
2
2
2
2
2
2
2
2
2
2
2
2
2
2
2
2
2
2
2
2
2
2
4
4
3
3
2
2
2
2
2
2
2
2
2
2
2
2
2
2
2
2
2
2
2
2
2
2
2
2
2
2
2
2
2
2
2
2
2
2
2
2
2
2
2
2
4
4
3
3
2
2
2
2
2
2
2
2
2
2
2
2
2
2
2
2
2
2
2
2
2
2
2
2
2
2
2
2
2
2
2
2
2
2
2
2
2
2
2
2
4
4
3
3
2
2
2
2
2
2
2
2
2
2
2
2
2
2
2
2
2
2
2
2
2
2
2
2
2
2
2
2
2
2
2
2
2
2
2
2
2
2
2
2
4
4
3
3
2
2
2
2
2
2
2
2
2
2
2
2
2
2
2
2
2
2
2
2
2
2
2
2
2
2
2
2
2
2
2
2
2
2
2
2
2
2
2
2
4
4
3
3
2
2
2
2
2
2
2
2
2
2
2
2
2
2
2
2
2
2
2
2
2
2
2
2
2
2
2
2
2
2
2
2
2
2
2
2
2
2
2
2
4
4
3
3
2
2
2
2
2
2
2
2
2
2
2
2
2
2
2
2
2
2
2
2
2
2
2
2
2
2
2
2
2
2
2
2
2
2
2
2
2
2
2
2
4
4
3
3
2
2
2
2
2
2
2
2
2
2
2
2
2
2
2
2
2
2
2
2
2
2
2
2
2
2
2
2
2
2
2
2
2
2
2
2
2
2
2
2
4
4
3
3
2
2
2
2
2
2
2
2
2
2
2
2
2
2
2
2
2
2
2
2
2
2
2
2
2
2
2
2
2
2
2
2
2
2
2
2
2
2
2
2
4
4
3
3
2
2
2
2
2
2
2
2
2
2
2
2
2
2
2
2
2
2
2
2
2
2
2
2
2
2
2
2
2
2
2
2
2
2
2
2
2
2
2
2
4
4
3
3
2
2
2
2
2
2
2
2
2
2
2
2
2
2
2
2
2
2
2
2
2
2
2
2
2
2
2
2
2
2
2
2
2
2
2
2
2
2
2
2
4
4
3
3
2
2
2
2
2
2
2
2
2
2
2
2
2
2
2
2
2
2
2
2
2
2
2
2
2
2
2
2
2
2
2
2
2
2
2
2
2
2
2
2
4
4
3
3
2
2
2
2
2
2
2
2
2
2
2
2
2
2
2
2
2
2
2
2
2
2
2
2
2
2
2
2
2
2
2
2
2
2
2
2
2
2
2
2
4
4
3
3
2
2
2
2
2
2
2
2
2
2
2
2
2
2
2
2
2
2
2
2
2
2
2
2
2
2
2
2
2
2
2
2
2
2
2
2
2
2
2
2
4
4
3
3
2
2
2
2
2
2
2
2
2
2
2
2
2
2
2
2
2
2
2
2
2
2
2
2
2
2
2
2
2
2
2
2
2
2
2
2
2
2
2
2
4
4
3
3
2
2
2
2
2
2
2
2
2
2
2
2
2
2
2
2
2
2
2
2
2
2
2
2
2
2
2
2
2
2
2
2
2
2
2
2
2
2
2
2
4
4
3
3
2
2
2
2
2
2
2
2
2
2
2
2
2
2
2
2
2
2
2
2
2
2
2
2
2
2
2
2
2
2
2
2
2
2
2
2
2
2
2
2
4
4
3
3
2
2
2
2
2
2
2
2
2
2
2
2
2
2
2
2
2
2
2
2
2
2
2
2
2
2
2
2
2
2
2
2
2
2
2
2
2
2
2
2
4
4
3
3
2
2
2
2
2
2
2
2
2
2
2
2
2
2
2
2
2
2
2
2
2
2
2
2
2
2
2
2
2
2
2
2
2
2
2
2
2
2
2
2
4
4
3
3
2
2
2
2
2
2
2
2
2
2
2
2
2
2
2
2
2
2
2
2
2
2
2
2
2
2
2
2
2
2
2
2
2
2
2
2
2
2
2
2
4
4
3
3
2
2
2
2
2
2
2
2
2
2
2
2
2
2
2
2
2
2
2
2
2
2
2
2
2
2
2
2
2
2
2
2
2
2
2
2
2
2
2
2
4
4
3
3
2
2
2
2
2
2
2
2
2
2
2
2
2
2
2
2
2
2
2
2
2
2
2
2
2
2
2
2
2
2
2
2
2
2
2
2
2
2
2
2
4
4
3
3
2
2
2
2
2
2
2
2
2
2
2
2
2
2
2
2
2
2
2
2
2
2
2
2
2
2
2
2
2
2
2
2
2
2
2
2
2
2
2
2
4
4
3
3
3
3
3
3
3
3
3
3
3
3
3
3
3
3
3
3
3
3
3
3
3
3
3
3
3
3
3
3
3
3
3
3
3
3
3
3
3
3
3
3
</DataArray>
<DataArray NumberOfComponents='1' type='Float32' Name='Temperature' format='ascii'>
0.000000
0.000000
0.000000
0.000000
0.000000
0.000000
0.000000
0.000000
0.000000
0.000000
0.000000
0.000000
0.000000
0.000000
0.000000
0.000000
0.000000
0.000000
0.000000
0.000000
0.000000
0.000000
0.000000
0.000000
0.000000
0.000000
0.000000
0.000000
0.000000
0.000000
0.000000
0.000000
0.000000
0.000000
0.000000
0.000000
0.000000
0.000000
0.000000
0.000000
0.000000
0.000000
0.000000
0.000000
0.000000
0.000000
0.000000
0.000000
-0.278673
-0.502818
-0.732429
-0.958496
-1.181157
-1.399564
-1.613009
-1.820828
-2.022412
-2.217215
-2.404754
-2.584614
-2.756448
-2.919984
-3.075016
-3.221411
-3.359102
-3.488087
-3.608426
-3.720236
-3.823686
-3.918992
-4.006413
-4.086239
-4.158794
-4.224420
-4.283476
-4.336333
-4.383361
-4.424931
-4.461403
-4.493122
-4.520417
-4.543589
-4.562913
-4.578630
-4.590949
-4.600035
-4.605981
-4.609670
-3.000000
-3.000000
-3.000000
-3.000000
0.000000
0.000000
0.000000
0.000000
-0.275233
-0.496540
-0.723124
-0.946030
-1.165344
-1.380175
-1.589778
-1.793449
-1.990546
-2.180491
-2.362772
-2.536952
-2.702668
-2.859632
-3.007636
-3.146545
-3.276302
-3.396921
-3.508487
-3.611151
-3.705125
-3.790674
-3.868117
-3.937812
-4.000156
-4.055574
-4.104513
-4.147432
-4.184799
-4.217079
-4.244728
-4.268188
-4.287877
-4.304183
-4.317461
-4.328023
-4.336140
-4.342028
-4.345833
-4.348170
-3.000000
-3.000000
-3.000000
-3.000000
0.000000
0.000000
0.000000
0.000000
-0.273729
-0.493775
-0.718983
-0.940405
-1.158087
-1.371102
-1.578670
-1.780052
-1.974570
-2.161612
-2.340633
-2.511166
-2.672818
-2.825278
-2.968316
-3.101784
-3.225615
-3.339823
-3.444500
-3.539813
-3.625999
-3.703362
-3.772266
-3.833128
-3.886413
-3.932624
-3.972294
-4.005980
-4.034249
-4.057675
-4.076821
-4.092240
-4.104457
-4.113965
-4.121215
-4.126608
-4.130490
-4.133144
-4.134779
-4.135741
-3.000000
-3.000000
-3.000000
-3.000000
0.000000
0.000000
0.000000
0.000000
-0.273242
-0.492868
-0.717594
-0.938464
-1.155497
-1.367741
-1.574383
-1.774656
-1.967845
-2.153302
-2.330443
-2.498759
-2.657815
-2.807256
-2.946811
-3.076291
-3.195593
-3.304700
-3.403680
-3.492686
-3.571953
-3.641793
-3.702595
-3.754819
-3.798987
-3.835680
-3.865524
-3.889187
-3.907364
-3.920766
-3.930108
-3.936099
-3.939424
-3.940734
-3.940630
-3.939656
-3.938281
-3.936895
-3.935805
-3.935036
-3.000000
-3.000000
-3.000000
-3.000000
0.000000
0.000000
0.000000
0.000000
-0.273181
-0.492750
-0.717404
-0.938181
-1.155091
-1.367169
-1.573591
-1.773570
-1.966371
-2.151317
-2.327795
-2.495253
-2.653215
-2.801272
-2.939092
-3.066422
-3.183087
-3.288993
-3.384130
-3.468574
-3.542487
-3.606120
-3.659813
-3.703997
-3.739193
-3.766007
-3.785132
-3.797337
-3.803461
-3.804401
-3.801094
-3.794504
-3.785597
-3.775323
-3.764585
-3.754217
-3.744959
-3.737435
-3.732170
-3.728728
-3.000000
-3.000000
-3.000000
-3.000000
0.000000
0.000000
0.000000
0.000000
-0.273181
-0.492749
-0.717402
-0.938177
-1.155085
-1.367159
-1.573575
-1.773542
-1.966326
-2.151245
-2.327680
-2.495072
-2.652933
-2.800838
-2.938433
-3.065430
-3.181611
-3.286823
-3.380980
-3.464057
-3.536091
-3.597180
-3.647485
-3.687228
-3.716702
-3.736278
-3.746418
-3.747696
-3.740814
-3.726629
-3.706177
-3.680683
-3.651566
-3.620427
-3.589005
-3.559111
-3.532528
-3.510901
-3.495727
-3.485771
-3.000000
-3.000000
-3.000000
-3.000000
0.000000
0.000000
0.000000
0.000000
-0.273181
-0.492749
-0.717402
-0.938177
-1.155085
-1.367159
-1.573575
-1.773542
-1.966326
-2.151245
-2.327680
-2.495072
-2.652933
-2.800838
-2.938433
-3.065430
-3.181610
-3.286822
-3.380978
-3.464052
-3.536081
-3.597160
-3.647444
-3.687145
-3.716537
-3.735956
-3.745801
-3.746536
-3.738679
-3.722781
-3.699389
-3.668972
-3.631826
-3.587944
-3.536886
-3.477685
-3.408893
-3.328978
-3.236355
-3.135960
-3.000000
-3.000000
-3.000000
-3.000000
0.000000
0.000000
0.000000
0.000000
-0.273181
-0.492749
-0.717402
-0.938177
-1.155085
-1.367159
-1.573575
-1.773542
-1.966326
-2.151245
-2.327680
-2.495072
-2.652933
-2.800838
-2.938433
-3.065430
-3.181610
-3.286822
-3.380978
-3.464052
-3.536081
-3.597160
-3.647444
-3.687145
-3.716537
-3.735956
-3.745801
-3.746536
-3.738679
-3.722781
-3.699389
-3.668972
-3.631826
-3.587944
-3.536886
-3.477685
-3.408893
-3.328978
-3.236355
-3.135960
-3.000000
-3.000000
-3.000000
-3.000000
0.000000
0.000000
0.000000
0.000000
-0.273181
-0.492749
-0.717402
-0.938177
-1.155085
-1.367159
-1.573575
-1.773542
-1.966326
-2.151245
-2.327680
-2.495072
-2.652933
-2.800838
-2.938433
-3.065430
-3.181610
-3.286822
-3.380978
-3.464052
-3.536081
-3.597160
-3.647444
-3.687145
-3.716537
-3.735956
-3.745801
-3.746536
-3.738679
-3.722781
-3.699389
-3.668972
-3.631826
-3.587944
-3.536886
-3.477685
-3.408893
-3.328978
-3.236355
-3.135960
-3.000000
-3.000000
-3.000000
-3.000000
0.000000
0.000000
0.000000
0.000000
-0.273181
-0.492749
-0.717402
-0.938177
-1.155085
-1.367159
-1.573575
-1.773542
-1.966326
-2.151245
-2.327680
-2.495072
-2.652933
-2.800838
-2.938433
-3.065430
-3.181610
-3.286822
-3.380978
-3.464052
-3.536081
-3.597160
-3.647444
-3.687145
-3.716537
-3.735956
-3.745801
-3.746536
-3.738679
-3.722781
-3.699389
-3.668972
-3.631826
-3.587944
-3.536886
-3.477685
-3.408893
-3.328978
-3.236355
-3.135960
-3.000000
-3.000000
-3.000000
-3.000000
0.000000
0.000000
0.000000
0.000000
-0.275472
-0.496903
-0.723497
-0.946231
-1.165129
-1.379229
-1.587709
-1.789779
-1.984703
-2.171795
-2.350428
-2.520037
-2.680119
-2.830234
-2.970010
-3.099141
-3.217384
-3.324562
-3.420561
-3.505328
-3.578869
-3.641253
-3.692604
-3.733108
-3.763014
-3.782635
-3.792355
-3.792623
-3.783950
-3.766884
-3.741972
-3.709682
-3.670300
-3.623797
-3.569687
-3.506929
-3.433974
-3.349192
-3.250897
-3.144333
0.000000
0.000000
0.000000
0.000000
-0.278960
-0.503246
-0.732848
-0.958667
-1.180761
-1.398188
-1.610141
-1.815844
-2.014565
-2.205621
-2.388380
-2.562263
-2.726748
-2.881370
-3.025721
-3.159453
-3.282275
-3.393953
-3.494311
-3.583227
-3.660637
-3.726533
-3.780963
-3.824038
-3.855934
-3.876900
-3.887260
-3.887418
-3.877850
-3.859081
-3.831641
-3.795980
-3.752357
-3.700684
-3.640367
-3.570205
-3.488428
-3.393195
-3.282613
-3.162615
0.000000
0.000000
0.000000
0.000000
-0.281401
-0.507716
-0.739507
-0.967647
-1.192243
-1.412389
-1.627314
-1.836274
-2.038563
-2.233518
-2.420520
-2.598995
-2.768418
-2.928308
-3.078231
-3.217798
-3.346667
-3.464537
-3.571152
-3.666298
-3.749804
-3.821545
-3.881446
-3.929487
-3.965715
-3.990249
-4.003294
-4.005146
-3.996189
-3.976873
-3.947663
-3.908950
-3.860921
-3.803378
-3.735564
-3.656038
-3.562731
-3.453514
-3.326232
-3.187810
0.000000
0.000000
0.000000
0.000000
-0.282511
-0.509780
-0.742651
-0.972013
-1.198022
-1.419823
-1.636697
-1.847952
-2.052936
-2.251041
-2.441698
-2.624384
-2.798612
-2.963937
-3.119943
-3.266248
-3.402495
-3.528344
-3.643477
-3.747587
-3.840381
-3.921581
-3.990928
-4.048193
-4.093191
-4.125794
-4.145956
-4.153723
-4.149242
-4.132739
-4.104475
-4.064642
-4.013215
-3.949745
-3.873151
-3.781580
-3.672478
-3.543289
-3.391508
-3.225644
0.000000
0.000000
0.000000
0.000000
-0.282695
-0.510135
-0.743220
-0.972857
-1.199227
-1.421507
-1.639016
-1.851110
-2.057195
-2.256730
-2.449229
-2.634261
-2.811448
-2.980461
-3.141012
-3.292849
-3.435742
-3.569472
-3.693816
-3.808533
-3.913348
-4.007941
-4.091941
-4.164919
-4.226404
-4.275889
-4.312862
-4.336827
-4.347322
-4.343921
-4.326194
-4.293604
-4.245348
-4.180128
-4.095910
-3.989790
-3.858129
-3.697514
-3.504891
-3.291821
0.000000
0.000000
0.000000
0.000000
-0.282697
-0.510139
-0.743229
-0.972871
-1.199251
-1.421547
-1.639082
-1.851217
-2.057367
-2.257004
-2.449662
-2.634938
-2.812493
-2.982057
-3.143424
-3.296450
-3.441055
-3.577220
-3.704977
-3.824408
-3.935641
-4.038837
-4.134178
-4.221855
-4.302040
-4.374847
-4.440275
-4.498120
-4.547841
-4.588379
-4.617908
-4.633519
-4.630879
-4.603905
-4.544604
-4.443303
-4.289560
-4.074589
-3.792421
-3.463558
0.000000
0.000000
0.000000
0.000000
-0.282697
-0.510139
-0.743229
-0.972871
-1.199251
-1.421547
-1.639082
-1.851217
-2.057367
-2.257004
-2.449662
-2.634938
-2.812494
-2.982058
-3.143424
-3.296451
-3.441058
-3.577225
-3.704988
-3.824433
-3.935693
-4.038944
-4.134396
-4.222290
-4.302894
-4.376492
-4.443382
-4.503869
-4.558261
-4.606863
-4.649970
-4.687867
-4.720822
-4.749080
-4.772866
-4.792375
-4.807776
-4.819204
-4.826714
-4.831391
0.000000
0.000000
0.000000
0.000000
-0.282697
-0.510139
-0.743229
-0.972871
-1.199251
-1.421547
-1.639082
-1.851217
-2.057367
-2.257004
-2.449662
-2.634938
-2.812494
-2.982058
-3.143424
-3.296451
-3.441058
-3.577225
-3.704988
-3.824433
-3.935693
-4.038944
-4.134396
-4.222290
-4.302894
-4.376492
-4.443382
-4.503869
-4.558261
-4.606863
-4.649970
-4.687867
-4.720822
-4.749080
-4.772866
-4.792375
-4.807776
-4.819204
-4.826714
-4.831391
0.000000
0.000000
0.000000
0.000000
-0.282697
-0.510139
-0.743229
-0.972871
-1.199251
-1.421547
-1.639082
-1.851217
-2.057367
-2.257004
-2.449662
-2.634938
-2.812494
-2.982058
-3.143424
-3.296451
-3.441058
-3.577225
-3.704988
-3.824433
-3.935693
-4.038944
-4.134396
-4.222290
-4.302894
-4.376492
-4.443382
-4.503869
-4.558261
-4.606863
-4.649970
-4.687867
-4.720822
-4.749080
-4.772866
-4.792375
-4.807776
-4.819204
-4.826714
-4.831391
0.000000
0.000000
0.000000
0.000000
-0.282697
-0.510139
-0.743229
-0.972871
-1.199251
-1.421547
-1.639082
-1.851217
-2.057367
-2.257004
-2.449662
-2.634938
-2.812494
-2.982058
-3.143424
-3.296451
-3.441058
-3.577225
-3.704988
-3.824433
-3.935693
-4.038944
-4.134396
-4.222290
-4.302894
-4.376492
-4.443382
-4.503869
-4.558261
-4.606863
-4.649970
-4.687867
-4.720822
-4.749080
-4.772866
-4.792375
-4.807776
-4.819204
-4.826714
-4.831391
0.000000
0.000000
0.000000
0.000000
-0.282697
-0.510139
-0.743229
-0.972871
-1.199251
-1.421547
-1.639082
-1.851217
-2.057367
-2.257004
-2.449662
-2.634938
-2.812494
-2.982058
-3.143424
-3.296451
-3.441058
-3.577225
-3.704988
-3.824433
-3.935693
-4.038944
-4.134396
-4.222290
-4.302894
-4.376492
-4.443382
-4.503869
-4.558261
-4.606863
-4.649970
-4.687867
-4.720822
-4.749080
-4.772866
-4.792375
-4.807776
-4.819204
-4.826714
-4.831391
0.000000
0.000000
0.000000
0.000000
-0.282697
-0.510139
-0.743229
-0.972871
-1.199251
-1.421547
-1.639082
-1.851217
-2.057367
-2.257004
-2.449662
-2.634938
-2.812494
-2.982058
-3.143424
-3.296451
-3.441058
-3.577225
-3.704988
-3.824433
-3.935693
-4.038944
-4.134396
-4.222290
-4.302894
-4.376492
-4.443382
-4.503869
-4.558261
-4.606863
-4.649970
-4.687867
-4.720822
-4.749080
-4.772866
-4.792375
-4.807776
-4.819204
-4.826714
-4.831391
0.000000
0.000000
0.000000
0.000000
-0.282697
-0.510139
-0.743229
-0.972871
-1.199251
-1.421547
-1.639082
-1.851217
-2.057367
-2.257004
-2.449662
-2.634938
-2.812494
-2.982058
-3.143424
-3.296451
-3.441058
-3.577225
-3.704988
-3.824433
-3.935693
-4.038944
-4.134396
-4.222290
-4.302894
-4.376492
-4.443382
-4.503869
-4.558261
-4.606863
-4.649970
-4.687867
-4.720822
-4.749080
-4.772866
-4.792375
-4.807776
-4.819204
-4.826714
-4.831391
0.000000
0.000000
0.000000
0.000000
-0.282697
-0.510139
-0.743229
-0.972871
-1.199251
-1.421547
-1.639082
-1.851217
-2.057367
-2.257004
-2.449662
-2.634938
-2.812494
-2.982058
-3.143424
-3.296451
-3.441058
-3.577225
-3.704988
-3.824433
-3.935693
-4.038944
-4.134396
-4.222290
-4.302894
-4.376492
-4.443382
-4.503869
-4.558261
-4.606863
-4.649970
-4.687867
-4.720822
-4.749080
-4.772866
-4.792375
-4.807776
-4.819204
-4.826714
-4.831391
0.000000
0.000000
0.000000
0.000000
-0.282697
-0.510139
-0.743229
-0.972871
-1.199251
-1.421547
-1.639082
-1.851217
-2.057367
-2.257004
-2.449662
-2.634938
-2.812494
-2.982058
-3.143424
-3.296451
-3.441058
-3.577225
-3.704988
-3.824433
-3.935693
-4.038944
-4.134396
-4.222290
-4.302894
-4.376492
-4.443382
-4.503869
-4.558261
-4.606863
-4.649970
-4.687867
-4.720822
-4.749080
-4.772866
-4.792375
-4.807776
-4.819204
-4.826714
-4.831391
0.000000
0.000000
0.000000
0.000000
-0.282697
-0.510139
-0.743229
-0.972871
-1.199251
-1.421547
-1.639082
-1.851217
-2.057367
-2.257004
-2.449662
-2.634938
-2.812494
-2.982058
-3.143424
-3.296451
-3.441058
-3.577225
-3.704988
-3.824433
-3.935693
-4.038944
-4.134396
-4.222290
-4.302894
-4.376492
-4.443382
-4.503869
-4.558261
-4.606863
-4.649970
-4.687867
-4.720822
-4.749080
-4.772866
-4.792375
-4.807776
-4.819204
-4.826714
-4.831391
0.000000
0.000000
0.000000
0.000000
-0.282697
-0.510139
-0.743229
-0.972871
-1.199251
-1.421547
-1.639082
-1.851217
-2.057367
-2.257004
-2.449662
-2.634938
-2.812494
-2.982058
-3.143424
-3.296451
-3.441058
-3.577225
-3.704988
-3.824433
-3.935693
-4.038944
-4.134396
-4.222290
-4.302894
-4.376492
-4.443382
-4.503869
-4.558261
-4.606863
-4.649970
-4.687867
-4.720822
-4.749080
-4.772866
-4.792375
-4.807776
-4.819204
-4.826714
-4.831391
0.000000
0.000000
0.000000
0.000000
-0.282697
-0.510139
-0.743229
-0.972871
-1.199251
-1.421547
-1.639082
-1.851217
-2.057367
-2.257004
-2.449662
-2.634938
-2.812494
-2.982058
-3.143424
-3.296451
-3.441058
-3.577225
-3.704988
-3.824433
-3.935693
-4.038944
-4.134396
-4.222290
-4.302894
-4.376492
-4.443382
-4.503869
-4.558261
-4.606863
-4.649970
-4.687867
-4.720822
-4.749080
-4.772866
-4.792375
-4.807776
-4.819204
-4.826714
-4.831391
0.000000
0.000000
0.000000
0.000000
-0.282697
-0.510139
-0.743229
-0.972871
-1.199251
-1.421547
-1.639082
-1.851217
-2.057367
-2.257004
-2.449662
-2.634938
-2.812494
-2.982058
-3.143424
-3.296451
-3.441058
-3.577225
-3.704988
-3.824433
-3.935693
-4.038944
-4.134396
-4.222290
-4.302894
-4.376492
-4.443382
-4.503869
-4.558261
-4.606863
-4.649970
-4.687867
-4.720822
-4.749080
-4.772866
-4.792375
-4.807776
-4.819204
-4.826714
-4.831391
0.000000
0.000000
0.000000
0.000000
-0.282697
-0.510139
-0.743229
-0.972871
-1.199251
-1.421547
-1.639082
-1.851217
-2.057367
-2.257004
-2.449662
-2.634938
-2.812494
-2.982058
-3.143424
-3.296451
-3.441058
-3.577225
-3.704988
-3.824433
-3.935693
-4.038944
-4.134396
-4.222290
-4.302894
-4.376492
-4.443382
-4.503869
-4.558261
-4.606863
-4.649970
-4.687867
-4.720822
-4.749080
-4.772866
-4.792375
-4.807776
-4.819204
-4.826714
-4.831391
0.000000
0.000000
0.000000
0.000000
-0.282697
-0.510139
-0.743229
-0.972871
-1.199251
-1.421547
-1.639082
-1.851217
-2.057367
-2.257004
-2.449662
-2.634938
-2.812494
-2.982058
-3.143424
-3.296451
-3.441058
-3.577225
-3.704988
-3.824433
-3.935693
-4.038944
-4.134396
-4.222290
-4.302894
-4.376492
-4.443382
-4.503869
-4.558261
-4.606863
-4.649970
-4.687867
-4.720822
-4.749080
-4.772866
-4.792375
-4.807776
-4.819204
-4.826714
-4.831391
0.000000
0.000000
0.000000
0.000000
-0.282697
-0.510139
-0.743229
-0.972871
-1.199251
-1.421547
-1.639082
-1.851217
-2.057367
-2.257004
-2.449662
-2.634938
-2.812494
-2.982058
-3.143424
-3.296451
-3.441058
-3.577225
-3.704988
-3.824433
-3.935693
-4.038944
-4.134396
-4.222290
-4.302894
-4.376492
-4.443382
-4.503869
-4.558261
-4.606863
-4.649970
-4.687867
-4.720822
-4.749080
-4.772866
-4.792375
-4.807776
-4.819204
-4.826714
-4.831391
0.000000
0.000000
0.000000
0.000000
-0.282697
-0.510139
-0.743229
-0.972871
-1.199251
-1.421547
-1.639082
-1.851217
-2.057367
-2.257004
-2.449662
-2.634938
-2.812494
-2.982058
-3.143424
-3.296451
-3.441058
-3.577225
-3.704988
-3.824433
-3.935693
-4.038944
-4.134396
-4.222290
-4.302894
-4.376492
-4.443382
-4.503869
-4.558261
-4.606863
-4.649970
-4.687867
-4.720822
-4.749080
-4.772866
-4.792375
-4.807776
-4.819204
-4.826714
-4.831391
0.000000
0.000000
0.000000
0.000000
-0.282697
-0.510139
-0.743229
-0.972871
-1.199251
-1.421547
-1.639082
-1.851217
-2.057367
-2.257004
-2.449662
-2.634938
-2.812494
-2.982058
-3.143424
-3.296451
-3.441058
-3.577225
-3.704988
-3.824433
-3.935693
-4.038944
-4.134396
-4.222290
-4.302894
-4.376492
-4.443382
-4.503869
-4.558261
-4.606863
-4.649970
-4.687867
-4.720822
-4.749080
-4.772866
-4.792375
-4.807776
-4.819204
-4.826714
-4.831391
0.000000
0.000000
0.000000
0.000000
-0.282697
-0.510139
-0.743229
-0.972871
-1.199251
-1.421547
-1.639082
-1.851217
-2.057367
-2.257004
-2.449662
-2.634938
-2.812494
-2.982058
-3.143424
-3.296451
-3.441058
-3.577225
-3.704988
-3.824433
-3.935693
-4.038944
-4.134396
-4.222290
-4.302894
-4.376492
-4.443382
-4.503869
-4.558261
-4.606863
-4.649970
-4.687867
-4.720822
-4.749080
-4.772866
-4.792375
-4.807776