<?xml version='1.0' encoding='UTF-8'?>
<VTKFile xmlns='VTK' byte_order='LittleEndian' version='0.1' type='UnstructuredGrid'>
<UnstructuredGrid>
<Piece NumberOfCells='1816' NumberOfPoints='1816'>
<Points>
<DataArray NumberOfComponents='3' type='Float32' Name='Position' format='ascii'>
1.150000 0.400000 0.000000
1.150000 0.412500 0.000000
1.150000 0.425000 0.000000
1.150000 0.437500 0.000000
1.150000 0.450000 0.000000
1.150000 0.462500 0.000000
1.150000 0.475000 0.000000
1.150000 0.487500 0.000000
1.187500 0.400000 0.000000
1.187500 0.412500 0.000000
1.187500 0.425000 0.000000
1.187500 0.437500 0.000000
1.187500 0.450000 0.000000
1.187500 0.462500 0.000000
1.187500 0.475000 0.000000
1.187500 0.487500 0.000000
0.025000 0.000000 0.000000
0.025000 0.012500 0.000000
0.025000 0.025000 0.000000
0.025000 0.037500 0.000000
0.025000 0.050000 0.000000
0.025000 0.062500 0.000000
0.025000 0.075000 0.000000
0.025000 0.087500 0.000000
0.025000 0.100000 0.000000
0.025000 0.112500 0.000000
0.025000 0.125000 0.000000
0.025000 0.137500 0.000000
0.025000 0.150000 0.000000
0.025000 0.162500 0.000000
0.025000 0.175000 0.000000
0.025000 0.187500 0.000000
0.025000 0.200000 0.000000
0.025000 0.212500 0.000000
0.025000 0.225000 0.000000
0.025000 0.237500 0.000000
0.025000 0.250000 0.000000
0.025000 0.262500 0.000000
0.025000 0.275000 0.000000
0.025000 0.287500 0.000000
0.025000 0.300000 0.000000
0.025000 0.312500 0.000000
0.025000 0.325000 0.000000
0.025000 0.337500 0.000000
0.025000 0.350000 0.000000
0.025000 0.362500 0.000000
0.025000 0.375000 0.000000
0.025000 0.387500 0.000000
1.225000 0.400000 0.000000
1.225000 0.412500 0.000000
1.225000 0.425000 0.000000
1.225000 0.437500 0.000000
1.225000 0.450000 0.000000
1.225000 0.462500 0.000000
1.225000 0.475000 0.000000
1.225000 0.487500 0.000000
0.062500 0.000000 0.000000
0.062500 0.012500 0.000000
0.062500 0.025000 0.000000
0.062500 0.037500 0.000000
0.062500 0.050000 0.000000
0.062500 0.062500 0.000000
0.062500 0.075000 0.000000
0.062500 0.087500 0.000000
0.062500 0.100000 0.000000
0.062500 0.112500 0.000000
0.062500 0.125000 0.000000
0.062500 0.137500 0.000000
0.062500 0.150000 0.000000
0.062500 0.162500 0.000000
0.062500 0.175000 0.000000
0.062500 0.187500 0.000000
0.062500 0.200000 0.000000
0.062500 0.212500 0.000000
0.062500 0.225000 0.000000
0.062500 0.237500 0.000000
0.062500 0.250000 0.000000
0.062500 0.262500 0.000000
0.062500 0.275000 0.000000
0.062500 0.287500 0.000000
0.062500 0.300000 0.000000
0.062500 0.312500 0.000000
0.062500 0.325000 0.000000
0.062500 0.337500 0.000000
0.062500 0.350000 0.000000
0.062500 0.362500 0.000000
0.062500 0.375000 0.000000
0.062500 0.387500 0.000000
1.262500 0.400000 0.000000
1.262500 0.412500 0.000000
1.262500 0.425000 0.000000
1.262500 0.437500 0.000000
1.262500 0.450000 0.000000
1.262500 0.462500 0.000000
1.262500 0.475000 0.000000
1.262500 0.487500 0.000000
0.100000 0.000000 0.000000
0.100000 0.012500 0.000000
0.100000 0.025000 0.000000
0.100000 0.037500 0.000000
0.100000 0.050000 0.000000
0.100000 0.062500 0.000000
0.100000 0.075000 0.000000
0.100000 0.087500 0.000000
0.100000 0.100000 0.000000
0.100000 0.112500 0.000000
0.100000 0.125000 0.000000
0.100000 0.137500 0.000000
0.100000 0.150000 0.000000
0.100000 0.162500 0.000000
0.100000 0.175000 0.000000
0.100000 0.187500 0.000000
0.100000 0.200000 0.000000
0.100000 0.212500 0.000000
0.100000 0.225000 0.000000
0.100000 0.237500 0.000000
0.100000 0.250000 0.000000
0.100000 0.262500 0.000000
0.100000 0.275000 0.000000
0.100000 0.287500 0.000000
0.100000 0.300000 0.000000
0.100000 0.312500 0.000000
0.100000 0.325000 0.000000
0.100000 0.337500 0.000000
0.100000 0.350000 0.000000
0.100000 0.362500 0.000000
0.100000 0.375000 0.000000
0.100000 0.387500 0.000000
1.300000 0.400000 0.000000
1.300000 0.412500 0.000000
1.300000 0.425000 0.000000
1.300000 0.437500 0.000000
1.300000 0.450000 0.000000
1.300000 0.462500 0.000000
1.300000 0.475000 0.000000
1.300000 0.487500 0.000000
0.137500 0.000000 0.000000
0.137500 0.012500 0.000000
0.137500 0.025000 0.000000
0.137500 0.037500 0.000000
0.137500 0.050000 0.000000
0.137500 0.062500 0.000000
0.137500 0.075000 0.000000
0.137500 0.087500 0.000000
0.137500 0.100000 0.000000
0.137500 0.112500 0.000000
0.137500 0.125000 0.000000
0.137500 0.137500 0.000000
0.137500 0.150000 0.000000
0.137500 0.162500 0.000000
0.137500 0.175000 0.000000
0.137500 0.187500 0.000000
0.137500 0.200000 0.000000
0.137500 0.212500 0.000000
0.137500 0.225000 0.000000
0.137500 0.237500 0.000000
0.137500 0.250000 0.000000
0.137500 0.262500 0.000000
0.137500 0.275000 0.000000
0.137500 0.287500 0.000000
0.137500 0.300000 0.000000
0.137500 0.312500 0.000000
0.137500 0.325000 0.000000
0.137500 0.337500 0.000000
0.137500 0.350000 0.000000
0.137500 0.362500 0.000000
0.137500 0.375000 0.000000
0.137500 0.387500 0.000000
1.337500 0.400000 0.000000
1.337500 0.412500 0.000000
1.337500 0.425000 0.000000
1.337500 0.437500 0.000000
1.337500 0.450000 0.000000
1.337500 0.462500 0.000000
1.337500 0.475000 0.000000
1.337500 0.487500 0.000000
0.175000 0.000000 0.000000
0.175000 0.012500 0.000000
0.175000 0.025000 0.000000
0.175000 0.037500 0.000000
0.175000 0.050000 0.000000
0.175000 0.062500 0.000000
0.175000 0.075000 0.000000
0.175000 0.087500 0.000000
0.175000 0.100000 0.000000
0.175000 0.112500 0.000000
0.175000 0.125000 0.000000
0.175000 0.137500 0.000000
0.175000 0.150000 0.000000
0.175000 0.162500 0.000000
0.175000 0.175000 0.000000
0.175000 0.187500 0.000000
0.175000 0.200000 0.000000
0.175000 0.212500 0.000000
0.175000 0.225000 0.000000
0.175000 0.237500 0.000000
0.175000 0.250000 0.000000
0.175000 0.262500 0.000000
0.175000 0.275000 0.000000
0.175000 0.287500 0.000000
0.175000 0.300000 0.000000
0.175000 0.312500 0.000000
0.175000 0.325000 0.000000
0.175000 0.337500 0.000000
0.175000 0.350000 0.000000
0.175000 0.362500 0.000000
0.175000 0.375000 0.000000
0.175000 0.387500 0.000000
1.375000 0.400000 0.000000
1.375000 0.412500 0.000000
1.375000 0.425000 0.000000
1.375000 0.437500 0.000000
1.375000 0.450000 0.000000
1.375000 0.462500 0.000000
1.375000 0.475000 0.000000
1.375000 0.487500 0.000000
0.212500 0.000000 0.000000
0.212500 0.012500 0.000000
0.212500 0.025000 0.000000
0.212500 0.037500 0.000000
0.212500 0.050000 0.000000
0.212500 0.062500 0.000000
0.212500 0.075000 0.000000
0.212500 0.087500 0.000000
0.212500 0.100000 0.000000
0.212500 0.112500 0.000000
0.212500 0.125000 0.000000
0.212500 0.137500 0.000000
0.212500 0.150000 0.000000
0.212500 0.162500 0.000000
0.212500 0.175000 0.000000
0.212500 0.187500 0.000000
0.212500 0.200000 0.000000
0.212500 0.212500 0.000000
0.212500 0.225000 0.000000
0.212500 0.237500 0.000000
0.212500 0.250000 0.000000
0.212500 0.262500 0.000000
0.212500 0.275000 0.000000
0.212500 0.287500 0.000000
0.212500 0.300000 0.000000
0.212500 0.312500 0.000000
0.212500 0.325000 0.000000
0.212500 0.337500 0.000000
0.212500 0.350000 0.000000
0.212500 0.362500 0.000000
0.212500 0.375000 0.000000
0.212500 0.387500 0.000000
1.412500 0.400000 0.000000
1.412500 0.412500 0.000000
1.412500 0.425000 0.000000
1.412500 0.437500 0.000000
1.412500 0.450000 0.000000
1.412500 0.462500 0.000000
1.412500 0.475000 0.000000
1.412500 0.487500 0.000000
0.250000 0.000000 0.000000
0.250000 0.012500 0.000000
0.250000 0.025000 0.000000
0.250000 0.037500 0.000000
0.250000 0.050000 0.000000
0.250000 0.062500 0.000000
0.250000 0.075000 0.000000
0.250000 0.087500 0.000000
0.250000 0.100000 0.000000
0.250000 0.112500 0.000000
0.250000 0.125000 0.000000
0.250000 0.137500 0.000000
0.250000 0.150000 0.000000
0.250000 0.162500 0.000000
0.250000 0.175000 0.000000
0.250000 0.187500 0.000000
0.250000 0.200000 0.000000
0.250000 0.212500 0.000000
0.250000 0.225000 0.000000
0.250000 0.237500 0.000000
0.250000 0.250000 0.000000
0.250000 0.262500 0.000000
0.250000 0.275000 0.000000
0.250000 0.287500 0.000000
0.250000 0.300000 0.000000
0.250000 0.312500 0.000000
0.250000 0.325000 0.000000
0.250000 0.337500 0.000000
0.250000 0.350000 0.000000
0.250000 0.362500 0.000000
0.250000 0.375000 0.000000
0.250000 0.387500 0.000000
1.450000 0.400000 0.000000
1.450000 0.412500 0.000000
1.450000 0.425000 0.000000
1.450000 0.437500 0.000000
1.450000 0.450000 0.000000
1.450000 0.462500 0.000000
1.450000 0.475000 0.000000
1.450000 0.487500 0.000000
0.287500 0.000000 0.000000
0.287500 0.012500 0.000000
0.287500 0.025000 0.000000
0.287500 0.037500 0.000000
0.287500 0.050000 0.000000
0.287500 0.062500 0.000000
0.287500 0.075000 0.000000
0.287500 0.087500 0.000000
0.287500 0.100000 0.000000
0.287500 0.112500 0.000000
0.287500 0.125000 0.000000
0.287500 0.137500 0.000000
0.287500 0.150000 0.000000
0.287500 0.162500 0.000000
0.287500 0.175000 0.000000
0.287500 0.187500 0.000000
0.287500 0.200000 0.000000
0.287500 0.212500 0.000000
0.287500 0.225000 0.000000
0.287500 0.237500 0.000000
0.287500 0.250000 0.000000
0.287500 0.262500 0.000000
0.287500 0.275000 0.000000
0.287500 0.287500 0.000000
0.287500 0.300000 0.000000
0.287500 0.312500 0.000000
0.287500 0.325000 0.000000
0.287500 0.337500 0.000000
0.287500 0.350000 0.000000
0.287500 0.362500 0.000000
0.287500 0.375000 0.000000
0.287500 0.387500 0.000000
1.487500 0.400000 0.000000
1.487500 0.412500 0.000000
1.487500 0.425000 0.000000
1.487500 0.437500 0.000000
1.487500 0.450000 0.000000
1.487500 0.462500 0.000000
1.487500 0.475000 0.000000
1.487500 0.487500 0.000000
0.325000 0.000000 0.000000
0.325000 0.012500 0.000000
0.325000 0.025000 0.000000
0.325000 0.037500 0.000000
0.325000 0.050000 0.000000
0.325000 0.062500 0.000000
0.325000 0.075000 0.000000
0.325000 0.087500 0.000000
0.325000 0.100000 0.000000
0.325000 0.112500 0.000000
0.325000 0.125000 0.000000
0.325000 0.137500 0.000000
0.325000 0.150000 0.000000
0.325000 0.162500 0.000000
0.325000 0.175000 0.000000
0.325000 0.187500 0.000000
0.325000 0.200000 0.000000
0.325000 0.212500 0.000000
0.325000 0.225000 0.000000
0.325000 0.237500 0.000000
0.325000 0.250000 0.000000
0.325000 0.262500 0.000000
0.325000 0.275000 0.000000
[...]
<PointData>
<DataArray NumberOfComponents='1' type='Int32' Name='ParticleType' format='ascii'>
5
5
5
5
5
5
5
5
5
5
5
5
5
5
5
5
2
2
2
2
2
2
2
2
2
2
2
2
2
2
2
2
2
2
2
2
2
2
2
2
2
1
1
0
0
0
0
0
5
5
5
5
5
5
5
5
2
2
2
2
2
2
2
2
2
2
2
2
2
2
2
2
2
2
2
2
2
2
2
2
2
1
1
0
0
0
0
0
5
5
5
5
5
5
5
5
2
2
2
2
2
2
2
2
2
2
2
2
2
2
2
2
2
2
2
2
2
2
2
2
2
1
1
0
0
0
0
0
5
5
5
5
5
5
5
5
2
2
2
2
2
2
2
2
2
2
2
2
2
2
2
2
2
2
2
2
2
2
2
2
1
1
0
0
0
0
0
0
5
5
5
5
5
5
5
5
2
2
2
2
2
2
2
2
2
2
2
2
2
2
2
2
2
2
2
2
2
2
2
2
1
1
0
0
0
0
0
0
5
5
5
5
5
5
5
5
2
2
2
2
2
2
2
2
2
2
2
2
2
2
2
2
2
2
2
2
2
2
2
2
1
1
0
0
0
0
0
0
5
5
5
5
5
5
5
5
2
2
2
2
2
2
2
2
2
2
2
2
2
2
2
2
2
2
2
2
2
2
2
2
1
1
0
0
0
0
0
0
5
5
5
5
5
5
5
5
2
2
2
2
2
2
2
2
2
2
2
2
2
2
2
2
2
2
2
2
2
2
2
2
1
1
0
0
0
0
0
0
5
5
5
5
5
5
5
5
2
2
2
2
2
2
2
2
2
2
2
2
2
2
2
2
2
2
2
2
2
2
2
2
1
1
0
0
0
0
0
0
5
5
5
5
5
5
5
5
2
2
2
2
2
2
2
2
2
2
2
2
2
2
2
2
2
2
2
2
2
2
2
2
1
1
0
0
0
0
0
0
5
5
5
5
5
5
5
5
2
2
2
2
2
2
2
2
2
2
2
2
2
2
2
2
2
2
2
2
2
2
2
1
1
0
0
0
0
0
0
0
5
5
5
5
5
5
5
5
2
2
2
2
2
2
2
2
2
2
2
2
2
2
2
2
2
2
2
2
2
2
2
1
1
0
0
0
0
0
0
0
5
5
5
5
5
5
5
5
2
2
2
2
2
2
2
2
2
2
2
2
2
2
2
2
2
2
2
2
2
2
2
2
1
0
0
0
0
0
0
0
5
5
5
5
5
5
5
5
2
2
2
2
2
2
2
2
2
2
2
2
2
2
2
2
2
2
2
2
2
2
2
2
1
0
0
0
0
0
0
0
2
2
2
2
2
2
2
2
2
2
2
2
2
2
2
2
2
2
2
2
2
2
2
2
1
0
0
0
0
0
0
0
2
2
2
2
2
2
2
2
2
2
2
2
2
2
2
2
2
2
2
2
2
2
2
2
1
1
0
0
0
0
0
0
2
2
2
2
2
2
2
2
2
2
2
2
2
2
2
2
2
2
2
2
2
2
2
2
1
1
0
0
0
0
0
0
2
2
2
2
2
2
2
2
2
2
2
2
2
2
2
2
2
2
2
2
2
2
2
2
1
1
0
0
0
0
0
0
2
2
2
2
2
2
2
2
2
2
2
2
2
2
2
2
2
2
2
2
2
2
2
2
1
1
0
0
0
0
0
0
2
2
2
2
2
2
2
2
2
2
2
2
2
2
2
2
2
2
2
2
2
2
2
2
1
1
0
0
0
0
0
0
2
2
2
2
2
2
2
2
2
2
2
2
2
2
2
2
2
2
2
2
2
2
2
2
1
1
0
0
0
0
0
0
2
2
2
2
2
2
2
2
2
2
2
2
2
2
2
2
2
2
2
2
2
2
2
2
2
1
0
0
0
0
0
0
2
2
2
2
2
2
2
2
2
2
2
2
2
2
2
2
2
2
2
2
2
2
2
2
1
1
0
0
0
0
0
0
2
2
2
2
2
2
2
2
2
2
2
2
2
2
2
2
2
2
2
2
2
2
2
2
2
1
1
0
0
0
0
0
2
2
2
2
2
2
2
2
2
2
2
2
2
2
2
2
2
2
2
2
2
2
2
2
2
1
0
0
0
0
0
0
2
2
2
2
2
2
2
2
2
2
2
2
2
2
2
2
2
2
2
2
2
2
2
2
2
1
1
0
0
0
0
0
2
2
2
2
2
2
2
2
2
2
2
2
2
2
2
2
2
2
2
2
2
2
2
2
2
1
1
0
0
0
0
0
2
2
2
2
2
2
2
2
2
2
2
2
2
2
2
2
2
2
2
2
2
2
2
2
2
1
1
0
0
0
0
0
2
2
2
2
2
2
2
2
2
2
2
2
2
2
2
2
2
2
2
2
2
2
2
2
2
1
1
0
0
0
0
0
2
2
2
2
2
2
2
2
2
2
2
2
2
2
2
2
2
2
2
2
2
2
2
2
2
1
1
0
0
0
0
0
2
2
2
2
2
2
2
2
2
2
2
2
2
2
2
2
2
2
2
2
2
2
2
2
2
2
1
0
0
0
0
0
2
2
2
2
2
2
2
2
2
2
2
2
2
2
2
2
2
2
2
2
2
2
2
2
2
1
1
0
0
0
0
0
2
2
2
2
2
2
2
2
2
2
2
2
2
2
2
2
2
2
2
2
2
2
2
2
2
2
1
1
0
0
0
0
2
2
2
2
2
2
2
2
2
2
2
2
2
2
2
2
2
2
2
2
2
2
2
2
2
1
1
0
0
0
0
0
2
2
2
2
2
2
2
2
2
2
2
2
2
2
2
2
2
2
2
2
2
2
2
2
2
2
1
1
0
0
0
0
2
2
2
2
2
2
2
2
2
2
2
2
2
2
2
2
2
2
2
2
2
2
2
2
2
2
1
0
0
0
0
0
2
2
2
2
2
2
2
2
2
2
2
2
2
2
2
2
2
2
2
2
2
2
2
2
2
2
1
1
0
0
0
0
2
2
2
2
2
2
2
2
2
2
2
2
2
2
2
2
2
2
2
2
2
2
2
2
2
2
1
0
0
0
0
0
2
2
2
2
2
2
2
2
2
2
2
2
2
2
2
2
2
2
2
2
2
2
2
2
2
2
2
1
0
0
0
0
2
2
2
2
2
2
2
2
2
2
2
2
2
2
2
2
2
2
2
2
2
2
2
2
2
2
2
0
0
0
0
0
2
2
2
2
2
2
2
2
2
2
2
2
2
2
2
2
2
2
2
2
2
2
2
2
2
2
2
1
0
0
0
0
2
2
2
2
2
2
2
2
2
2
2
2
2
2
2
2
2
2
2
2
2
2
2
2
2
2
2
0
0
0
0
0
2
2
2
2
2
2
2
2
2
2
2
2
2
2
2
2
2
2
2
2
2
2
2
2
2
2
2
2
0
0
0
0
2
2
2
2
2
2
2
2
2
2
2
2
2
2
2
2
2
2
2
2
2
2
2
2
2
2
2
2
2
0
0
0
2
2
2
2
2
2
2
2
2
2
2
2
2
2
2
2
2
2
2
2
2
2
2
2
2
2
2
2
2
0
0
0
2
2
2
2
2
2
2
2
2
2
2
2
2
2
2
2
2
2
2
2
2
2
2
2
2
2
2
2
2
2
2
2
2
2
2
2
2
2
2
2
2
2
2
2
2
2
2
2
2
2
2
2
2
2
2
2
2
2
2
2
2
2
2
2
2
2
2
2
2
2
2
2
2
2
2
2
2
2
2
2
2
2
2
2
2
2
2
2
2
2
2
2
2
2
2
2
2
2
2
2
2
2
2
2
2
2
2
2
2
2
2
2
2
2
2
2
2
2
2
2
2
2
2
2
2
2
2
2
2
2
2
2
2
2
2
2
2
2
2
2
2
2
2
2
2
2
2
2
2
2
2
2
2
2
2
2
2
2
2
2
2
2
2
2
2
2
2
2
2
2
2
2
2
2
2
2
2
2
2
2
2
2
2
2
2
2
2
2
2
2
2
2
2
2
2
2
2
2
2
2
2
2
2
2
2
2
2
2
2
2
2
2
2
2
2
2
2
2
2
2
2
2
2
2
2
2
2
2
2
2
2
2
2
2
2
2
2
2
2
2
2
2
2
2
2
2
2
2
2
2
2
2
2
2
2
2
</DataArray>
<DataArray NumberOfComponents='1' type='Float32' Name='Temperature' format='ascii'>
-3.000000
-3.000000
-3.000000
-3.000000
-3.000000
-3.000000
-3.000000
-3.000000
-3.000000
-3.000000
-3.000000
-3.000000
-3.000000
-3.000000
-3.000000
-3.000000
-4.990410
-4.988420
-4.985015
-4.979393
-4.970959
-4.958854
-4.941931
-4.918716
-4.887366
-4.845632
-4.790834
-4.719850
-4.629125
-4.514709
-4.372317
-4.197432
-3.985431
-3.731774
-3.432261
-3.083391
-2.682865
-2.230261
-1.727421
-1.181883
-0.588012
-0.005429
0.002675
14.296274
34.860580
60.527749
85.735661
108.868123
-3.000000
-3.000000
-3.000000
-3.000000
-3.000000
-3.000000
-3.000000
-3.000000
-4.990148
-4.988092
-4.984572
-4.978754
-4.970015
-4.957452
-4.939857
-4.915668
-4.882924
-4.839218
-4.781667
-4.706894
-4.611048
-4.489859
-4.338749
-4.152999
-3.927998
-3.659543
-3.344216
-2.979790
-2.565633
-2.103172
-1.595251
-1.054334
-0.441690
-0.000714
0.008831
26.666106
55.576490
91.843444
127.767598
161.402090
-3.000000
-3.000000
-3.000000
-3.000000
-3.000000
-3.000000
-3.000000
-3.000000
-4.989999
-4.987908
-4.984330
-4.978416
-4.969534
-4.956769
-4.938897
-4.914338
-4.881109
-4.836785
-4.778458
-4.702733
-4.605735
-4.483172
-4.330436
-4.142768
-3.915496
-3.644335
-3.325759
-2.957414
-2.538553
-2.070569
-1.556106
-1.010166
-0.376449
-0.003054
0.009782
33.915362
71.802734
119.497443
166.943553
211.668124
-3.000000
-3.000000
-3.000000
-3.000000
-3.000000
-3.000000
-3.000000
-3.000000
-4.989898
-4.987781
-4.984156
-4.978162
-4.969156
-4.956204
-4.938057
-4.913102
-4.879311
-4.834196
-4.774769
-4.697516
-4.598395
-4.472853
-4.315865
-4.122006
-3.885553
-3.600657
-3.261638
-2.863491
-2.402768
-1.878420
-1.296184
-0.648567
-0.002825
0.001038
16.394864
45.481908
90.157899
147.959243
206.465943
262.406872
-3.000000
-3.000000
-3.000000
-3.000000
-3.000000
-3.000000
-3.000000
-3.000000
-4.989841
-4.987708
-4.984054
-4.978010
-4.968924
-4.955850
-4.937520
-4.912294
-4.878109
-4.832423
-4.772180
-4.693772
-4.593030
-4.465237
-4.305179
-4.107231
-3.865523
-3.574212
-3.227900
-2.822273
-2.355012
-1.826242
-1.244485
-0.590443
-0.001725
0.007403
20.990831
54.518633
106.401121
174.156329
243.386719
310.395395
-3.000000
-3.000000
-3.000000
-3.000000
-3.000000
-3.000000
-3.000000
-3.000000
-4.989807
-4.987663
-4.983990
-4.977914
-4.968778
-4.955627
-4.937184
-4.911798
-4.877392
-4.831419
-4.770824
-4.692023
-4.590915
-4.462910
-4.303003
-4.105865
-3.865974
-3.577786
-3.235990
-2.835921
-2.374300
-1.849746
-1.268626
-0.612314
-0.006076
0.007003
20.559845
61.080714
121.250115
199.736721
280.235414
359.003833
-3.000000
-3.000000
-3.000000
-3.000000
-3.000000
-3.000000
-3.000000
-3.000000
-4.989786
-4.987636
-4.983951
-4.977854
-4.968682
-4.955477
-4.936950
-4.911436
-4.876836
-4.830570
-4.769531
-4.690059
-4.587935
-4.458405
-4.296236
-4.095831
-3.851402
-3.557244
-3.208153
-2.799997
-2.330567
-1.799660
-1.216967
-0.549164
-0.007628
0.005755
26.335431
69.543631
135.921506
223.725768
314.818783
405.171925
-3.000000
-3.000000
-3.000000
-3.000000
-3.000000
-3.000000
-3.000000
-3.000000
-4.989774
-4.987619
-4.983925
-4.977813
-4.968615
-4.955367
-4.936771
-4.911145
-4.876366
-4.829815
-4.768325
-4.688151
-4.584953
-4.453822
-4.289348
-4.085759
-3.837151
-3.537844
-3.182868
-2.768592
-2.293545
-1.758122
-1.174255
-0.496126
-0.006169
0.005425
31.188506
77.622191
150.259793
247.563899
349.645902
452.390214
-3.000000
-3.000000
-3.000000
-3.000000
-3.000000
-3.000000
-3.000000
-3.000000
-4.989767
-4.987609
-4.983911
-4.977789
-4.968576
-4.955303
-4.936666
-4.910974
-4.876092
-4.829381
-4.767647
-4.687107
-4.583373
-4.451476
-4.285943
-4.080942
-3.830530
-3.529018
-3.171480
-2.754367
-2.276325
-1.737717
-1.151370
-0.464356
0.002121
0.007041
34.077080
84.069511
162.843490
269.380448
382.188478
497.358883
-3.000000
-3.000000
-3.000000
-3.000000
-3.000000
-3.000000
-3.000000
-3.000000
-4.989762
-4.987602
-4.983900
-4.977771
-4.968546
-4.955253
-4.936582
-4.910838
-4.875874
-4.829035
-4.767109
-4.686286
-4.582149
-4.449697
-4.283426
-4.077489
-3.825946
-3.523138
-3.164190
-2.745603
-2.266032
-1.725642
-1.138106
-0.443032
-0.006386
0.009821
36.792743
90.268177
175.148887
291.121821
415.141683
543.777247
-3.000000
-3.000000
-3.000000
-3.000000
-3.000000
-3.000000
-3.000000
-3.000000
-4.989761
-4.987600
-4.983896
-4.977764
-4.968533
-4.955228
-4.936540
-4.910765
-4.875751
-4.828834
-4.766790
-4.685792
-4.581400
-4.448589
-4.281813
-4.075145
-3.822446
-3.517518
-3.154036
-2.724867
-2.220489
-1.624431
-0.932156
-0.003054
-0.005687
7.985760
39.633983
95.844782
186.196282
311.080540
445.954151
588.148506
-3.000000
-3.000000
-3.000000
-3.000000
-3.000000
-3.000000
-3.000000
-3.000000
-4.989773
-4.987613
-4.983910
-4.977778
-4.968546
-4.955239
-4.936543
-4.910756
-4.875725
-4.828791
-4.766740
-4.685768
-4.581476
-4.448895
-4.282563
-4.076665
-3.825227
-3.522351
-3.162340
-2.739360
-2.245952
-1.666395
-0.993207
-0.007255
-0.000385
6.628334
39.450908
99.647713
196.193514
330.643860
477.117068
634.266302
-3.000000
-3.000000
-3.000000
-3.000000
-3.000000
-3.000000
-3.000000
-3.000000
-4.989743
-4.987557
-4.983804
-4.977579
-4.968182
-4.954597
-4.935446
-4.908931
-4.872766
-4.824114
-4.759534
-4.674955
-4.565689
-4.426512
-4.251807
-4.035808
-3.772940
-3.458240
-3.087833
-2.659368
-2.172355
-1.625623
-1.029937
-0.236809
-0.003206
2.892109
46.360614
106.952021
206.428124
348.119358
505.142559
677.321571
-3.000000
-3.000000
-3.000000
-3.000000
-3.000000
-3.000000
-3.000000
-3.000000
-4.989244
-4.986910
-4.982903
-4.976259
-4.966241
-4.951781
-4.931451
-4.903402
-4.865317
-4.814356
-4.747118
-4.659634
-4.547384
-4.405370
-4.228244
-4.010518
-3.746846
-3.432385
-3.063208
-2.636645
-2.151383
-1.604021
-1.001637
-0.161092
0.003723
3.793671
48.157611
113.684250
217.964879
366.105005
531.738894
718.019428
-4.990652
-4.988538
-4.984892
-4.978821
-4.969616
-4.956255
-4.937356
-4.911133
-4.875329
-4.827171
-4.763327
-4.679884
-4.572364
-4.435775
-4.264715
-4.053547
-3.796647
-3.488747
-3.125363
-2.703290
-2.221273
-1.678924
-1.090797
-0.372755
-0.002364
0.766270
43.827848
108.473669
212.807917
363.986608
536.069736
735.788383
-4.992779
-4.991062
-4.988086
-4.983098
-4.975475
-4.964308
-4.948359
-4.926004
-4.895165
-4.853252
-4.797106
-4.722958
-4.626416
-4.502484
-4.345612
-4.149809
-3.908807
-3.616324
-3.266447
-2.854177
-2.376262
-1.831010
-1.228954
-0.517859
-0.007089
0.006010
34.347854
97.058364
202.002861
357.636126
537.927173
754.087796
-4.993974
-4.992442
-4.989765
-4.985242
-4.978258
-4.967915
-4.952979
-4.931812
-4.902305
-4.861805
-4.807054
-4.734143
-4.638494
-4.514884
-4.357514
-4.160146
-3.916317
-3.619670
-3.264408
-2.845887
-2.361465
-1.810067
-1.203954
-0.483770
-0.001618
0.007944
37.244882
98.465856
201.103560
357.353954
542.901610
774.758319
-4.995467
-4.994250
-4.992111
-4.988467
-4.982789
-4.974292
-4.961887
-4.944108
-4.919040
-4.884237
-4.836652
-4.772570
-4.687580
-4.576571
-4.433773
-4.252844
-4.026995
-3.749155
-3.412212
-3.009386
-2.534975
-1.984895
-1.364248
-0.644491
0.001913
0.007805
25.871488
85.952243
189.218389
349.821279
544.003361
796.125558
-4.996337
-4.995280
-4.993403
-4.990174
-4.985079
-4.977354
-4.965920
-4.949313
-4.925597
-4.892276
-4.846211
-4.783548
-4.699684
-4.589257
-4.446197
-4.263820
-4.034998
-3.752402
-3.408880
-2.998030
-2.515120
-1.957419
-1.333095
-0.604369
-0.002337
0.005235
29.650699
87.622193
187.608145
348.147449
547.688735
819.661599
-4.997333
-4.996518
-4.995061
-4.992532
-4.988501
-4.982318
-4.973056
-4.959438
-4.939748
-4.911735
-4.872517
-4.818491
-4.745276
-4.647679
-4.519736
-4.354807
-4.145743
-3.885086
-3.565230
-3.178461
-2.716859
-2.172305
-1.539288
-0.809947
0.001534
0.005847
16.423173
74.306778
174.754352
339.218563
547.544504
844.770144
-4.997930
-4.997247
-4.996011
-4.993839
-4.990324
-4.984844
-4.976499
-4.964026
-4.945705
-4.919249
-4.881693
-4.829298
-4.757481
-4.660787
-4.532926
-4.366869
-4.155005
-3.889321
-3.561608
-3.163717
-2.688123
-2.128683
-1.486588
-0.745634
-0.002943
0.002398
21.445422
76.393132
172.384954
335.863049
549.340652
871.897848
-4.998550
-4.998041
-4.997114
-4.995468
-4.992772
-4.988515
-4.981946
-4.971997
-4.957186
-4.935510
-4.904321
-4.860210
-4.798900
-4.715175
-4.602868
-4.454929
-4.263614
-4.020798
-3.718445
-3.349175
-2.906763
-2.386173
-1.778431
-1.087094
-0.041558
0.004221
5.826558
62.465725
158.654103
325.272841
547.238444
901.619718
-4.998929
-4.998522
-4.997770
-4.996413
-4.994151
-4.990507
-4.984772
-4.975911
-4.962463
-4.942411
-4.913044
-4.870820
-4.811245
-4.728800
-4.616943
-4.468223
-4.274509
-4.027329
-3.718205
-3.338779
-2.880415
-2.333267
-1.685033
-0.931955
-0.003329
-0.000244
12.514444
65.104282
155.467358
319.899746
546.281839
933.284038
-4.999284
-4.998994
-4.998452
-4.997463
-4.995790
-4.993057
-4.988689
-4.981841
-4.971294
-4.955339
-4.931637
-4.897068
-4.847581
-4.778071
-4.682290
-4.552854
-4.381343
-4.158571
-3.875041
-3.521618
-3.090423
-2.576071
-1.975134
-1.302791
-0.472050
0.003184
0.008401
50.717255
140.994481
307.345439
541.185250
968.754463
-4.999503
-4.999285
-4.998869
-4.998096
-4.996760
-4.994528
-4.990876
-4.985013
-4.975771
-4.961468
-4.939743
-4.907376
-4.860104
-4.792469
-4.697729
-4.567890
-4.393916
-4.166152
-3.874990
-3.511751
-3.069678
-2.545020
-1.935335
-1.254677
-0.359892
-0.002275
2.626389
54.236693
137.003545
299.605530
536.243074
1006.199673
-4.999687
-4.999539
-4.999254
-4.998717
-4.997773
-4.996168
-4.993495
-4.989130
-4.982133
-4.971127
-4.954145
-4.928454
-4.890362
-4.835035
-4.756338
-4.646750
-4.497375
-4.298102
-4.037946
-3.705640
-3.290528
-2.783990
-2.180103
-1.487641
-0.653891
0.002391
0.004670
38.335103
121.777361
284.788035
526.655370
1048.911155
-4.999799
-4.999695
-4.999492
-4.999100
-4.998394
-4.997160
-4.995051
-4.991511
-4.985680
-4.976257
-4.961321
-4.938120
-4.902824
-4.850274
-4.773770
-4.664954
-4.513881
-4.309354
-4.039608
-3.693361
-3.261178
-2.737139
-2.118856
-1.421373
-0.577637
-0.003556
0.007802
44.086282
117.216570
274.325092
515.955302
1093.786988
-4.999883
-4.999818
-4.999687
-4.999432
-4.998962
-4.998124
-4.996660
-4.994153
-4.989941
-4.983002
-4.971802
-4.954100
-4.926717
-4.885293
-4.824050
-4.735610
-4.610921
-4.439334
-4.208844
-3.906479
-3.518804
-3.032675
-2.436243
-1.725749
-0.881499
-0.008391
0.004375
24.841313
101.412019
257.022321
499.691388
1145.707061
-4.999934
-4.999893
-4.999811
-4.999647
-4.999336
-4.998766
-4.997743
-4.995942
-4.992834
-4.987575
-4.978861
-4.964727
-4.942306
-4.907544
-4.854918
-4.777179
-4.665218
-4.508109
-4.293395
-4.007585
-3.636699
-3.166543
-2.582626
-1.870827
-1.023145
-0.002029
0.002355
17.098540
90.932046
240.894583
479.730326
1203.606027
-4.999963
-4.999939
-4.999888
-4.999783
-4.999579
-4.999192
-4.998473
-4.997166
-4.994833
-4.990750
-4.983752
-4.972010
-4.952738
-4.921823
-4.873399
-4.799414
-4.689285
-4.529789
-4.305406
-3.999311
-3.595221
-3.080136
-2.446839
-1.703371
-0.826177
-0.005470
0.002482
29.602519
85.837241
225.791529
455.182023
1264.139109
-4.999982
-4.999969
-4.999940
-4.999880
-4.999760
-4.999526
-4.999079
-4.998241
-4.996703
-4.993940
-4.989078
-4.980714
-4.966657
-4.943593
-4.906697
-4.849208
-4.762064
-4.633711
-4.450266
-4.196180
-3.855565
-3.414112
-2.861497
-2.190335
-1.416210
-0.344713
-0.004891
3.747237
71.265864
204.742232
425.032874
1375.368311
-4.999991
-4.999984
-4.999969
-4.999936
-4.999866
-4.999725
-4.999446
-4.998903
-4.997869
-4.995938
-4.992407
-4.986097
-4.975072
-4.956264
-4.924966
-4.874213
-4.794105
-4.671194
-4.488161
-4.224140
-3.856132
-3.362072
-2.725461
-1.944333
-1.020126
-0.006040
-0.000922
21.146776
65.479776
186.286743
393.879799
1334.684282
-4.999996
-4.999993
-4.999986
-4.999969
-4.999933
-4.999857
-4.999702
-4.999389
-4.998772
-4.997579
-4.995325
-4.991163
-4.983661
-4.970471
-4.947887
-4.910270
-4.849408
-4.753913
-4.608859
-4.395970
-4.094712
-3.684550
-3.148586
-2.476178
-1.681953
-0.689705
-0.006815
0.006954
53.347116
164.946561
360.327445
1288.834441
-4.999999
-4.999997
-4.999994
-4.999986
-4.999968
-4.999930
-4.999846
-4.999671
-4.999310
-4.998581
-4.997141
-4.994360
-4.989119
-4.979480
-4.962211
-4.932098
-4.881063
-4.797107
-4.663242
-4.456670
-4.148676
-3.705890
-3.094192
-2.285477
-1.287238
-0.006429
-0.003885
14.001222
47.005516
146.281478
327.213622
1239.947289
-5.000000
-4.999999
-4.999998
-4.999994
-4.999987
-4.999969
-4.999930
-4.999844
-4.999658
-4.999265
-4.998456
-4.996826
-4.993624
-4.987495
-4.976078
-4.955408
-4.919093
-4.857291
-4.755626
-4.594351
-4.348342
-3.988693
-3.486807
-2.820265
-1.989703
-0.963263
-0.008240
0.002256
37.257467
126.150083
292.199489
1184.696508
-5.000000
-5.000000
-4.999999
-4.999998
-4.999995
-4.999988
-4.999971
-4.999932
-4.999842
-4.999644
-4.999212
-4.998295
-4.996396
-4.992560
-4.985021
-4.970611
-4.943873
-4.895787
-4.812134
-4.671662
-4.444535
-4.091858
-3.567502
-2.820102
-1.827604
-0.329096
-0.006125
8.283097
31.038714
108.022467
257.726611
1125.277585
-5.000000
-5.000000
-5.000000
-4.999999
-4.999998
-4.999996
-4.999990
-4.999974
-4.999938
-4.999851
-4.999653
-4.999207
-4.998232
-4.996154
-4.991848
-4.983186
-4.966290
-4.934399
-4.876264
-4.774146
-4.601770
-4.323119
-3.893718
-3.266762
-2.408760
-1.311965
-0.009163
-0.002401
23.503111
89.530611
221.940952
1057.679462
-5.000000
-5.000000
-5.000000
-5.000000
-5.000000
-4.999999
-4.999997
-4.999992
-4.999979
-4.999946
-4.999865
-4.999671
-4.999219
-4.998189
-4.995909
-4.991007
-4.980784
-4.960141
-4.919857
-4.844034
-4.706713
-4.468137
-4.072137
-3.447124
-2.525228
-1.176742
-0.007466
4.065016
18.070225
72.813580
187.171416
984.400517
-5.000000
-5.000000
-5.000000
-5.000000
-5.000000
-5.000000
-4.999999
-4.999998
-4.999994
-4.999984
-4.999958
-4.999889
-4.999717
-4.999294
-4.998287
-4.995958
-4.990738
-4.979430
-4.955802
-4.908315
-4.816795
-4.648225
-4.352566
-3.860835
-3.083671
-1.964350
-0.050411
-0.006147
12.610957
56.607239
151.960803
900.398515
-5.000000
-5.000000
-5.000000
-5.000000
-5.000000
-5.000000
-5.000000
-5.000000
-4.999999
-4.999996
-4.999990
-4.999970
-4.999917
-4.999775
-4.999405
-4.998471
-4.996188
-4.990785
-4.978450
-4.951346
-4.894191
-4.778901
-4.557253
-4.152774
-3.452895
-2.326234
-0.442466
1.317127
8.487584
42.294396
118.720289
808.625050
-5.000000
-5.000000
-5.000000
-5.000000
-5.000000
-5.000000
-5.000000
-5.000000
-5.000000
-4.999999
-4.999998
-4.999994
-4.999983
-4.999949
-4.999850
-4.999572
-4.998818
-4.996834
-4.991799
-4.979504
-4.950707
-4.886240
-4.748937
-4.472383
-3.949369
-3.041271
-1.505414
-0.007969
4.990915
29.244465
86.472888
702.575864
-5.000000
-5.000000
-5.000000
-5.000000
-5.000000
-5.000000
-5.000000
-5.000000
-5.000000
-5.000000
-5.000000
-4.999999
-4.999998
-4.999992
-4.999975
-4.999919
-4.999745
-4.999226
-4.997724
-4.993544
-4.982383
-4.953910
-4.884801
-4.725950
-4.381950
-3.680944
-2.373736
0.057844
2.483462
18.439102
57.824024
585.805900
-5.000000
-5.000000
-5.000000
-5.000000
-5.000000
-5.000000
-5.000000
-5.000000
-5.000000
-5.000000
-5.000000
-5.000000
-5.000000
-4.999999
-4.999998
-4.999992
-4.999972
-4.999900
-4.999654
-4.998836
-4.996231
-4.988270
-4.965097
-4.901243
-4.735902
-4.337660
-3.463718
-1.623047
0.791271
9.610088
32.555027
449.729026
-5.000000
-5.000000
-5.000000
-5.000000
-5.000000
-5.000000
-5.000000
-5.000000
-5.000000
-5.000000
-5.000000
-5.000000
-5.000000
-5.000000
-5.000000
-5.000000
-4.999999
-4.999995
-4.999981
-4.999920
-4.999676
-4.998723
-4.995149
-4.982365
-4.939115
-4.802263
-4.396200
-3.349728
-0.355020
3.503301
13.541375
298.765802
-5.000000
-5.000000
-5.000000
-5.000000
-5.000000
-5.000000
-5.000000
-5.000000
-5.000000
-5.000000
-5.000000
-5.000000
-5.000000
-5.000000
-5.000000
-5.000000
-5.000000
-5.000000
-5.000000
-4.999999
-4.999996
-4.999980
-4.999912
-4.999590
-4.998028
-4.990339
-4.951777
-4.769270
-3.990522
0.225002
1.908321
121.429133
-5.000000
-5.000000
-5.000000
-5.000000
-5.000000
-5.000000
-5.000000
-5.000000
-5.000000
-5.000000
-5.000000
-5.000000
-5.000000
-5.000000
-5.000000
-5.000000
-5.000000
-5.000000
-5.000000
-5.000000
-5.000000
-5.000000
-4.999999
-4.999998
-4.999990
-4.999952
-4.999775
-4.998969
-4.995631
-4.980169
-4.953041
-4.690375
-5.000000
-5.000000
-5.000000
-5.000000
-5.000000
-5.000000
-5.000000
-5.000000
-5.000000
-5.000000
-5.000000
-5.000000
-5.000000
-5.000000