<?xml version='1.0' encoding='UTF-8'?>
<VTKFile xmlns='VTK' byte_order='LittleEndian' version='0.1' type='UnstructuredGrid'>
<UnstructuredGrid>
<Piece NumberOfCells='1816' NumberOfPoints='1816'>
<Points>
<DataArray NumberOfComponents='3' type='Float32' Name='Position' format='ascii'>
0.610000 0.400000 0.000000
0.610000 0.412500 0.000000
0.610000 0.425000 0.000000
0.610000 0.437500 0.000000
0.610000 0.450000 0.000000
0.610000 0.462500 0.000000
0.610000 0.475000 0.000000
0.610000 0.487500 0.000000
0.647500 0.400000 0.000000
0.647500 0.412500 0.000000
0.647500 0.425000 0.000000
0.647500 0.437500 0.000000
0.647500 0.450000 0.000000
0.647500 0.462500 0.000000
0.647500 0.475000 0.000000
0.647500 0.487500 0.000000
0.025000 0.000000 0.000000
0.025000 0.012500 0.000000
0.025000 0.025000 0.000000
0.025000 0.037500 0.000000
0.025000 0.050000 0.000000
0.025000 0.062500 0.000000
0.025000 0.075000 0.000000
0.025000 0.087500 0.000000
0.025000 0.100000 0.000000
0.025000 0.112500 0.000000
0.025000 0.125000 0.000000
0.025000 0.137500 0.000000
0.025000 0.150000 0.000000
0.025000 0.162500 0.000000
0.025000 0.175000 0.000000
0.025000 0.187500 0.000000
0.025000 0.200000 0.000000
0.025000 0.212500 0.000000
0.025000 0.225000 0.000000
0.025000 0.237500 0.000000
0.025000 0.250000 0.000000
0.025000 0.262500 0.000000
0.025000 0.275000 0.000000
0.025000 0.287500 0.000000
0.025000 0.300000 0.000000
0.025000 0.312500 0.000000
0.025000 0.325000 0.000000
0.025000 0.337500 0.000000
0.025000 0.350000 0.000000
0.025000 0.362500 0.000000
0.025000 0.375000 0.000000
0.025000 0.387500 0.000000
0.685000 0.400000 0.000000
0.685000 0.412500 0.000000
0.685000 0.425000 0.000000
0.685000 0.437500 0.000000
0.685000 0.450000 0.000000
0.685000 0.462500 0.000000
0.685000 0.475000 0.000000
0.685000 0.487500 0.000000
0.062500 0.000000 0.000000
0.062500 0.012500 0.000000
0.062500 0.025000 0.000000
0.062500 0.037500 0.000000
0.062500 0.050000 0.000000
0.062500 0.062500 0.000000
0.062500 0.075000 0.000000
0.062500 0.087500 0.000000
0.062500 0.100000 0.000000
0.062500 0.112500 0.000000
0.062500 0.125000 0.000000
0.062500 0.137500 0.000000
0.062500 0.150000 0.000000
0.062500 0.162500 0.000000
0.062500 0.175000 0.000000
0.062500 0.187500 0.000000
0.062500 0.200000 0.000000
0.062500 0.212500 0.000000
0.062500 0.225000 0.000000
0.062500 0.237500 0.000000
0.062500 0.250000 0.000000
0.062500 0.262500 0.000000
0.062500 0.275000 0.000000
0.062500 0.287500 0.000000
0.062500 0.300000 0.000000
0.062500 0.312500 0.000000
0.062500 0.325000 0.000000
0.062500 0.337500 0.000000
0.062500 0.350000 0.000000
0.062500 0.362500 0.000000
0.062500 0.375000 0.000000
0.062500 0.387500 0.000000
0.722500 0.400000 0.000000
0.722500 0.412500 0.000000
0.722500 0.425000 0.000000
0.722500 0.437500 0.000000
0.722500 0.450000 0.000000
0.722500 0.462500 0.000000
0.722500 0.475000 0.000000
0.722500 0.487500 0.000000
0.100000 0.000000 0.000000
0.100000 0.012500 0.000000
0.100000 0.025000 0.000000
0.100000 0.037500 0.000000
0.100000 0.050000 0.000000
0.100000 0.062500 0.000000
0.100000 0.075000 0.000000
0.100000 0.087500 0.000000
0.100000 0.100000 0.000000
0.100000 0.112500 0.000000
0.100000 0.125000 0.000000
0.100000 0.137500 0.000000
0.100000 0.150000 0.000000
0.100000 0.162500 0.000000
0.100000 0.175000 0.000000
0.100000 0.187500 0.000000
0.100000 0.200000 0.000000
0.100000 0.212500 0.000000
0.100000 0.225000 0.000000
0.100000 0.237500 0.000000
0.100000 0.250000 0.000000
0.100000 0.262500 0.000000
0.100000 0.275000 0.000000
0.100000 0.287500 0.000000
0.100000 0.300000 0.000000
0.100000 0.312500 0.000000
0.100000 0.325000 0.000000
0.100000 0.337500 0.000000
0.100000 0.350000 0.000000
0.100000 0.362500 0.000000
0.100000 0.375000 0.000000
0.100000 0.387500 0.000000
0.760000 0.400000 0.000000
0.760000 0.412500 0.000000
0.760000 0.425000 0.000000
0.760000 0.437500 0.000000
0.760000 0.450000 0.000000
0.760000 0.462500 0.000000
0.760000 0.475000 0.000000
0.760000 0.487500 0.000000
0.137500 0.000000 0.000000
0.137500 0.012500 0.000000
0.137500 0.025000 0.000000
0.137500 0.037500 0.000000
0.137500 0.050000 0.000000
0.137500 0.062500 0.000000
0.137500 0.075000 0.000000
0.137500 0.087500 0.000000
0.137500 0.100000 0.000000
0.137500 0.112500 0.000000
0.137500 0.125000 0.000000
0.137500 0.137500 0.000000
0.137500 0.150000 0.000000
0.137500 0.162500 0.000000
0.137500 0.175000 0.000000
0.137500 0.187500 0.000000
0.137500 0.200000 0.000000
0.137500 0.212500 0.000000
0.137500 0.225000 0.000000
0.137500 0.237500 0.000000
0.137500 0.250000 0.000000
0.137500 0.262500 0.000000
0.137500 0.275000 0.000000
0.137500 0.287500 0.000000
0.137500 0.300000 0.000000
0.137500 0.312500 0.000000
0.137500 0.325000 0.000000
0.137500 0.337500 0.000000
0.137500 0.350000 0.000000
0.137500 0.362500 0.000000
0.137500 0.375000 0.000000
0.137500 0.387500 0.000000
0.797500 0.400000 0.000000
0.797500 0.412500 0.000000
0.797500 0.425000 0.000000
0.797500 0.437500 0.000000
0.797500 0.450000 0.000000
0.797500 0.462500 0.000000
0.797500 0.475000 0.000000
0.797500 0.487500 0.000000
0.175000 0.000000 0.000000
0.175000 0.012500 0.000000
0.175000 0.025000 0.000000
0.175000 0.037500 0.000000
0.175000 0.050000 0.000000
0.175000 0.062500 0.000000
0.175000 0.075000 0.000000
0.175000 0.087500 0.000000
0.175000 0.100000 0.000000
0.175000 0.112500 0.000000
0.175000 0.125000 0.000000
0.175000 0.137500 0.000000
0.175000 0.150000 0.000000
0.175000 0.162500 0.000000
0.175000 0.175000 0.000000
0.175000 0.187500 0.000000
0.175000 0.200000 0.000000
0.175000 0.212500 0.000000
0.175000 0.225000 0.000000
0.175000 0.237500 0.000000
0.175000 0.250000 0.000000
0.175000 0.262500 0.000000
0.175000 0.275000 0.000000
0.175000 0.287500 0.000000
0.175000 0.300000 0.000000
0.175000 0.312500 0.000000
0.175000 0.325000 0.000000
0.175000 0.337500 0.000000
0.175000 0.350000 0.000000
0.175000 0.362500 0.000000
0.175000 0.375000 0.000000
0.175000 0.387500 0.000000
0.835000 0.400000 0.000000
0.835000 0.412500 0.000000
0.835000 0.425000 0.000000
0.835000 0.437500 0.000000
0.835000 0.450000 0.000000
0.835000 0.462500 0.000000
0.835000 0.475000 0.000000
0.835000 0.487500 0.000000
0.212500 0.000000 0.000000
0.212500 0.012500 0.000000
0.212500 0.025000 0.000000
0.212500 0.037500 0.000000
0.212500 0.050000 0.000000
0.212500 0.062500 0.000000
0.212500 0.075000 0.000000
0.212500 0.087500 0.000000
0.212500 0.100000 0.000000
0.212500 0.112500 0.000000
0.212500 0.125000 0.000000
0.212500 0.137500 0.000000
0.212500 0.150000 0.000000
0.212500 0.162500 0.000000
0.212500 0.175000 0.000000
0.212500 0.187500 0.000000
0.212500 0.200000 0.000000
0.212500 0.212500 0.000000
0.212500 0.225000 0.000000
0.212500 0.237500 0.000000
0.212500 0.250000 0.000000
0.212500 0.262500 0.000000
0.212500 0.275000 0.000000
0.212500 0.287500 0.000000
0.212500 0.300000 0.000000
0.212500 0.312500 0.000000
0.212500 0.325000 0.000000
0.212500 0.337500 0.000000
0.212500 0.350000 0.000000
0.212500 0.362500 0.000000
0.212500 0.375000 0.000000
0.212500 0.387500 0.000000
0.872500 0.400000 0.000000
0.872500 0.412500 0.000000
0.872500 0.425000 0.000000
0.872500 0.437500 0.000000
0.872500 0.450000 0.000000
0.872500 0.462500 0.000000
0.872500 0.475000 0.000000
0.872500 0.487500 0.000000
0.250000 0.000000 0.000000
0.250000 0.012500 0.000000
0.250000 0.025000 0.000000
0.250000 0.037500 0.000000
0.250000 0.050000 0.000000
0.250000 0.062500 0.000000
0.250000 0.075000 0.000000
0.250000 0.087500 0.000000
0.250000 0.100000 0.000000
0.250000 0.112500 0.000000
0.250000 0.125000 0.000000
0.250000 0.137500 0.000000
0.250000 0.150000 0.000000
0.250000 0.162500 0.000000
0.250000 0.175000 0.000000
0.250000 0.187500 0.000000
0.250000 0.200000 0.000000
0.250000 0.212500 0.000000
0.250000 0.225000 0.000000
0.250000 0.237500 0.000000
0.250000 0.250000 0.000000
0.250000 0.262500 0.000000
0.250000 0.275000 0.000000
0.250000 0.287500 0.000000
0.250000 0.300000 0.000000
0.250000 0.312500 0.000000
0.250000 0.325000 0.000000
0.250000 0.337500 0.000000
0.250000 0.350000 0.000000
0.250000 0.362500 0.000000
0.250000 0.375000 0.000000
0.250000 0.387500 0.000000
0.910000 0.400000 0.000000
0.910000 0.412500 0.000000
0.910000 0.425000 0.000000
0.910000 0.437500 0.000000
0.910000 0.450000 0.000000
0.910000 0.462500 0.000000
0.910000 0.475000 0.000000
0.910000 0.487500 0.000000
0.287500 0.000000 0.000000
0.287500 0.012500 0.000000
0.287500 0.025000 0.000000
0.287500 0.037500 0.000000
0.287500 0.050000 0.000000
0.287500 0.062500 0.000000
0.287500 0.075000 0.000000
0.287500 0.087500 0.000000
0.287500 0.100000 0.000000
0.287500 0.112500 0.000000
0.287500 0.125000 0.000000
0.287500 0.137500 0.000000
0.287500 0.150000 0.000000
0.287500 0.162500 0.000000
0.287500 0.175000 0.000000
0.287500 0.187500 0.000000
0.287500 0.200000 0.000000
0.287500 0.212500 0.000000
0.287500 0.225000 0.000000
0.287500 0.237500 0.000000
0.287500 0.250000 0.000000
0.287500 0.262500 0.000000
0.287500 0.275000 0.000000
0.287500 0.287500 0.000000
0.287500 0.300000 0.000000
0.287500 0.312500 0.000000
0.287500 0.325000 0.000000
0.287500 0.337500 0.000000
0.287500 0.350000 0.000000
0.287500 0.362500 0.000000
0.287500 0.375000 0.000000
0.287500 0.387500 0.000000
0.947500 0.400000 0.000000
0.947500 0.412500 0.000000
0.947500 0.425000 0.000000
0.947500 0.437500 0.000000
0.947500 0.450000 0.000000
0.947500 0.462500 0.000000
0.947500 0.475000 0.000000
0.947500 0.487500 0.000000
0.325000 0.000000 0.000000
0.325000 0.012500 0.000000
0.325000 0.025000 0.000000
0.325000 0.037500 0.000000
0.325000 0.050000 0.000000
0.325000 0.062500 0.000000
0.325000 0.075000 0.000000
0.325000 0.087500 0.000000
0.325000 0.100000 0.000000
0.325000 0.112500 0.000000
0.325000 0.125000 0.000000
0.325000 0.137500 0.000000
0.325000 0.150000 0.000000
0.325000 0.162500 0.000000
0.325000 0.175000 0.000000
0.325000 0.187500 0.000000
0.325000 0.200000 0.000000
0.325000 0.212500 0.000000
0.325000 0.225000 0.000000
0.325000 0.237500 0.000000
0.325000 0.250000 0.000000
0.325000 0.262500 0.000000
0.325000 0.275000 0.000000
[...]
<PointData>
<DataArray NumberOfComponents='1' type='Int32' Name='ParticleType' format='ascii'>
5
5
5
5
5
5
5
5
5
5
5
5
5
5
5
5
2
2
2
2
2
2
2
2
2
2
2
2
2
2
2
2
2
2
2
2
2
2
2
2
2
2
1
1
0
0
0
0
5
5
5
5
5
5
5
5
2
2
2
2
2
2
2
2
2
2
2
2
2
2
2
2
2
2
2
2
2
2
2
2
2
2
1
0
0
0
0
0
5
5
5
5
5
5
5
5
2
2
2
2
2
2
2
2
2
2
2
2
2
2
2
2
2
2
2
2
2
2
2
2
2
2
1
1
0
0
0
0
5
5
5
5
5
5
5
5
2
2
2
2
2
2
2
2
2
2
2
2
2
2
2
2
2
2
2
2
2
2
2
2
2
2
1
0
0
0
0
0
5
5
5
5
5
5
5
5
2
2
2
2
2
2
2
2
2
2
2
2
2
2
2
2
2
2
2
2
2
2
2
2
2
1
1
0
0
0
0
0
5
5
5
5
5
5
5
5
2
2
2
2
2
2
2
2
2
2
2
2
2
2
2
2
2
2
2
2
2
2
2
2
2
1
1
0
0
0
0
0
5
5
5
5
5
5
5
5
2
2
2
2
2
2
2
2
2
2
2
2
2
2
2
2
2
2
2
2
2
2
2
2
2
1
1
0
0
0
0
0
5
5
5
5
5
5
5
5
2
2
2
2
2
2
2
2
2
2
2
2
2
2
2
2
2
2
2
2
2
2
2
2
2
1
1
0
0
0
0
0
5
5
5
5
5
5
5
5
2
2
2
2
2
2
2
2
2
2
2
2
2
2
2
2
2
2
2
2
2
2
2
2
2
1
1
0
0
0
0
0
5
5
5
5
5
5
5
5
2
2
2
2
2
2
2
2
2
2
2
2
2
2
2
2
2
2
2
2
2
2
2
2
2
1
1
0
0
0
0
0
5
5
5
5
5
5
5
5
2
2
2
2
2
2
2
2
2
2
2
2
2
2
2
2
2
2
2
2
2
2
2
2
2
1
1
0
0
0
0
0
5
5
5
5
5
5
5
5
2
2
2
2
2
2
2
2
2
2
2
2
2
2
2
2
2
2
2
2
2
2
2
2
2
1
1
0
0
0
0
0
5
5
5
5
5
5
5
5
2
2
2
2
2
2
2
2
2
2
2
2
2
2
2
2
2
2
2
2
2
2
2
2
2
1
0
0
0
0
0
0
5
5
5
5
5
5
5
5
2
2
2
2
2
2
2
2
2
2
2
2
2
2
2
2
2
2
2
2
2
2
2
2
2
1
1
0
0
0
0
0
2
2
2
2
2
2
2
2
2
2
2
2
2
2
2
2
2
2
2
2
2
2
2
2
2
1
1
0
0
0
0
0
2
2
2
2
2
2
2
2
2
2
2
2
2
2
2
2
2
2
2
2
2
2
2
2
2
1
1
0
0
0
0
0
2
2
2
2
2
2
2
2
2
2
2
2
2
2
2
2
2
2
2
2
2
2
2
2
2
1
1
0
0
0
0
0
2
2
2
2
2
2
2
2
2
2
2
2
2
2
2
2
2
2
2
2
2
2
2
2
2
2
1
1
0
0
0
0
2
2
2
2
2
2
2
2
2
2
2
2
2
2
2
2
2
2
2
2
2
2
2
2
2
1
1
0
0
0
0
0
2
2
2
2
2
2
2
2
2
2
2
2
2
2
2
2
2
2
2
2
2
2
2
2
2
2
1
1
0
0
0
0
2
2
2
2
2
2
2
2
2
2
2
2
2
2
2
2
2
2
2
2
2
2
2
2
2
2
1
0
0
0
0
0
2
2
2
2
2
2
2
2
2
2
2
2
2
2
2
2
2
2
2
2
2
2
2
2
2
2
1
1
0
0
0
0
2
2
2
2
2
2
2
2
2
2
2
2
2
2
2
2
2
2
2
2
2
2
2
2
2
2
1
0
0
0
0
0
2
2
2
2
2
2
2
2
2
2
2
2
2
2
2
2
2
2
2
2
2
2
2
2
2
2
1
1
0
0
0
0
2
2
2
2
2
2
2
2
2
2
2
2
2
2
2
2
2
2
2
2
2
2
2
2
2
2
1
0
0
0
0
0
2
2
2
2
2
2
2
2
2
2
2
2
2
2
2
2
2
2
2
2
2
2
2
2
2
2
2
1
0
0
0
0
2
2
2
2
2
2
2
2
2
2
2
2
2
2
2
2
2
2
2
2
2
2
2
2
2
2
2
0
0
0
0
0
2
2
2
2
2
2
2
2
2
2
2
2
2
2
2
2
2
2
2
2
2
2
2
2
2
2
2
2
0
0
0
0
2
2
2
2
2
2
2
2
2
2
2
2
2
2
2
2
2
2
2
2
2
2
2
2
2
2
2
2
0
0
0
0
2
2
2
2
2
2
2
2
2
2
2
2
2
2
2
2
2
2
2
2
2
2
2
2
2
2
2
2
2
0
0
0
2
2
2
2
2
2
2
2
2
2
2
2
2
2
2
2
2
2
2
2
2
2
2
2
2
2
2
2
2
2
2
0
2
2
2
2
2
2
2
2
2
2
2
2
2
2
2
2
2
2
2
2
2
2
2
2
2
2
2
2
2
2
2
2
2
2
2
2
2
2
2
2
2
2
2
2
2
2
2
2
2
2
2
2
2
2
2
2
2
2
2
2
2
2
2
2
2
2
2
2
2
2
2
2
2
2
2
2
2
2
2
2
2
2
2
2
2
2
2
2
2
2
2
2
2
2
2
2
2
2
2
2
2
2
2
2
2
2
2
2
2
2
2
2
2
2
2
2
2
2
2
2
2
2
2
2
2
2
2
2
2
2
2
2
2
2
2
2
2
2
2
2
2
2
2
2
2
2
2
2
2
2
2
2
2
2
2
2
2
2
2
2
2
2
2
2
2
2
2
2
2
2
2
2
2
2
2
2
2
2
2
2
2
2
2
2
2
2
2
2
2
2
2
2
2
2
2
2
2
2
2
2
2
2
2
2
2
2
2
2
2
2
2
2
2
2
2
2
2
2
2
2
2
2
2
2
2
2
2
2
2
2
2
2
2
2
2
2
2
2
2
2
2
2
2
2
2
2
2
2
2
2
2
2
2
2
2
2
2
2
2
2
2
2
2
2
2
2
2
2
2
2
2
2
2
2
2
2
2
2
2
2
2
2
2
2
2
2
2
2
2
2
2
2
2
2
2
2
2
2
2
2
2
2
2
2
2
2
2
2
2
2
2
2
2
2
2
2
2
2
2
2
2
2
2
2
2
2
2
2
2
2
2
2
2
2
2
2
2
2
2
2
2
2
2
2
2
2
2
2
2
2
2
2
2
2
2
2
2
2
2
2
2
2
2
2
2
2
2
2
2
2
2
2
2
2
2
2
2
2
2
2
2
2
2
2
2
2
2
2
2
2
2
2
2
2
2
2
2
2
2
2
2
2
2
2
2
2
2
2
2
2
2
2
2
2
2
2
2
2
2
2
2
2
2
2
2
2
2
2
2
2
2
2
2
2
2
2
2
2
2
2
2
2
2
2
2
2
2
2
2
2
2
2
2
2
2
2
2
2
2
2
2
2
2
2
2
2
2
2
2
2
2
2
2
2
2
2
2
2
2
2
2
2
2
2
2
2
2
2
2
2
2
2
2
2
2
2
2
2
2
2
2
2
2
2
2
2
2
2
2
2
2
2
2
2
2
2
2
2
2
2
2
2
2
2
2
2
2
2
2
2
2
2
2
2
2
2
2
2
2
2
2
2
2
2
2
2
2
2
2
2
2
2
2
2
2
2
2
2
2
2
2
2
2
2
2
2
2
2
2
2
2
2
2
2
2
2
2
2
2
2
2
2
2
2
2
2
2
2
2
2
2
2
2
2
2
2
2
2
2
2
2
2
2
2
2
2
2
2
2
2
2
2
2
2
2
2
2
2
2
2
2
2
2
2
2
2
2
2
2
2
2
2
2
2
2
2
2
2
2
2
2
2
2
2
2
2
2
2
2
2
2
2
2
2
2
2
2
2
2
2
2
2
2
2
2
2
2
2
2
2
2
2
2
2
2
2
2
2
2
2
2
2
2
2
2
2
2
2
2
2
2
2
2
2
2
2
2
2
2
2
2
2
2
2
</DataArray>
<DataArray NumberOfComponents='1' type='Float32' Name='Temperature' format='ascii'>
-3.000000
-3.000000
-3.000000
-3.000000
-3.000000
-3.000000
-3.000000
-3.000000
-3.000000
-3.000000
-3.000000
-3.000000
-3.000000
-3.000000
-3.000000
-3.000000
-4.999902
-4.999848
-4.999739
-4.999526
-4.999134
-4.998435
-4.997217
-4.995134
-4.991641
-4.985898
-4.976646
-4.962044
-4.939479
-4.905349
-4.854839
-4.781723
-4.678223
-4.535000
-4.341318
-4.085507
-3.755801
-3.341670
-2.835739
-2.235612
-1.550158
-0.772625
-0.004631
0.005468
20.345424
54.392583
97.070964
157.251476
-3.000000
-3.000000
-3.000000
-3.000000
-3.000000
-3.000000
-3.000000
-3.000000
-4.999901
-4.999846
-4.999736
-4.999519
-4.999121
-4.998411
-4.997172
-4.995050
-4.991487
-4.985616
-4.976137
-4.961136
-4.937884
-4.902601
-4.850206
-4.774112
-4.666094
-4.516333
-4.313706
-4.046432
-3.703113
-3.274082
-2.752768
-2.134501
-1.424658
-0.502833
-0.004342
3.080016
33.092998
80.917180
143.227400
234.325507
-3.000000
-3.000000
-3.000000
-3.000000
-3.000000
-3.000000
-3.000000
-3.000000
-4.999901
-4.999845
-4.999734
-4.999517
-4.999116
-4.998402
-4.997153
-4.995012
-4.991412
-4.985474
-4.975873
-4.960657
-4.937037
-4.901144
-4.847776
-4.770188
-4.659972
-4.507126
-4.300382
-4.027905
-3.678398
-3.242571
-2.714993
-2.094267
-1.397573
-0.559142
-0.006382
0.009588
43.257851
104.648554
186.122784
309.015456
-3.000000
-3.000000
-3.000000
-3.000000
-3.000000
-3.000000
-3.000000
-3.000000
-4.999901
-4.999845
-4.999734
-4.999516
-4.999114
-4.998396
-4.997142
-4.994990
-4.991368
-4.985390
-4.975715
-4.960369
-4.936526
-4.900263
-4.846303
-4.767799
-4.656221
-4.501422
-4.291977
-4.015881
-3.661609
-3.219394
-2.682341
-2.043373
-1.309355
-0.273762
0.004333
4.588560
52.720152
127.235848
228.012468
385.307174
-3.000000
-3.000000
-3.000000
-3.000000
-3.000000
-3.000000
-3.000000
-3.000000
-4.999901
-4.999845
-4.999734
-4.999515
-4.999113
-4.998394
-4.997137
-4.994979
-4.991348
-4.985351
-4.975642
-4.960235
-4.936288
-4.899851
-4.845608
-4.766661
-4.654408
-4.498601
-4.287658
-4.009268
-3.651169
-3.201636
-2.648770
-1.973253
-1.169282
0.001040
0.004712
8.787421
60.934519
147.305027
266.278012
458.686784
-3.000000
-3.000000
-3.000000
-3.000000
-3.000000
-3.000000
-3.000000
-3.000000
-4.999901
-4.999845
-4.999734
-4.999515
-4.999112
-4.998393
-4.997134
-4.994974
-4.991337
-4.985330
-4.975603
-4.960163
-4.936159
-4.899625
-4.845225
-4.766027
-4.653375
-4.496924
-4.284897
-4.004540
-3.642597
-3.185332
-2.617753
-1.920416
-1.088297
0.000600
-0.002312
12.252450
68.555205
166.362857
303.650897
534.660559
-3.000000
-3.000000
-3.000000
-3.000000
-3.000000
-3.000000
-3.000000
-3.000000
-4.999901
-4.999845
-4.999734
-4.999515
-4.999112
-4.998392
-4.997133
-4.994972
-4.991334
-4.985324
-4.975589
-4.960137
-4.936109
-4.899533
-4.845054
-4.765714
-4.652805
-4.495882
-4.282967
-4.000911
-3.635752
-3.172751
-2.596163
-1.889284
-1.046938
-0.004664
0.001404
14.739159
74.843635
182.976846
337.407143
608.229898
-3.000000
-3.000000
-3.000000
-3.000000
-3.000000
-3.000000
-3.000000
-3.000000
-4.999901
-4.999845
-4.999734
-4.999515
-4.999112
-4.998392
-4.997133
-4.994972
-4.991333
-4.985322
-4.975585
-4.960127
-4.936090
-4.899492
-4.844972
-4.765550
-4.652477
-4.495226
-4.281653
-3.998310
-3.630750
-3.163692
-2.581234
-1.869002
-1.020231
-0.009175
0.004139
16.794998
80.404960
198.480806
370.073406
685.390448
-3.000000
-3.000000
-3.000000
-3.000000
-3.000000
-3.000000
-3.000000
-3.000000
-4.999901
-4.999845
-4.999734
-4.999515
-4.999112
-4.998392
-4.997133
-4.994972
-4.991333
-4.985321
-4.975584
-4.960125
-4.936084
-4.899479
-4.844942
-4.765484
-4.652333
-4.494914
-4.280991
-3.996948
-3.628082
-3.158834
-2.573210
-1.857912
-1.004454
-0.007341
0.004357
18.159416
84.827574
211.699580
399.005756
760.643785
-3.000000
-3.000000
-3.000000
-3.000000
-3.000000
-3.000000
-3.000000
-3.000000
-4.999901
-4.999845
-4.999734
-4.999515
-4.999112
-4.998392
-4.997133
-4.994972
-4.991333
-4.985321
-4.975583
-4.960124
-4.936081
-4.899472
-4.844927
-4.765447
-4.652243
-4.494703
-4.280514
-3.995911
-3.625966
-3.154855
-2.566426
-1.848097
-0.989648
-0.001703
0.004529
19.385149
88.594390
223.758804
426.438153
840.611104
-3.000000
-3.000000
-3.000000
-3.000000
-3.000000
-3.000000
-3.000000
-3.000000
-4.999901
-4.999845
-4.999734
-4.999515
-4.999112
-4.998392
-4.997133
-4.994972
-4.991333
-4.985322
-4.975585
-4.960126
-4.936085
-4.899477
-4.844932
-4.765449
-4.652229
-4.494642
-4.280330
-3.995450
-3.624941
-3.152814
-2.562771
-1.842505
-0.980473
0.003393
0.004594
20.198026
91.416052
233.666215
449.806287
919.168413
-3.000000
-3.000000
-3.000000
-3.000000
-3.000000
-3.000000
-3.000000
-3.000000
-4.999901
-4.999845
-4.999734
-4.999515
-4.999113
-4.998394
-4.997136
-4.994978
-4.991343
-4.985339
-4.975615
-4.960177
-4.936171
-4.899621
-4.845166
-4.765818
-4.652795
-4.495477
-4.281511
-3.997033
-3.626920
-3.155053
-2.564898
-1.843961
-0.979579
0.002983
0.000555
20.593611
93.526058
242.268988
470.898381
1003.730804
-3.000000
-3.000000
-3.000000
-3.000000
-3.000000
-3.000000
-3.000000
-3.000000
-4.999902
-4.999848
-4.999738
-4.999522
-4.999125
-4.998414
-4.997170
-4.995033
-4.991435
-4.985491
-4.975862
-4.960580
-4.936819
-4.900650
-4.846769
-4.768253
-4.656361
-4.500432
-4.287835
-4.003855
-3.631185
-3.148647
-2.527966
-1.743118
-0.644963
-0.008184
4.605959
19.880608
90.871564
246.503624
485.961176
1086.702809
-3.000000
-3.000000
-3.000000
-3.000000
-3.000000
-3.000000
-3.000000
-3.000000
-4.999914
-4.999864
-4.999762
-4.999559
-4.999178
-4.998487
-4.997254
-4.995100
-4.991406
-4.985192
-4.974943
-4.958387
-4.932205
-4.891706
-4.830493
-4.740173
-4.610231
-4.428180
-4.180148
-3.852012
-3.431108
-2.908477
-2.280044
-1.558218
-0.697782
-0.006610
0.006523
36.849103
102.013544
252.581196
492.497780
1167.108846
-4.999947
-4.999913
-4.999844
-4.999703
-4.999433
-4.998930
-4.998012
-4.996371
-4.993490
-4.988533
-4.980175
-4.966379
-4.944098
-4.908920
-4.854682
-4.773097
-4.653519
-4.482972
-4.246644
-3.929003
-3.515638
-2.995829
-2.364420
-1.631931
-0.766196
-0.004586
0.002802
32.496686
92.277784
236.714782
471.308884
1224.236379
-4.999972
-4.999953
-4.999913
-4.999829
-4.999664
-4.999350
-4.998760
-4.997678
-4.995731
-4.992299
-4.986377
-4.976383
-4.959896
-4.933342
-4.891625
-4.827758
-4.732583
-4.594683
-4.400628
-4.135695
-3.785031
-3.334967
-2.773546
-2.083750
-1.263670
-0.007063
-0.003753
8.586138
77.212323
216.564586
442.971694
1294.712543
-4.999986
-4.999976
-4.999953
-4.999904
-4.999804
-4.999607
-4.999225
-4.998498
-4.997141
-4.994660
-4.990221
-4.982446
-4.969138
-4.946888
-4.910586
-4.852851
-4.763448
-4.628838
-4.432089
-4.153481
-3.772182
-3.269358
-2.632212
-1.862866
-0.955879
-0.005471
0.000418
23.610554
71.568696
198.738635
413.594946
1361.495163
-4.999994
-4.999989
-4.999977
-4.999951
-4.999898
-4.999788
-4.999567
-4.999132
-4.998294
-4.996712
-4.993792
-4.988525
-4.979245
-4.963297
-4.936595
-4.893091
-4.824211
-4.718395
-4.560920
-4.334293
-4.019475
-3.598104
-3.055819
-2.383979
-1.599907
-0.612442
-0.005898
0.008448
58.662211
177.083940
380.560895
1318.065979
-4.999997
-4.999995
-4.999989
-4.999977
-4.999949
-4.999889
-4.999764
-4.999509
-4.998994
-4.997982
-4.996033
-4.992365
-4.985620
-4.973521
-4.952366
-4.916353
-4.856736
-4.760887
-4.611435
-4.385786
-4.056540
-3.593544
-2.968667
-2.164366
-1.190638
-0.005929
-0.002650
16.046174
52.428787
158.411766
347.999776
1271.860500
-4.999999
-4.999998
-4.999996
-4.999990
-4.999977
-4.999949
-4.999886
-4.999753
-4.999474
-4.998902
-4.997756
-4.995514
-4.991232
-4.983263
-4.968826
-4.943398
-4.899929
-4.827928
-4.712605
-4.534407
-4.269468
-3.891589
-3.376372
-2.706100
-1.886910
-0.874182
-0.007442
0.004001
41.969808
137.873039
313.382920
1219.728480
-5.000000
-4.999999
-4.999998
-4.999996
-4.999991
-4.999978
-4.999949
-4.999884
-4.999740
-4.999431
-4.998781
-4.997442
-4.994753
-4.989490
-4.979457
-4.960857
-4.927373
-4.868932
-4.770221
-4.609185
-4.355972
-3.972980
-3.416875
-2.639047
-1.624912
-0.055252
-0.005083
9.880014
35.638537
119.493487
279.240168
1163.806684
-5.000000
-5.000000
-5.000000
-4.999999
-4.999997
-4.999992
-4.999980
-4.999953
-4.999889
-4.999744
-4.999422
-4.998726
-4.997256
-4.994234
-4.988191
-4.976455
-4.954350
-4.914044
-4.843041
-4.722490
-4.525793
-4.218478
-3.760922
-3.115258
-2.262061
-1.190607
-0.008501
-0.000662
27.439982
100.440433
243.584020
1100.323587
-5.000000
-5.000000
-5.000000
-5.000000
-4.999999
-4.999997
-4.999993
-4.999983
-4.999958
-4.999897
-4.999752
-4.999421
-4.998676
-4.997049
-4.993588
-4.986436
-4.972093
-4.944235
-4.891922
-4.797149
-4.631943
-4.355763
-3.914908
-3.245366
-2.297983
-0.915470
-0.006670
5.199584
21.702691
83.191207
208.754586
1031.672417
-5.000000
-5.000000
-5.000000
-5.000000
-5.000000
-4.999999
-4.999998
-4.999995
-4.999987
-4.999966
-4.999912
-4.999780
-4.999463
-4.998723
-4.997040
-4.993326
-4.985389
-4.968986
-4.936283
-4.873537
-4.757989
-4.554353
-4.211966
-3.665074
-2.836306
-1.690895
-0.009062
-0.004676
15.620039
66.201794
173.171468
953.162858
-5.000000
-5.000000
-5.000000
-5.000000
-5.000000
-5.000000
-5.000000
-4.999999
-4.999997
-4.999991
-4.999974
-4.999931
-4.999817
-4.999529
-4.998821
-4.997130
-4.993214
-4.984446
-4.965492
-4.926041
-4.847174
-4.696144
-4.419815
-3.938054
-3.137217
-1.888767
-0.007390
2.007843
11.050417
51.039228
139.206126
867.595818
-5.000000
-5.000000
-5.000000
-5.000000
-5.000000
-5.000000
-5.000000
-5.000000
-4.999999
-4.999998
-4.999995
-4.999984
-4.999953
-4.999868
-4.999638
-4.999035
-4.997502
-4.993731
-4.984784
-4.964366
-4.919682
-4.826284
-4.640746
-4.292668
-3.679222
-2.693281
-1.057606
-0.007331
6.964503
36.915700
105.711687
768.959053
-5.000000
-5.000000
-5.000000
-5.000000
-5.000000
-5.000000
-5.000000
-5.000000
-5.000000
-5.000000
-4.999999
-4.999997
-4.999992
-4.999974
-4.999919
-4.999759
-4.999304
-4.998049
-4.994717
-4.986194
-4.965288
-4.916260
-4.806770
-4.575029
-4.113071
-3.256017
-1.759572
0.291014
3.948876
24.913271
75.229930
660.616346
-5.000000
-5.000000
-5.000000
-5.000000
-5.000000
-5.000000
-5.000000
-5.000000
-5.000000
-5.000000
-5.000000
-5.000000
-4.999999
-4.999997
-4.999990
-4.999964
-4.999882
-4.999620
-4.998813
-4.996422
-4.989622
-4.971130
-4.923305
-4.806323
-4.537413
-3.958917
-2.826181
-0.532567
1.707523
14.664468
47.265395
534.691157
-5.000000
-5.000000
-5.000000
-5.000000
-5.000000
-5.000000
-5.000000
-5.000000
-5.000000
-5.000000
-5.000000
-5.000000
-5.000000
-5.000000
-4.999999
-4.999998
-4.999991
-4.999966
-4.999872
-4.999536
-4.998365
-4.994460
-4.982005
-4.944303
-4.836733
-4.550979
-3.851183
-2.291721
0.372183
6.823959
24.079145
391.288741
-5.000000
-5.000000
-5.000000
-5.000000
-5.000000
-5.000000
-5.000000
-5.000000
-5.000000
-5.000000
-5.000000
-5.000000
-5.000000
-5.000000
-5.000000
-5.000000
-5.000000
-4.999999
-4.999996
-4.999983
-4.999926
-4.999675
-4.998605
-4.994187
-4.976783
-4.912285
-4.688662
-4.010634
-1.888763
1.820925
7.855187
231.962131
-5.000000
-5.000000
-5.000000
-5.000000
-5.000000
-5.000000
-5.000000
-5.000000
-5.000000
-5.000000
-5.000000
-5.000000
-5.000000
-5.000000
-5.000000
-5.000000
-5.000000
-5.000000
-5.000000
-5.000000
-4.999999
-4.999997
-4.999987
-4.999945
-4.999771
-4.999054
-4.995856
-4.980596
-4.886498
-4.183753
-2.286921
44.266647
-5.000000
-5.000000
-5.000000
-5.000000
-5.000000
-5.000000
-5.000000
-5.000000
-5.000000
-5.000000
-5.000000
-5.000000
-5.000000
-5.000000
-5.000000
-5.000000
-5.000000
-5.000000
-5.000000
-5.000000
-5.000000
-5.000000
-5.000000
-5.000000
-4.999999
-4.999996
-4.999983
-4.999935
-4.999724
-4.998521
-4.995492
-4.946843
-5.000000
-5.000000
-5.000000
-5.000000
-5.000000
-5.000000
-5.000000
-5.000000
-5.000000
-5.000000
-5.000000
-5.000000
-5.000000
-5.000000
-5.000000
-5.000000
-5.000000
-5.000000
-5.000000
-5.000000
-5.000000
-5.000000
-5.000000
-5.000000
-5.000000
-5.000000
-5.000000
-5.000000
-4.999999
-4.999998
-4.999994
-4.999953
-5.000000
-5.000000
-5.000000
-5.000000
-5.000000
-5.000000
-5.000000
-5.000000
-5.000000
-5.000000
-5.000000
-5.000000
-5.000000
-5.000000
-5.000000
-5.000000
-5.000000
-5.000000
-5.000000
-5.000000
-5.000000
-5.000000
-5.000000
-5.000000
-5.000000
-5.000000
-5.000000
-5.000000
-5.000000
-5.000000
-5.000000
-5.000000
-5.000000
-5.000000
-5.000000
-5.000000
-5.000000
-5.000000
-5.000000
-5.000000
-5.000000
-5.000000
-5.000000
-5.000000
-5.000000
-5.000000
-5.000000
-5.000000
-5.000000
-5.000000
-5.000000
-5.000000
-5.000000
-5.000000
-5.000000
-5.000000
-5.000000
-5.000000
-5.000000
-5.000000
-5.000000
-5.000000
-5.000000
-5.000000
-5.000000
-5.000000
-5.000000
-5.000000
-5.000000
-5.000000
-5.000000
-5.000000
-5.000000
-5.000000
-5.000000
-5.000000
-5.000000
-5.000000
-5.000000
-5.000000
-5.000000
-5.000000
-5.000000
-5.000000
-5.000000
-5.000000
-5.000000
-5.000000
-5.000000
-5.000000
-5.000000
-5.000000
-5.000000
-5.000000
-5.000000
-5.000000
-5.000000
-5.000000
-5.000000
-5.000000
-5.000000
-5.000000
-5.000000
-5.000000
-5.000000
-5.000000
-5.000000
-5.000000
-5.000000
-5.000000
-5.000000
-5.000000
-5.000000
-5.000000
-5.000000
-5.000000
-5.000000
-5.000000
-5.000000
-5.000000
-5.000000
-5.000000
-5.000000
-5.000000
-5.000000
-5.000000
-5.000000
-5.000000
-5.000000
-5.000000
-5.000000
-5.000000
-5.000000
-5.000000
-5.000000
-5.000000
-5.000000
-5.000000
-5.000000
-5.000000
-5.000000
-5.000000
-5.000000
-5.000000
-5.000000
-5.000000
-5.000000
-5.000000
-5.000000
-5.000000
-5.000000
-5.000000
-5.000000
-5.000000
-5.000000
-5.000000
-5.000000
-5.000000
-5.000000
-5.000000
-5.000000
-5.000000
-5.000000
-5.000000
-5.000000
-5.000000
-5.000000
-5.000000
-5.000000
-5.000000
-5.000000
-5.000000
-5.000000
-5.000000
-5.000000
-5.000000
-5.000000
-5.000000
-5.000000
-5.000000
-5.000000
-5.000000
-5.000000
-5.000000
-5.000000
-5.000000
-5.000000
-5.000000
-5.000000
-5.000000
-5.000000
-5.000000
-5.000000
-5.000000
-5.000000
-5.000000
-5.000000
-5.000000
-5.000000
-5.000000
-5.000000
-5.000000
-5.000000
-5.000000
-5.000000
-5.000000
-5.000000
-5.000000
-5.000000
-5.000000
-5.000000
-5.000000
-5.000000
-5.000000
-5.000000
-5.000000
-5.000000
-5.000000
-5.000000
-5.000000
-5.000000
-5.000000
-5.000000
-5.000000
-5.000000
-5.000000
-5.000000
-5.000000
-5.000000
-5.000000
-5.000000
-5.000000
-5.000000
-5.000000
-5.000000
-5.000000
-5.000000
-5.000000
-5.000000
-5.000000
-5.000000
-5.000000
-5.000000
-5.000000
-5.000000
-5.000000
-5.000000
-5.000000
-5.000000
-5.000000
-5.000000
-5.000000
-5.000000
-5.000000
-5.000000
-5.000000
-5.000000
-5.000000
-5.000000
-5.000000
-5.000000
-5.000000
-5.000000
-5.000000
-5.000000
-5.000000
-5.000000
-5.000000
-5.000000
-5.000000
-5.000000
-5.000000
-5.000000
-5.000000
-5.000000
-5.000000
-5.000000
-5.000000
-5.000000
-5.000000
-5.000000
-5.000000
-5.000000
-5.000000
-5.000000
-5.000000
-5.000000
-5.000000
-5.000000
-5.000000
-5.000000
-5.000000
-5.000000
-5.000000
-5.000000
-5.000000
-5.000000
-5.000000
-5.000000
-5.000000
-5.000000
-5.000000
-5.000000
-5.000000
-5.000000
-5.000000
-5.000000
-5.000000
-5.000000
-5.000000
-5.000000
-5.000000
-5.000000
-5.000000
-5.000000
-5.000000
-5.000000
-5.000000
-5.000000
-5.000000
-5.000000
-5.000000
-5.000000
-5.000000
-5.000000
-5.000000
-5.000000
-5.000000
-5.000000
-5.000000
-5.000000
-5.000000
-5.000000
-5.000000
-5.000000
-5.000000
-5.000000
-5.000000
-5.000000
-5.000000
-5.000000
-5.000000
-5.000000
-5.000000
-5.000000
-5.000000
-5.000000
-5.000000
-5.000000
-5.000000
-5.000000
-5.000000
-5.000000
-5.000000
-5.000000
-5.000000
-5.000000
-5.000000
-5.000000
-5.000000
-5.000000
-5.000000
-5.000000
-5.000000
-5.000000
-5.000000
-5.000000
-5.000000
-5.000000
-5.000000
-5.000000
-5.000000
-5.000000
-5.000000
-5.000000
-5.000000
-5.000000
-5.000000
-5.000000
-5.000000
-5.000000
-5.000000
-5.000000
-5.000000
-5.000000
-5.000000
-5.000000
-5.000000
-5.000000
-5.000000
-5.000000
-5.000000
-5.000000
-5.000000
-5.000000
-5.000000
-5.000000
-5.000000
-5.000000
-5.000000
-5.000000
-5.000000
-5.000000
-5.000000
-5.000000
-5.000000
-5.000000
-5.000000
-5.000000
-5.000000
-5.000000
-5.000000
-5.000000
-5.000000
-5.000000
-5.000000
-5.000000
-5.000000
-5.000000
-5.000000
-5.000000
-5.000000
-5.000000
-5.000000
-5.000000
-5.000000
-5.000000
-5.000000
-5.000000
-5.000000
-5.000000
-5.000000
-5.000000
-5.000000
-5.000000
-5.000000