<?xml version='1.0' encoding='UTF-8'?>
<VTKFile xmlns='VTK' byte_order='LittleEndian' version='0.1' type='UnstructuredGrid'>
<UnstructuredGrid>
<Piece NumberOfCells='1816' NumberOfPoints='1816'>
<Points>
<DataArray NumberOfComponents='3' type='Float32' Name='Position' format='ascii'>
1.170000 0.400000 0.000000
1.170000 0.412500 0.000000
1.170000 0.425000 0.000000
1.170000 0.437500 0.000000
1.170000 0.450000 0.000000
1.170000 0.462500 0.000000
1.170000 0.475000 0.000000
1.170000 0.487500 0.000000
1.207500 0.400000 0.000000
1.207500 0.412500 0.000000
1.207500 0.425000 0.000000
1.207500 0.437500 0.000000
1.207500 0.450000 0.000000
1.207500 0.462500 0.000000
1.207500 0.475000 0.000000
1.207500 0.487500 0.000000
0.025000 0.000000 0.000000
0.025000 0.012500 0.000000
0.025000 0.025000 0.000000
0.025000 0.037500 0.000000
0.025000 0.050000 0.000000
0.025000 0.062500 0.000000
0.025000 0.075000 0.000000
0.025000 0.087500 0.000000
0.025000 0.100000 0.000000
0.025000 0.112500 0.000000
0.025000 0.125000 0.000000
0.025000 0.137500 0.000000
0.025000 0.150000 0.000000
0.025000 0.162500 0.000000
0.025000 0.175000 0.000000
0.025000 0.187500 0.000000
0.025000 0.200000 0.000000
0.025000 0.212500 0.000000
0.025000 0.225000 0.000000
0.025000 0.237500 0.000000
0.025000 0.250000 0.000000
0.025000 0.262500 0.000000
0.025000 0.275000 0.000000
0.025000 0.287500 0.000000
0.025000 0.300000 0.000000
0.025000 0.312500 0.000000
0.025000 0.325000 0.000000
0.025000 0.337500 0.000000
0.025000 0.350000 0.000000
0.025000 0.362500 0.000000
0.025000 0.375000 0.000000
0.025000 0.387500 0.000000
1.245000 0.400000 0.000000
1.245000 0.412500 0.000000
1.245000 0.425000 0.000000
1.245000 0.437500 0.000000
1.245000 0.450000 0.000000
1.245000 0.462500 0.000000
1.245000 0.475000 0.000000
1.245000 0.487500 0.000000
0.062500 0.000000 0.000000
0.062500 0.012500 0.000000
0.062500 0.025000 0.000000
0.062500 0.037500 0.000000
0.062500 0.050000 0.000000
0.062500 0.062500 0.000000
0.062500 0.075000 0.000000
0.062500 0.087500 0.000000
0.062500 0.100000 0.000000
0.062500 0.112500 0.000000
0.062500 0.125000 0.000000
0.062500 0.137500 0.000000
0.062500 0.150000 0.000000
0.062500 0.162500 0.000000
0.062500 0.175000 0.000000
0.062500 0.187500 0.000000
0.062500 0.200000 0.000000
0.062500 0.212500 0.000000
0.062500 0.225000 0.000000
0.062500 0.237500 0.000000
0.062500 0.250000 0.000000
0.062500 0.262500 0.000000
0.062500 0.275000 0.000000
0.062500 0.287500 0.000000
0.062500 0.300000 0.000000
0.062500 0.312500 0.000000
0.062500 0.325000 0.000000
0.062500 0.337500 0.000000
0.062500 0.350000 0.000000
0.062500 0.362500 0.000000
0.062500 0.375000 0.000000
0.062500 0.387500 0.000000
1.282500 0.400000 0.000000
1.282500 0.412500 0.000000
1.282500 0.425000 0.000000
1.282500 0.437500 0.000000
1.282500 0.450000 0.000000
1.282500 0.462500 0.000000
1.282500 0.475000 0.000000
1.282500 0.487500 0.000000
0.100000 0.000000 0.000000
0.100000 0.012500 0.000000
0.100000 0.025000 0.000000
0.100000 0.037500 0.000000
0.100000 0.050000 0.000000
0.100000 0.062500 0.000000
0.100000 0.075000 0.000000
0.100000 0.087500 0.000000
0.100000 0.100000 0.000000
0.100000 0.112500 0.000000
0.100000 0.125000 0.000000
0.100000 0.137500 0.000000
0.100000 0.150000 0.000000
0.100000 0.162500 0.000000
0.100000 0.175000 0.000000
0.100000 0.187500 0.000000
0.100000 0.200000 0.000000
0.100000 0.212500 0.000000
0.100000 0.225000 0.000000
0.100000 0.237500 0.000000
0.100000 0.250000 0.000000
0.100000 0.262500 0.000000
0.100000 0.275000 0.000000
0.100000 0.287500 0.000000
0.100000 0.300000 0.000000
0.100000 0.312500 0.000000
0.100000 0.325000 0.000000
0.100000 0.337500 0.000000
0.100000 0.350000 0.000000
0.100000 0.362500 0.000000
0.100000 0.375000 0.000000
0.100000 0.387500 0.000000
1.320000 0.400000 0.000000
1.320000 0.412500 0.000000
1.320000 0.425000 0.000000
1.320000 0.437500 0.000000
1.320000 0.450000 0.000000
1.320000 0.462500 0.000000
1.320000 0.475000 0.000000
1.320000 0.487500 0.000000
0.137500 0.000000 0.000000
0.137500 0.012500 0.000000
0.137500 0.025000 0.000000
0.137500 0.037500 0.000000
0.137500 0.050000 0.000000
0.137500 0.062500 0.000000
0.137500 0.075000 0.000000
0.137500 0.087500 0.000000
0.137500 0.100000 0.000000
0.137500 0.112500 0.000000
0.137500 0.125000 0.000000
0.137500 0.137500 0.000000
0.137500 0.150000 0.000000
0.137500 0.162500 0.000000
0.137500 0.175000 0.000000
0.137500 0.187500 0.000000
0.137500 0.200000 0.000000
0.137500 0.212500 0.000000
0.137500 0.225000 0.000000
0.137500 0.237500 0.000000
0.137500 0.250000 0.000000
0.137500 0.262500 0.000000
0.137500 0.275000 0.000000
0.137500 0.287500 0.000000
0.137500 0.300000 0.000000
0.137500 0.312500 0.000000
0.137500 0.325000 0.000000
0.137500 0.337500 0.000000
0.137500 0.350000 0.000000
0.137500 0.362500 0.000000
0.137500 0.375000 0.000000
0.137500 0.387500 0.000000
1.357500 0.400000 0.000000
1.357500 0.412500 0.000000
1.357500 0.425000 0.000000
1.357500 0.437500 0.000000
1.357500 0.450000 0.000000
1.357500 0.462500 0.000000
1.357500 0.475000 0.000000
1.357500 0.487500 0.000000
0.175000 0.000000 0.000000
0.175000 0.012500 0.000000
0.175000 0.025000 0.000000
0.175000 0.037500 0.000000
0.175000 0.050000 0.000000
0.175000 0.062500 0.000000
0.175000 0.075000 0.000000
0.175000 0.087500 0.000000
0.175000 0.100000 0.000000
0.175000 0.112500 0.000000
0.175000 0.125000 0.000000
0.175000 0.137500 0.000000
0.175000 0.150000 0.000000
0.175000 0.162500 0.000000
0.175000 0.175000 0.000000
0.175000 0.187500 0.000000
0.175000 0.200000 0.000000
0.175000 0.212500 0.000000
0.175000 0.225000 0.000000
0.175000 0.237500 0.000000
0.175000 0.250000 0.000000
0.175000 0.262500 0.000000
0.175000 0.275000 0.000000
0.175000 0.287500 0.000000
0.175000 0.300000 0.000000
0.175000 0.312500 0.000000
0.175000 0.325000 0.000000
0.175000 0.337500 0.000000
0.175000 0.350000 0.000000
0.175000 0.362500 0.000000
0.175000 0.375000 0.000000
0.175000 0.387500 0.000000
1.395000 0.400000 0.000000
1.395000 0.412500 0.000000
1.395000 0.425000 0.000000
1.395000 0.437500 0.000000
1.395000 0.450000 0.000000
1.395000 0.462500 0.000000
1.395000 0.475000 0.000000
1.395000 0.487500 0.000000
0.212500 0.000000 0.000000
0.212500 0.012500 0.000000
0.212500 0.025000 0.000000
0.212500 0.037500 0.000000
0.212500 0.050000 0.000000
0.212500 0.062500 0.000000
0.212500 0.075000 0.000000
0.212500 0.087500 0.000000
0.212500 0.100000 0.000000
0.212500 0.112500 0.000000
0.212500 0.125000 0.000000
0.212500 0.137500 0.000000
0.212500 0.150000 0.000000
0.212500 0.162500 0.000000
0.212500 0.175000 0.000000
0.212500 0.187500 0.000000
0.212500 0.200000 0.000000
0.212500 0.212500 0.000000
0.212500 0.225000 0.000000
0.212500 0.237500 0.000000
0.212500 0.250000 0.000000
0.212500 0.262500 0.000000
0.212500 0.275000 0.000000
0.212500 0.287500 0.000000
0.212500 0.300000 0.000000
0.212500 0.312500 0.000000
0.212500 0.325000 0.000000
0.212500 0.337500 0.000000
0.212500 0.350000 0.000000
0.212500 0.362500 0.000000
0.212500 0.375000 0.000000
0.212500 0.387500 0.000000
1.432500 0.400000 0.000000
1.432500 0.412500 0.000000
1.432500 0.425000 0.000000
1.432500 0.437500 0.000000
1.432500 0.450000 0.000000
1.432500 0.462500 0.000000
1.432500 0.475000 0.000000
1.432500 0.487500 0.000000
0.250000 0.000000 0.000000
0.250000 0.012500 0.000000
0.250000 0.025000 0.000000
0.250000 0.037500 0.000000
0.250000 0.050000 0.000000
0.250000 0.062500 0.000000
0.250000 0.075000 0.000000
0.250000 0.087500 0.000000
0.250000 0.100000 0.000000
0.250000 0.112500 0.000000
0.250000 0.125000 0.000000
0.250000 0.137500 0.000000
0.250000 0.150000 0.000000
0.250000 0.162500 0.000000
0.250000 0.175000 0.000000
0.250000 0.187500 0.000000
0.250000 0.200000 0.000000
0.250000 0.212500 0.000000
0.250000 0.225000 0.000000
0.250000 0.237500 0.000000
0.250000 0.250000 0.000000
0.250000 0.262500 0.000000
0.250000 0.275000 0.000000
0.250000 0.287500 0.000000
0.250000 0.300000 0.000000
0.250000 0.312500 0.000000
0.250000 0.325000 0.000000
0.250000 0.337500 0.000000
0.250000 0.350000 0.000000
0.250000 0.362500 0.000000
0.250000 0.375000 0.000000
0.250000 0.387500 0.000000
1.470000 0.400000 0.000000
1.470000 0.412500 0.000000
1.470000 0.425000 0.000000
1.470000 0.437500 0.000000
1.470000 0.450000 0.000000
1.470000 0.462500 0.000000
1.470000 0.475000 0.000000
1.470000 0.487500 0.000000
0.287500 0.000000 0.000000
0.287500 0.012500 0.000000
0.287500 0.025000 0.000000
0.287500 0.037500 0.000000
0.287500 0.050000 0.000000
0.287500 0.062500 0.000000
0.287500 0.075000 0.000000
0.287500 0.087500 0.000000
0.287500 0.100000 0.000000
0.287500 0.112500 0.000000
0.287500 0.125000 0.000000
0.287500 0.137500 0.000000
0.287500 0.150000 0.000000
0.287500 0.162500 0.000000
0.287500 0.175000 0.000000
0.287500 0.187500 0.000000
0.287500 0.200000 0.000000
0.287500 0.212500 0.000000
0.287500 0.225000 0.000000
0.287500 0.237500 0.000000
0.287500 0.250000 0.000000
0.287500 0.262500 0.000000
0.287500 0.275000 0.000000
0.287500 0.287500 0.000000
0.287500 0.300000 0.000000
0.287500 0.312500 0.000000
0.287500 0.325000 0.000000
0.287500 0.337500 0.000000
0.287500 0.350000 0.000000
0.287500 0.362500 0.000000
0.287500 0.375000 0.000000
0.287500 0.387500 0.000000
1.507500 0.400000 0.000000
1.507500 0.412500 0.000000
1.507500 0.425000 0.000000
1.507500 0.437500 0.000000
1.507500 0.450000 0.000000
1.507500 0.462500 0.000000
1.507500 0.475000 0.000000
1.507500 0.487500 0.000000
0.325000 0.000000 0.000000
0.325000 0.012500 0.000000
0.325000 0.025000 0.000000
0.325000 0.037500 0.000000
0.325000 0.050000 0.000000
0.325000 0.062500 0.000000
0.325000 0.075000 0.000000
0.325000 0.087500 0.000000
0.325000 0.100000 0.000000
0.325000 0.112500 0.000000
0.325000 0.125000 0.000000
0.325000 0.137500 0.000000
0.325000 0.150000 0.000000
0.325000 0.162500 0.000000
0.325000 0.175000 0.000000
0.325000 0.187500 0.000000
0.325000 0.200000 0.000000
0.325000 0.212500 0.000000
0.325000 0.225000 0.000000
0.325000 0.237500 0.000000
0.325000 0.250000 0.000000
0.325000 0.262500 0.000000
0.325000 0.275000 0.000000
[...]
<PointData>
<DataArray NumberOfComponents='1' type='Int32' Name='ParticleType' format='ascii'>
5
5
5
5
5
5
5
5
5
5
5
5
5
5
5
5
2
2
2
2
2
2
2
2
2
2
2
2
2
2
2
2
2
2
2
2
2
2
2
2
2
1
1
0
0
0
0
0
5
5
5
5
5
5
5
5
2
2
2
2
2
2
2
2
2
2
2
2
2
2
2
2
2
2
2
2
2
2
2
2
2
1
1
0
0
0
0
0
5
5
5
5
5
5
5
5
2
2
2
2
2
2
2
2
2
2
2
2
2
2
2
2
2
2
2
2
2
2
2
2
2
1
0
0
0
0
0
0
5
5
5
5
5
5
5
5
2
2
2
2
2
2
2
2
2
2
2
2
2
2
2
2
2
2
2
2
2
2
2
2
1
1
0
0
0
0
0
0
5
5
5
5
5
5
5
5
2
2
2
2
2
2
2
2
2
2
2
2
2
2
2
2
2
2
2
2
2
2
2
2
1
1
0
0
0
0
0
0
5
5
5
5
5
5
5
5
2
2
2
2
2
2
2
2
2
2
2
2
2
2
2
2
2
2
2
2
2
2
2
2
1
1
0
0
0
0
0
0
5
5
5
5
5
5
5
5
2
2
2
2
2
2
2
2
2
2
2
2
2
2
2
2
2
2
2
2
2
2
2
2
1
1
0
0
0
0
0
0
5
5
5
5
5
5
5
5
2
2
2
2
2
2
2
2
2
2
2
2
2
2
2
2
2
2
2
2
2
2
2
2
1
1
0
0
0
0
0
0
5
5
5
5
5
5
5
5
2
2
2
2
2
2
2
2
2
2
2
2
2
2
2
2
2
2
2
2
2
2
2
2
1
1
0
0
0
0
0
0
5
5
5
5
5
5
5
5
2
2
2
2
2
2
2
2
2
2
2
2
2
2
2
2
2
2
2
2
2
2
2
2
1
0
0
0
0
0
0
0
5
5
5
5
5
5
5
5
2
2
2
2
2
2
2
2
2
2
2
2
2
2
2
2
2
2
2
2
2
2
2
1
1
0
0
0
0
0
0
0
5
5
5
5
5
5
5
5
2
2
2
2
2
2
2
2
2
2
2
2
2
2
2
2
2
2
2
2
2
2
2
1
1
0
0
0
0
0
0
0
5
5
5
5
5
5
5
5
2
2
2
2
2
2
2
2
2
2
2
2
2
2
2
2
2
2
2
2
2
2
2
2
1
0
0
0
0
0
0
0
5
5
5
5
5
5
5
5
2
2
2
2
2
2
2
2
2
2
2
2
2
2
2
2
2
2
2
2
2
2
2
1
1
0
0
0
0
0
0
0
2
2
2
2
2
2
2
2
2
2
2
2
2
2
2
2
2
2
2
2
2
2
2
2
1
0
0
0
0
0
0
0
2
2
2
2
2
2
2
2
2
2
2
2
2
2
2
2
2
2
2
2
2
2
2
2
1
1
0
0
0
0
0
0
2
2
2
2
2
2
2
2
2
2
2
2
2
2
2
2
2
2
2
2
2
2
2
2
1
1
0
0
0
0
0
0
2
2
2
2
2
2
2
2
2
2
2
2
2
2
2
2
2
2
2
2
2
2
2
2
1
1
0
0
0
0
0
0
2
2
2
2
2
2
2
2
2
2
2
2
2
2
2
2
2
2
2
2
2
2
2
2
1
1
0
0
0
0
0
0
2
2
2
2
2
2
2
2
2
2
2
2
2
2
2
2
2
2
2
2
2
2
2
2
1
1
0
0
0
0
0
0
2
2
2
2
2
2
2
2
2
2
2
2
2
2
2
2
2
2
2
2
2
2
2
2
1
1
0
0
0
0
0
0
2
2
2
2
2
2
2
2
2
2
2
2
2
2
2
2
2
2
2
2
2
2
2
2
1
1
0
0
0
0
0
0
2
2
2
2
2
2
2
2
2
2
2
2
2
2
2
2
2
2
2
2
2
2
2
2
1
1
0
0
0
0
0
0
2
2
2
2
2
2
2
2
2
2
2
2
2
2
2
2
2
2
2
2
2
2
2
2
2
1
1
0
0
0
0
0
2
2
2
2
2
2
2
2
2
2
2
2
2
2
2
2
2
2
2
2
2
2
2
2
2
1
0
0
0
0
0
0
2
2
2
2
2
2
2
2
2
2
2
2
2
2
2
2
2
2
2
2
2
2
2
2
2
1
1
0
0
0
0
0
2
2
2
2
2
2
2
2
2
2
2
2
2
2
2
2
2
2
2
2
2
2
2
2
2
1
1
0
0
0
0
0
2
2
2
2
2
2
2
2
2
2
2
2
2
2
2
2
2
2
2
2
2
2
2
2
2
1
1
0
0
0
0
0
2
2
2
2
2
2
2
2
2
2
2
2
2
2
2
2
2
2
2
2
2
2
2
2
2
1
1
0
0
0
0
0
2
2
2
2
2
2
2
2
2
2
2
2
2
2
2
2
2
2
2
2
2
2
2
2
2
1
1
0
0
0
0
0
2
2
2
2
2
2
2
2
2
2
2
2
2
2
2
2
2
2
2
2
2
2
2
2
2
2
1
0
0
0
0
0
2
2
2
2
2
2
2
2
2
2
2
2
2
2
2
2
2
2
2
2
2
2
2
2
2
1
1
0
0
0
0
0
2
2
2
2
2
2
2
2
2
2
2
2
2
2
2
2
2
2
2
2
2
2
2
2
2
2
1
1
0
0
0
0
2
2
2
2
2
2
2
2
2
2
2
2
2
2
2
2
2
2
2
2
2
2
2
2
2
1
1
0
0
0
0
0
2
2
2
2
2
2
2
2
2
2
2
2
2
2
2
2
2
2
2
2
2
2
2
2
2
2
1
1
0
0
0
0
2
2
2
2
2
2
2
2
2
2
2
2
2
2
2
2
2
2
2
2
2
2
2
2
2
2
1
0
0
0
0
0
2
2
2
2
2
2
2
2
2
2
2
2
2
2
2
2
2
2
2
2
2
2
2
2
2
2
1
1
0
0
0
0
2
2
2
2
2
2
2
2
2
2
2
2
2
2
2
2
2
2
2
2
2
2
2
2
2
2
1
0
0
0
0
0
2
2
2
2
2
2
2
2
2
2
2
2
2
2
2
2
2
2
2
2
2
2
2
2
2
2
1
1
0
0
0
0
2
2
2
2
2
2
2
2
2
2
2
2
2
2
2
2
2
2
2
2
2
2
2
2
2
2
1
0
0
0
0
0
2
2
2
2
2
2
2
2
2
2
2
2
2
2
2
2
2
2
2
2
2
2
2
2
2
2
2
1
0
0
0
0
2
2
2
2
2
2
2
2
2
2
2
2
2
2
2
2
2
2
2
2
2
2
2
2
2
2
2
0
0
0
0
0
2
2
2
2
2
2
2
2
2
2
2
2
2
2
2
2
2
2
2
2
2
2
2
2
2
2
2
2
0
0
0
0
2
2
2
2
2
2
2
2
2
2
2
2
2
2
2
2
2
2
2
2
2
2
2
2
2
2
2
2
0
0
0
0
2
2
2
2
2
2
2
2
2
2
2
2
2
2
2
2
2
2
2
2
2
2
2
2
2
2
2
2
2
0
0
0
2
2
2
2
2
2
2
2
2
2
2
2
2
2
2
2
2
2
2
2
2
2
2
2
2
2
2
2
2
2
2
0
2
2
2
2
2
2
2
2
2
2
2
2
2
2
2
2
2
2
2
2
2
2
2
2
2
2
2
2
2
2
2
2
2
2
2
2
2
2
2
2
2
2
2
2
2
2
2
2
2
2
2
2
2
2
2
2
2
2
2
2
2
2
2
2
2
2
2
2
2
2
2
2
2
2
2
2
2
2
2
2
2
2
2
2
2
2
2
2
2
2
2
2
2
2
2
2
2
2
2
2
2
2
2
2
2
2
2
2
2
2
2
2
2
2
2
2
2
2
2
2
2
2
2
2
2
2
2
2
2
2
2
2
2
2
2
2
2
2
2
2
2
2
2
2
2
2
2
2
2
2
2
2
2
2
2
2
2
2
2
2
2
2
2
2
2
2
2
2
2
2
2
2
2
2
2
2
2
2
2
2
2
2
2
2
2
2
2
2
2
2
2
2
2
2
2
2
2
2
2
2
2
2
2
2
2
2
2
2
2
2
2
2
2
2
2
2
2
2
2
2
2
2
2
2
</DataArray>
<DataArray NumberOfComponents='1' type='Float32' Name='Temperature' format='ascii'>
-3.000000
-3.000000
-3.000000
-3.000000
-3.000000
-3.000000
-3.000000
-3.000000
-3.000000
-3.000000
-3.000000
-3.000000
-3.000000
-3.000000
-3.000000
-3.000000
-4.989407
-4.987271
-4.983628
-4.977631
-4.968670
-4.955863
-4.938041
-4.913703
-4.880987
-4.837629
-4.780942
-4.707809
-4.614699
-4.497697
-4.352578
-4.174908
-3.960182
-3.704022
-3.402455
-3.052287
-2.651591
-2.200347
-1.700703
-1.160553
-0.572450
-0.005335
0.003078
14.781179
35.179138
60.511937
85.233453
107.734822
-3.000000
-3.000000
-3.000000
-3.000000
-3.000000
-3.000000
-3.000000
-3.000000
-4.989112
-4.986905
-4.983136
-4.976927
-4.967635
-4.954336
-4.935791
-4.910414
-4.876218
-4.830780
-4.771210
-4.694146
-4.595775
-4.471895
-4.318034
-4.129618
-3.902218
-3.631846
-3.315318
-2.950637
-2.537375
-2.077102
-1.572693
-1.036730
-0.428905
-0.000564
0.009221
27.081876
55.959584
91.812629
127.043290
159.722438
-3.000000
-3.000000
-3.000000
-3.000000
-3.000000
-3.000000
-3.000000
-3.000000
-4.988946
-4.986701
-4.982870
-4.976559
-4.967116
-4.953604
-4.934770
-4.909007
-4.874310
-4.828232
-4.767864
-4.689818
-4.590257
-4.464953
-4.309395
-4.118964
-3.889165
-3.615923
-3.295946
-2.927125
-2.508936
-2.042930
-1.531711
-0.989650
-0.348918
-0.002824
0.874549
34.515342
72.330387
119.473824
166.000334
209.439835
-3.000000
-3.000000
-3.000000
-3.000000
-3.000000
-3.000000
-3.000000
-3.000000
-4.988831
-4.986558
-4.982675
-4.976277
-4.966699
-4.952984
-4.933855
-4.907669
-4.872371
-4.825452
-4.763910
-4.684229
-4.582379
-4.453832
-4.293609
-4.096360
-3.856485
-3.568339
-3.226582
-2.826726
-2.366005
-1.844050
-1.267482
-0.625925
-0.002728
0.001591
17.309257
46.495354
90.954014
148.001865
205.336594
259.627445
-3.000000
-3.000000
-3.000000
-3.000000
-3.000000
-3.000000
-3.000000
-3.000000
-4.988766
-4.986474
-4.982559
-4.976106
-4.966440
-4.952591
-4.933262
-4.906782
-4.871058
-4.823525
-4.761110
-4.680199
-4.576636
-4.445736
-4.282349
-4.080958
-3.835869
-3.541506
-3.192850
-2.786078
-2.319419
-1.793437
-1.217289
-0.568530
-0.001601
0.007806
21.971879
55.694530
107.364162
174.248643
242.083070
307.077078
-3.000000
-3.000000
-3.000000
-3.000000
-3.000000
-3.000000
-3.000000
-3.000000
-4.988726
-4.986422
-4.982487
-4.975998
-4.966277
-4.952346
-4.932897
-4.906250
-4.870302
-4.822485
-4.759734
-4.678470
-4.574611
-4.443608
-4.280511
-4.080071
-3.836880
-3.545563
-3.201084
-2.799203
-2.337238
-1.814423
-1.238205
-0.586041
-0.005921
0.007441
21.914275
62.417713
122.355229
199.862609
278.747008
355.110607
-3.000000
-3.000000
-3.000000
-3.000000
-3.000000
-3.000000
-3.000000
-3.000000
-4.988702
-4.986391
-4.982442
-4.975929
-4.966169
-4.952177
-4.932634
-4.905845
-4.869681
-4.821538
-4.758295
-4.676288
-4.571317
-4.438664
-4.273169
-4.069349
-3.821590
-3.524443
-3.173053
-2.763730
-2.294747
-1.766265
-1.188694
-0.524800
-0.007410
0.006352
27.626533
71.054234
137.220900
223.935338
313.183298
400.721340
-3.000000
-3.000000
-3.000000
-3.000000
-3.000000
-3.000000
-3.000000
-3.000000
-4.988687
-4.986371
-4.982412
-4.975880
-4.966090
-4.952049
-4.932427
-4.905510
-4.869143
-4.820678
-4.756932
-4.674153
-4.568021
-4.433672
-4.265787
-4.058738
-3.806839
-3.504700
-3.147720
-2.732673
-2.258484
-1.725770
-1.147040
-0.472543
-0.005925
0.006131
32.476582
79.298585
151.757913
247.869388
347.868227
447.343492
-3.000000
-3.000000
-3.000000
-3.000000
-3.000000
-3.000000
-3.000000
-3.000000
-4.988678
-4.986359
-4.982394
-4.975853
-4.966045
-4.951974
-4.932305
-4.905314
-4.868832
-4.820190
-4.756176
-4.673001
-4.566296
-4.431143
-4.262162
-4.053675
-3.799963
-3.495634
-3.136127
-2.718287
-2.241127
-1.705203
-1.123919
-0.440185
0.002288
0.007698
35.452029
85.910821
164.532537
269.785312
380.284952
491.720760
-3.000000
-3.000000
-3.000000
-3.000000
-3.000000
-3.000000
-3.000000
-3.000000
-4.988672
-4.986351
-4.982381
-4.975831
-4.966009
-4.951916
-4.932210
-4.905160
-4.868585
-4.819804
-4.755583
-4.672108
-4.564982
-4.429257
-4.259530
-4.050108
-3.795275
-3.489663
-3.128737
-2.709346
-2.230437
-1.692132
-1.107334
-0.395178
-0.006080
1.252695
38.270696
92.282642
177.042736
291.643871
413.120498
537.498777
-3.000000
-3.000000
-3.000000
-3.000000
-3.000000
-3.000000
-3.000000
-3.000000
-4.988671
-4.986348
-4.982377
-4.975823
-4.965993
-4.951887
-4.932159
-4.905074
-4.868445
-4.819578
-4.755228
-4.671565
-4.564166
-4.428049
-4.257742
-4.047400
-3.790927
-3.482009
-3.113897
-2.678708
-2.166505
-1.564194
-0.871237
-0.003016
-0.005133
9.460126
41.416088
98.097556
188.309271
311.735402
443.839819
581.233369
-3.000000
-3.000000
-3.000000
-3.000000
-3.000000
-3.000000
-3.000000
-3.000000
-4.988683
-4.986360
-4.982389
-4.975835
-4.966003
-4.951891
-4.932154
-4.905054
-4.868406
-4.819521
-4.755167
-4.671538
-4.564251
-4.428383
-4.258554
-4.049052
-3.793997
-3.487467
-3.123389
-2.694828
-2.192444
-1.600401
-0.914165
-0.007220
0.000006
8.245549
41.422027
102.074003
198.515233
331.437012
474.913402
626.648062
-3.000000
-3.000000
-3.000000
-3.000000
-3.000000
-3.000000
-3.000000
-3.000000
-4.988637
-4.986283
-4.982251
-4.975585
-4.965560
-4.951128
-4.930876
-4.902967
-4.865079
-4.814349
-4.747324
-4.659947
-4.547584
-4.405102
-4.227033
-4.007810
-3.742098
-3.425177
-3.053318
-2.623916
-2.134944
-1.579645
-0.959937
-0.043927
-0.002788
5.072717
47.997464
109.454953
209.009841
349.134535
502.918632
669.011704
-3.000000
-3.000000
-3.000000
-3.000000
-3.000000
-3.000000
-3.000000
-3.000000
-4.988074
-4.985564
-4.981266
-4.974163
-4.963497
-4.948173
-4.926730
-4.897289
-4.857504
-4.804516
-4.734921
-4.644764
-4.529571
-4.384422
-4.204096
-3.983268
-3.716793
-3.400023
-3.029089
-2.600848
-2.111951
-1.552572
-0.921146
-0.002441
0.004015
6.018191
49.989557
116.232804
220.643296
367.259757
529.535708
709.061797
-4.989584
-4.987300
-4.983376
-4.976863
-4.967033
-4.952833
-4.932852
-4.905268
-4.867797
-4.817644
-4.751467
-4.665364
-4.554892
-4.415125
-4.240766
-4.026331
-3.766397
-3.455943
-3.090758
-2.667841
-2.185745
-1.642063
-1.045523
-0.244241
-0.002029
3.051910
45.707326
111.107854
215.683216
365.389986
534.006010
726.253911
-4.991901
-4.990035
-4.986812
-4.981429
-4.973242
-4.961309
-4.944358
-4.920726
-4.888298
-4.844453
-4.786007
-4.709184
-4.609603
-4.482303
-4.321803
-4.122219
-3.877451
-3.581461
-3.228675
-2.814527
-2.336269
-1.792567
-1.195001
-0.485200
-0.006799
0.006793
36.481165
99.916708
205.142725
359.319039
536.005586
743.830702
-4.993192
-4.991516
-4.988600
-4.983693
-4.976157
-4.965060
-4.949128
-4.926684
-4.895580
-4.853128
-4.796046
-4.720419
-4.621687
-4.494674
-4.333668
-4.132567
-3.885109
-3.585210
-3.227422
-2.807508
-2.323248
-1.773831
-1.172374
-0.453990
-0.001382
0.008616
39.175016
101.263211
204.414675
359.358696
541.243943
763.836023
-4.994838
-4.993497
-4.991150
-4.987170
-4.981002
-4.971827
-4.958514
-4.939553
-4.912982
-4.876311
-4.826457
-4.759687
-4.671588
-4.557073
-4.410422
-4.225369
-3.995236
-3.713117
-3.372173
-2.966080
-2.489855
-1.940242
-1.324116
-0.606612
0.002044
0.008343
28.226826
88.981926
192.794647
352.158369
542.588250
784.326641
-4.995790
-4.994615
-4.992541
-4.988989
-4.983420
-4.975031
-4.962700
-4.944915
-4.919689
-4.884480
-4.836111
-4.770708
-4.683671
-4.569668
-4.422693
-4.236170
-4.003130
-3.716486
-3.369446
-2.956104
-2.472370
-1.916088
-1.296699
-0.570576
-0.002143
0.005981
31.732544
90.562115
191.375260
350.880260
546.666353
807.034657
-4.996906
-4.995993
-4.994369
-4.991566
-4.987126
-4.980362
-4.970304
-4.955621
-4.934541
-4.904755
-4.863331
-4.806631
-4.730259
-4.629043
-4.497074
-4.327802
-4.114178
-3.848830
-3.524196
-3.132622
-2.666555
-2.118943
-1.487855
-0.760919
0.001618
0.006350
19.044238
77.446701
178.773778
342.348012
546.913190
831.069351
-4.997571
-4.996797
-4.995406
-4.992976
-4.989072
-4.983032
-4.973907
-4.960378
-4.940664
-4.912416
-4.872615
-4.817486
-4.742436
-4.642032
-4.510043
-4.339531
-4.122995
-3.852567
-3.520249
-3.118293
-2.639942
-2.080179
-1.442528
-0.705236
-0.002801
0.003151
23.698217
79.409176
176.613191
339.472635
549.285297
857.157247
-4.998279
-4.997698
-4.996644
-4.994785
-4.991764
-4.987033
-4.979793
-4.968918
-4.952861
-4.929549
-4.896262
-4.849532
-4.785043
-4.697575
-4.581006
-4.428402
-4.232204
-3.984543
-3.677647
-3.304210
-2.857377
-2.329744
-1.707488
-0.987530
0.001381
0.004603
8.781221
65.619095
163.102782
329.353521
547.791040
885.550207
-4.998711
-4.998240
-4.997373
-4.995823
-4.993258
-4.989167
-4.982785
-4.973018
-4.958330
-4.936625
-4.905116
-4.860199
-4.797344
-4.711043
-4.594825
-4.441372
-4.242726
-3.990567
-3.676447
-3.291828
-2.827858
-2.275138
-1.625496
-0.874032
-0.003250
0.000420
14.977815
68.096657
160.138562
324.552602
547.671339
915.897079
-4.999127
-4.998787
-4.998155
-4.997012
-4.995096
-4.991996
-4.987091
-4.979474
-4.967857
-4.950446
-4.924813
-4.887752
-4.835138
-4.761822
-4.661561
-4.527042
-4.350011
-4.121564
-3.832611
-3.474547
-3.040110
-2.524558
-1.924859
-1.257592
-0.426968
0.003425
0.009285
53.887355
145.863472
312.553756
543.497740
949.705351
-4.999383
-4.999122
-4.998629
-4.997722
-4.996170
-4.993603
-4.989449
-4.982851
-4.972561
-4.956801
-4.933107
-4.898161
-4.847621
-4.775990
-4.676564
-4.541487
-4.361983
-4.128784
-3.832768
-3.465739
-3.021129
-2.494178
-1.877161
-1.174004
-0.138653
-0.001821
5.374925
57.058626
142.064130
305.478440
539.765645
985.466683
-4.999604
-4.999425
-4.999083
-4.998444
-4.997332
-4.995463
-4.992388
-4.987422
-4.979553
-4.967311
-4.948625
-4.920648
-4.879581
-4.820500
-4.737222
-4.622238
-4.466755
-4.260880
-3.994005
-3.655432
-3.235313
-2.726043
-2.122604
-1.435729
-0.603165
0.002584
0.005718
41.709912
127.033533
291.288686
531.554864
1026.076574
-4.999740
-4.999612
-4.999362
-4.998886
-4.998039
-4.996577
-4.994109
-4.990017
-4.983361
-4.972733
-4.956090
-4.930540
-4.892117
-4.835554
-4.754108
-4.639490
-4.481980
-4.270800
-3.994797
-3.643465
-3.208199
-2.683825
-2.068306
-1.377645
-0.536918
-0.003244
0.008617
46.767635
122.616549
281.587931
522.602224
1068.781346
-4.999845
-4.999763
-4.999600
-4.999284
-4.998711
-4.997702
-4.995964
-4.993027
-4.988158
-4.980243
-4.967631
-4.947948
-4.917872
-4.872909
-4.807182
-4.713273
-4.582176
-4.403382
-4.165122
-3.854776
-3.459473
-2.967119
-2.367563
-1.661080
-0.820119
-0.008166
0.005190
28.416248
106.864047
264.937870
508.371862
1118.017103
-4.999910
-4.999858
-4.999753
-4.999544
-4.999157
-4.998456
-4.997217
-4.995068
-4.991412
-4.985316
-4.975355
-4.959420
-4.934483
-4.896327
-4.839291
-4.756055
-4.637538
-4.472967
-4.250133
-3.955815
-3.576249
-3.097569
-2.506356
-1.793773
-0.947575
-0.001918
0.003134
20.826149
96.364303
249.559405
490.965105
1172.898957
-4.999949
-4.999916
-4.999849
-4.999712
-4.999450
-4.998961
-4.998069
-4.996470
-4.993660
-4.988819
-4.980648
-4.967143
-4.945304
-4.910780
-4.857476
-4.777180
-4.659306
-4.490901
-4.257094
-3.942171
-3.531369
-3.013421
-2.382503
-1.648238
-0.779594
-0.005249
0.003419
32.044735
91.416259
235.333261
469.455623
1230.203615
-4.999974
-4.999955
-4.999917
-4.999836
-4.999678
-4.999375
-4.998805
-4.997758
-4.995867
-4.992528
-4.986751
-4.976978
-4.960820
-4.934735
-4.893661
-4.830641
-4.736527
-4.599882
-4.407223
-4.143733
-3.794486
-3.345927
-2.786875
-2.102862
-1.295611
-0.023463
-0.004177
7.612423
76.402081
215.063699
440.691065
1303.308476
-4.999987
-4.999977
-4.999955
-4.999909
-4.999814
-4.999625
-4.999258
-4.998557
-4.997245
-4.994842
-4.990529
-4.982957
-4.969961
-4.948177
-4.912546
-4.855738
-4.767556
-4.634465
-4.439473
-4.162704
-3.783046
-3.281265
-2.644133
-1.873308
-0.964304
-0.005892
-0.000042
23.280957
70.762492
197.102691
411.011674
1357.357556
-4.999994
-4.999989
-4.999978
-4.999954
-4.999903
-4.999798
-4.999587
-4.999169
-4.998363
-4.996837
-4.994011
-4.988897
-4.979862
-4.964290
-4.938143
-4.895424
-4.827601
-4.723132
-4.567259
-4.342386
-4.029280
-3.609311
-3.067809
-2.395904
-1.610589
-0.622678
-0.006355
0.008107
57.958499
175.488600
377.910830
1313.643283
-4.999998
-4.999995
-4.999990
-4.999978
-4.999952
-4.999895
-4.999777
-4.999533
-4.999041
-4.998070
-4.996194
-4.992651
-4.986117
-4.974358
-4.953734
-4.918519
-4.860049
-4.765771
-4.618351
-4.395149
-4.068565
-3.607997
-2.984536
-2.179392
-1.202533
-0.006351
-0.003156
15.771069
51.706833
156.813650
345.276360
1267.123985
-4.999999
-4.999998
-4.999996
-4.999991
-4.999979
-4.999952
-4.999893
-4.999767
-4.999502
-4.998956
-4.997859
-4.995705
-4.991576
-4.983864
-4.969844
-4.945064
-4.902556
-4.831905
-4.718363
-4.542337
-4.279786
-3.904162
-3.390551
-2.720690
-1.900073
-0.885815
-0.007908
0.003542
41.341797
136.326688
310.606816
1214.627669
-5.000000
-4.999999
-4.999999
-4.999996
-4.999991
-4.999980
-4.999953
-4.999891
-4.999756
-4.999464
-4.998846
-4.997568
-4.994994
-4.989935
-4.980253
-4.962235
-4.929673
-4.872628
-4.775916
-4.617573
-4.367731
-3.988622
-3.436588
-2.662753
-1.651660
-0.092047
-0.005611
9.662905
35.021463
117.975779
276.417725
1158.295283
-5.000000
-5.000000
-5.000000
-4.999999
-4.999997
-4.999993
-4.999982
-4.999956
-4.999897
-4.999761
-4.999458
-4.998799
-4.997402
-4.994518
-4.988724
-4.977422
-4.956039
-4.916881
-4.847601
-4.729470
-4.535891
-4.232150
-3.777965
-3.134368
-2.280319
-1.205811
-0.008967
-0.001215
26.910343
98.993435
240.740845
1094.329457
-5.000000
-5.000000
-5.000000
-5.000000
-4.999999
-4.999998
-4.999994
-4.999985
-4.999961
-4.999905
-4.999770
-4.999460
-4.998760
-4.997223
-4.993937
-4.987110
-4.973355
-4.946507
-4.895845
-4.803621
-4.642080
-4.370714
-3.935433
-3.271266
-2.326886
-0.949400
-0.007197
5.042976
21.209748
81.808826
205.912483
1025.133258
-5.000000
-5.000000
-5.000000
-5.000000
-5.000000
-4.999999
-4.999998
-4.999996
-4.999988
-4.999969
-4.999920
-4.999798
-4.999504
-4.998813
-4.997233
-4.993726
-4.986186
-4.970513
-4.939081
-4.878427
-4.766101
-4.567063
-4.230628
-3.690382
-2.866567
-1.721243
-0.009519
-0.005277
15.209284
64.917860
170.369301
945.977141
-5.000000
-5.000000
-5.000000
-5.000000
-5.000000
-5.000000
-5.000000
-4.999999
-4.999997
-4.999992
-4.999977
-4.999937
-4.999834
-4.999570
-4.998916
-4.997343
-4.993677
-4.985410
-4.967420
-4.929724
-4.853872
-4.707698
-4.438661
-3.966998
-3.178307
-1.943018
-0.007892
1.909232
10.695852
49.860764
136.486061
859.677184
-5.000000
-5.000000
-5.000000
-5.000000
-5.000000
-5.000000
-5.000000
-5.000000
-4.999999
-4.999998
-4.999995
-4.999986
-4.999959
-4.999882
-4.999675
-4.999126
-4.997718
-4.994227
-4.985877
-4.966659
-4.924247
-4.834840
-4.655697
-4.316694
-3.714215
-2.737260
-1.114888
-0.007557
6.688392
35.873513
103.139754
760.169595
-5.000000
-5.000000
-5.000000
-5.000000
-5.000000
-5.000000
-5.000000
-5.000000
-5.000000
-5.000000
-4.999999
-4.999998
-4.999993
-4.999977
-4.999930
-4.999789
-4.999383
-4.998253
-4.995221
-4.987387
-4.967973
-4.921976
-4.818207
-4.596309
-4.149333
-3.310137
-1.834498
0.252986
3.738914
24.021416
72.875162
650.829516
-5.000000
-5.000000
-5.000000
-5.000000
-5.000000
-5.000000
-5.000000
-5.000000
-5.000000
-5.000000
-5.000000
-5.000000
-4.999999
-4.999998
-4.999991
-4.999970
-4.999900
-4.999675
-4.998972
-4.996861
-4.990773
-4.973985
-4.929955
-4.820747
-4.566282
-4.012024
-2.913893
-0.683898
1.566980
13.948444
45.227524
523.689216
-5.000000
-5.000000
-5.000000
-5.000000
-5.000000
-5.000000
-5.000000
-5.000000
-5.000000
-5.000000
-5.000000
-5.000000
-5.000000
-5.000000
-5.000000
-4.999998
-4.999993
-4.999971
-4.999892
-4.999600
-4.998571
-4.995086
-4.983810
-4.949171
-4.848857
-4.578299
-3.904053
-2.385718
0.319962
6.474204
23.004932
382.929908
-5.000000
-5.000000
-5.000000
-5.000000
-5.000000
-5.000000
-5.000000
-5.000000
-5.000000
-5.000000
-5.000000
-5.000000
-5.000000
-5.000000
-5.000000
-5.000000
-5.000000
-4.999999
-4.999997
-4.999988
-4.999946
-4.999760
-4.998950
-4.995522
-4.981581
-4.928035
-4.735251
-4.125102
-2.170729
1.547135
6.885140
217.946927
-5.000000
-5.000000
-5.000000
-5.000000
-5.000000
-5.000000
-5.000000
-5.000000
-5.000000
-5.000000
-5.000000
-5.000000
-5.000000
-5.000000
-5.000000
-5.000000
-5.000000
-5.000000
-5.000000
-5.000000
-5.000000
-4.999998
-4.999991
-4.999961
-4.999836
-4.999328
-4.997193
-4.987870
-4.931721
-4.499747
-3.323878
33.538325
-5.000000
-5.000000
-5.000000
-5.000000
-5.000000
-5.000000
-5.000000
-5.000000
-5.000000
-5.000000
-5.000000
-5.000000
-5.000000
-5.000000