<?xml version='1.0' encoding='UTF-8'?>
<VTKFile xmlns='VTK' byte_order='LittleEndian' version='0.1' type='UnstructuredGrid'>
<UnstructuredGrid>
<Piece NumberOfCells='1888' NumberOfPoints='1888'>
<Points>
<DataArray NumberOfComponents='3' type='Float32' Name='Position' format='ascii'>
-0.040000 -0.030000 0.000000
-0.040000 -0.020000 0.000000
-0.040000 -0.010000 0.000000
-0.040000 0.000000 0.000000
-0.040000 0.010000 0.000000
-0.040000 0.020000 0.000000
-0.040000 0.030000 0.000000
-0.040000 0.040000 0.000000
-0.040000 0.050000 0.000000
-0.040000 0.060000 0.000000
-0.040000 0.070000 0.000000
-0.040000 0.080000 0.000000
-0.040000 0.090000 0.000000
-0.040000 0.100000 0.000000
-0.040000 0.110000 0.000000
-0.040000 0.120000 0.000000
-0.040000 0.130000 0.000000
-0.040000 0.140000 0.000000
-0.040000 0.150000 0.000000
-0.040000 0.160000 0.000000
-0.040000 0.170000 0.000000
-0.040000 0.180000 0.000000
-0.040000 0.190000 0.000000
-0.040000 0.200000 0.000000
-0.040000 0.210000 0.000000
-0.040000 0.220000 0.000000
-0.040000 0.230000 0.000000
-0.040000 0.240000 0.000000
-0.040000 0.250000 0.000000
-0.040000 0.260000 0.000000
-0.040000 0.270000 0.000000
-0.040000 0.280000 0.000000
-0.040000 0.290000 0.000000
-0.040000 0.300000 0.000000
-0.040000 0.310000 0.000000
-0.040000 0.320000 0.000000
-0.040000 0.330000 0.000000
-0.040000 0.340000 0.000000
-0.040000 0.350000 0.000000
-0.040000 0.360000 0.000000
-0.040000 0.370000 0.000000
-0.040000 0.380000 0.000000
-0.040000 0.390000 0.000000
-0.040000 0.400000 0.000000
0.010000 -0.030000 0.000000
0.010000 -0.020000 0.000000
0.010000 -0.010000 0.000000
0.010000 0.000000 0.000000
0.010000 0.010000 0.000000
0.010000 0.020000 0.000000
0.010000 0.030000 0.000000
0.010000 0.040000 0.000000
0.010000 0.050000 0.000000
0.010000 0.060000 0.000000
0.010000 0.070000 0.000000
0.010000 0.080000 0.000000
0.010000 0.090000 0.000000
0.010000 0.100000 0.000000
0.010000 0.110000 0.000000
0.010000 0.120000 0.000000
0.010000 0.130000 0.000000
0.010000 0.140000 0.000000
0.010000 0.150000 0.000000
0.010000 0.160000 0.000000
0.010000 0.170000 0.000000
0.010000 0.180000 0.000000
0.010000 0.190000 0.000000
0.010000 0.200000 0.000000
0.010000 0.210000 0.000000
0.010000 0.220000 0.000000
0.010000 0.230000 0.000000
0.010000 0.240000 0.000000
0.010000 0.250000 0.000000
0.010000 0.260000 0.000000
0.010000 0.270000 0.000000
0.010000 0.280000 0.000000
0.010000 0.290000 0.000000
0.010000 0.300000 0.000000
0.010000 0.310000 0.000000
0.010000 0.320000 0.000000
0.010000 0.330000 0.000000
0.010000 0.340000 0.000000
0.010000 0.350000 0.000000
0.010000 0.360000 0.000000
0.010000 0.370000 0.000000
0.010000 0.380000 0.000000
0.010000 0.390000 0.000000
0.010000 0.400000 0.000000
0.398000 0.410000 0.000000
0.398000 0.420000 0.000000
0.398000 0.430000 0.000000
0.398000 0.440000 0.000000
0.060000 -0.030000 0.000000
0.060000 -0.020000 0.000000
0.060000 -0.010000 0.000000
0.060000 0.000000 0.000000
0.060000 0.010000 0.000000
0.060000 0.020000 0.000000
0.060000 0.030000 0.000000
0.060000 0.040000 0.000000
0.060000 0.050000 0.000000
0.060000 0.060000 0.000000
0.060000 0.070000 0.000000
0.060000 0.080000 0.000000
0.060000 0.090000 0.000000
0.060000 0.100000 0.000000
0.060000 0.110000 0.000000
0.060000 0.120000 0.000000
0.060000 0.130000 0.000000
0.060000 0.140000 0.000000
0.060000 0.150000 0.000000
0.060000 0.160000 0.000000
0.060000 0.170000 0.000000
0.060000 0.180000 0.000000
0.060000 0.190000 0.000000
0.060000 0.200000 0.000000
0.060000 0.210000 0.000000
0.060000 0.220000 0.000000
0.060000 0.230000 0.000000
0.060000 0.240000 0.000000
0.060000 0.250000 0.000000
0.060000 0.260000 0.000000
0.060000 0.270000 0.000000
0.060000 0.280000 0.000000
0.060000 0.290000 0.000000
0.060000 0.300000 0.000000
0.060000 0.310000 0.000000
0.060000 0.320000 0.000000
0.060000 0.330000 0.000000
0.060000 0.340000 0.000000
0.060000 0.350000 0.000000
0.060000 0.360000 0.000000
0.060000 0.370000 0.000000
0.060000 0.380000 0.000000
0.060000 0.390000 0.000000
0.060000 0.400000 0.000000
0.448000 0.410000 0.000000
0.448000 0.420000 0.000000
0.448000 0.430000 0.000000
0.448000 0.440000 0.000000
0.110000 -0.030000 0.000000
0.110000 -0.020000 0.000000
0.110000 -0.010000 0.000000
0.110000 0.000000 0.000000
0.110000 0.010000 0.000000
0.110000 0.020000 0.000000
0.110000 0.030000 0.000000
0.110000 0.040000 0.000000
0.110000 0.050000 0.000000
0.110000 0.060000 0.000000
0.110000 0.070000 0.000000
0.110000 0.080000 0.000000
0.110000 0.090000 0.000000
0.110000 0.100000 0.000000
0.110000 0.110000 0.000000
0.110000 0.120000 0.000000
0.110000 0.130000 0.000000
0.110000 0.140000 0.000000
0.110000 0.150000 0.000000
0.110000 0.160000 0.000000
0.110000 0.170000 0.000000
0.110000 0.180000 0.000000
0.110000 0.190000 0.000000
0.110000 0.200000 0.000000
0.110000 0.210000 0.000000
0.110000 0.220000 0.000000
0.110000 0.230000 0.000000
0.110000 0.240000 0.000000
0.110000 0.250000 0.000000
0.110000 0.260000 0.000000
0.110000 0.270000 0.000000
0.110000 0.280000 0.000000
0.110000 0.290000 0.000000
0.110000 0.300000 0.000000
0.110000 0.310000 0.000000
0.110000 0.320000 0.000000
0.110000 0.330000 0.000000
0.110000 0.340000 0.000000
0.110000 0.350000 0.000000
0.110000 0.360000 0.000000
0.110000 0.370000 0.000000
0.110000 0.380000 0.000000
0.110000 0.390000 0.000000
0.110000 0.400000 0.000000
0.498000 0.410000 0.000000
0.498000 0.420000 0.000000
0.498000 0.430000 0.000000
0.498000 0.440000 0.000000
0.160000 -0.030000 0.000000
0.160000 -0.020000 0.000000
0.160000 -0.010000 0.000000
0.160000 0.000000 0.000000
0.160000 0.010000 0.000000
0.160000 0.020000 0.000000
0.160000 0.030000 0.000000
0.160000 0.040000 0.000000
0.160000 0.050000 0.000000
0.160000 0.060000 0.000000
0.160000 0.070000 0.000000
0.160000 0.080000 0.000000
0.160000 0.090000 0.000000
0.160000 0.100000 0.000000
0.160000 0.110000 0.000000
0.160000 0.120000 0.000000
0.160000 0.130000 0.000000
0.160000 0.140000 0.000000
0.160000 0.150000 0.000000
0.160000 0.160000 0.000000
0.160000 0.170000 0.000000
0.160000 0.180000 0.000000
0.160000 0.190000 0.000000
0.160000 0.200000 0.000000
0.160000 0.210000 0.000000
0.160000 0.220000 0.000000
0.160000 0.230000 0.000000
0.160000 0.240000 0.000000
0.160000 0.250000 0.000000
0.160000 0.260000 0.000000
0.160000 0.270000 0.000000
0.160000 0.280000 0.000000
0.160000 0.290000 0.000000
0.160000 0.300000 0.000000
0.160000 0.310000 0.000000
0.160000 0.320000 0.000000
0.160000 0.330000 0.000000
0.160000 0.340000 0.000000
0.160000 0.350000 0.000000
0.160000 0.360000 0.000000
0.160000 0.370000 0.000000
0.160000 0.380000 0.000000
0.160000 0.390000 0.000000
0.160000 0.400000 0.000000
0.548000 0.410000 0.000000
0.548000 0.420000 0.000000
0.548000 0.430000 0.000000
0.548000 0.440000 0.000000
0.210000 -0.030000 0.000000
0.210000 -0.020000 0.000000
0.210000 -0.010000 0.000000
0.210000 0.000000 0.000000
0.210000 0.010000 0.000000
0.210000 0.020000 0.000000
0.210000 0.030000 0.000000
0.210000 0.040000 0.000000
0.210000 0.050000 0.000000
0.210000 0.060000 0.000000
0.210000 0.070000 0.000000
0.210000 0.080000 0.000000
0.210000 0.090000 0.000000
0.210000 0.100000 0.000000
0.210000 0.110000 0.000000
0.210000 0.120000 0.000000
0.210000 0.130000 0.000000
0.210000 0.140000 0.000000
0.210000 0.150000 0.000000
0.210000 0.160000 0.000000
0.210000 0.170000 0.000000
0.210000 0.180000 0.000000
0.210000 0.190000 0.000000
0.210000 0.200000 0.000000
0.210000 0.210000 0.000000
0.210000 0.220000 0.000000
0.210000 0.230000 0.000000
0.210000 0.240000 0.000000
0.210000 0.250000 0.000000
0.210000 0.260000 0.000000
0.210000 0.270000 0.000000
0.210000 0.280000 0.000000
0.210000 0.290000 0.000000
0.210000 0.300000 0.000000
0.210000 0.310000 0.000000
0.210000 0.320000 0.000000
0.210000 0.330000 0.000000
0.210000 0.340000 0.000000
0.210000 0.350000 0.000000
0.210000 0.360000 0.000000
0.210000 0.370000 0.000000
0.210000 0.380000 0.000000
0.210000 0.390000 0.000000
0.210000 0.400000 0.000000
0.598000 0.410000 0.000000
0.598000 0.420000 0.000000
0.598000 0.430000 0.000000
0.598000 0.440000 0.000000
0.260000 -0.030000 0.000000
0.260000 -0.020000 0.000000
0.260000 -0.010000 0.000000
0.260000 0.000000 0.000000
0.260000 0.010000 0.000000
0.260000 0.020000 0.000000
0.260000 0.030000 0.000000
0.260000 0.040000 0.000000
0.260000 0.050000 0.000000
0.260000 0.060000 0.000000
0.260000 0.070000 0.000000
0.260000 0.080000 0.000000
0.260000 0.090000 0.000000
0.260000 0.100000 0.000000
0.260000 0.110000 0.000000
0.260000 0.120000 0.000000
0.260000 0.130000 0.000000
0.260000 0.140000 0.000000
0.260000 0.150000 0.000000
0.260000 0.160000 0.000000
0.260000 0.170000 0.000000
0.260000 0.180000 0.000000
0.260000 0.190000 0.000000
0.260000 0.200000 0.000000
0.260000 0.210000 0.000000
0.260000 0.220000 0.000000
0.260000 0.230000 0.000000
0.260000 0.240000 0.000000
0.260000 0.250000 0.000000
0.260000 0.260000 0.000000
0.260000 0.270000 0.000000
0.260000 0.280000 0.000000
0.260000 0.290000 0.000000
0.260000 0.300000 0.000000
0.260000 0.310000 0.000000
0.260000 0.320000 0.000000
0.260000 0.330000 0.000000
0.260000 0.340000 0.000000
0.260000 0.350000 0.000000
0.260000 0.360000 0.000000
0.260000 0.370000 0.000000
0.260000 0.380000 0.000000
0.260000 0.390000 0.000000
0.260000 0.400000 0.000000
0.648000 0.410000 0.000000
0.648000 0.420000 0.000000
0.648000 0.430000 0.000000
0.648000 0.440000 0.000000
0.310000 -0.030000 0.000000
0.310000 -0.020000 0.000000
0.310000 -0.010000 0.000000
0.310000 0.000000 0.000000
0.310000 0.010000 0.000000
0.310000 0.020000 0.000000
0.310000 0.030000 0.000000
0.310000 0.040000 0.000000
0.310000 0.050000 0.000000
0.310000 0.060000 0.000000
0.310000 0.070000 0.000000
0.310000 0.080000 0.000000
0.310000 0.090000 0.000000
0.310000 0.100000 0.000000
0.310000 0.110000 0.000000
0.310000 0.120000 0.000000
0.310000 0.130000 0.000000
0.310000 0.140000 0.000000
0.310000 0.150000 0.000000
0.310000 0.160000 0.000000
0.310000 0.170000 0.000000
0.310000 0.180000 0.000000
0.310000 0.190000 0.000000
0.310000 0.200000 0.000000
0.310000 0.210000 0.000000
[...]
<PointData>
<DataArray NumberOfComponents='1' type='Int32' Name='ParticleType' format='ascii'>
4
4
4
4
4
4
4
4
4
4
4
4
4
4
4
4
4
4
4
4
4
4
4
4
4
4
4
4
4
4
4
4
4
4
4
4
4
4
4
4
4
4
4
4
4
4
3
3
2
2
2
2
2
2
2
2
2
2
2
2
2
2
2
2
2
2
2
2
2
2
2
2
2
2
2
2
2
2
2
2
2
2
2
2
2
2
2
2
5
5
5
5
4
4
3
3
2
2
2
2
2
2
2
2
2
2
2
2
2
2
2
2
2
2
2
2
2
2
2
2
2
2
2
2
2
2
2
2
2
2
2
2
2
2
2
2
5
5
5
5
4
4
3
3
2
2
2
2
2
2
2
2
2
2
2
2
2
2
2
2
2
2
2
2
2
2
2
2
2
2
2
2
2
2
2
2
2
2
2
2
2
2
2
2
5
5
5
5
4
4
3
3
2
2
2
2
2
2
2
2
2
2
2
2
2
2
2
2
2
2
2
2
2
2
2
2
2
2
2
2
2
2
2
2
2
2
2
2
2
2
2
2
5
5
5
5
4
4
3
3
2
2
2
2
2
2
2
2
2
2
2
2
2
2
2
2
2
2
2
2
2
2
2
2
2
2
2
2
2
2
2
2
2
2
2
2
2
2
2
2
5
5
5
5
4
4
3
3
2
2
2
2
2
2
2
2
2
2
2
2
2
2
2
2
2
2
2
2
2
2
2
2
2
2
2
2
2
2
2
2
2
2
2
2
2
2
2
2
5
5
5
5
4
4
3
3
2
2
2
2
2
2
2
2
2
2
2
2
2
2
2
2
2
2
2
2
2
2
2
2
2
2
2
2
2
2
2
2
2
2
2
2
2
2
2
2
5
5
5
5
4
4
3
3
2
2
2
2
2
2
2
2
2
2
2
2
2
2
2
2
2
2
2
2
2
2
2
2
2
2
2
2
2
2
2
2
2
2
2
2
2
2
2
2
5
5
5
5
4
4
3
3
2
2
2
2
2
2
2
2
2
2
2
2
2
2
2
2
2
2
2
2
2
2
2
2
2
2
2
2
2
2
2
2
2
2
2
2
2
2
2
2
5
5
5
5
4
4
3
3
2
2
2
2
2
2
2
2
2
2
2
2
2
2
2
2
2
2
2
2
2
2
2
2
2
2
2
2
2
2
2
2
2
2
2
2
2
2
2
2
5
5
5
5
4
4
3
3
2
2
2
2
2
2
2
2
2
2
2
2
2
2
2
2
2
2
2
2
2
2
2
2
2
2
2
2
2
2
2
2
2
2
2
2
2
2
2
2
4
4
3
3
2
2
2
2
2
2
2
2
2
2
2
2
2
2
2
2
2
2
2
2
2
2
2
2
2
2
2
2
2
2
2
2
2
2
2
2
2
2
2
2
4
4
3
3
2
2
2
2
2
2
2
2
2
2
2
2
2
2
2
2
2
2
2
2
2
2
2
2
2
2
2
2
2
2
2
2
2
2
2
2
2
2
2
2
4
4
3
3
2
2
2
2
2
2
2
2
2
2
2
2
2
2
2
2
2
2
2
2
2
2
2
2
2
2
2
2
2
2
2
2
2
2
2
2
2
2
2
2
4
4
3
3
2
2
2
2
2
2
2
2
2
2
2
2
2
2
2
2
2
2
2
2
2
2
2
2
2
2
2
2
2
2
2
2
2
2
2
2
2
2
2
2
4
4
3
3
2
2
2
2
2
2
2
2
2
2
2
2
2
2
2
2
2
2
2
2
2
2
2
2
2
2
2
2
2
2
2
2
2
2
2
2
2
2
2
2
4
4
3
3
2
2
2
2
2
2
2
2
2
2
2
2
2
2
2
2
2
2
2
2
2
2
2
2
2
2
2
2
2
2
2
2
2
2
2
2
2
2
2
2
4
4
3
3
2
2
2
2
2
2
2
2
2
2
2
2
2
2
2
2
2
2
2
2
2
2
2
2
2
2
2
2
2
2
2
2
2
2
2
2
2
2
2
2
4
4
3
3
2
2
2
2
2
2
2
2
2
2
2
2
2
2
2
2
2
2
2
2
2
2
2
2
2
2
2
2
2
2
2
2
2
2
2
2
2
2
2
2
4
4
3
3
2
2
2
2
2
2
2
2
2
2
2
2
2
2
2
2
2
2
2
2
2
2
2
2
2
2
2
2
2
2
2
2
2
2
2
2
2
2
2
2
4
4
3
3
2
2
2
2
2
2
2
2
2
2
2
2
2
2
2
2
2
2
2
2
2
2
2
2
2
2
2
2
2
2
2
2
2
2
2
2
2
2
2
2
4
4
3
3
2
2
2
2
2
2
2
2
2
2
2
2
2
2
2
2
2
2
2
2
2
2
2
2
2
2
2
2
2
2
2
2
2
2
2
2
2
2
2
2
4
4
3
3
2
2
2
2
2
2
2
2
2
2
2
2
2
2
2
2
2
2
2
2
2
2
2
2
2
2
2
2
2
2
2
2
2
2
2
2
2
2
2
2
4
4
3
3
2
2
2
2
2
2
2
2
2
2
2
2
2
2
2
2
2
2
2
2
2
2
2
2
2
2
2
2
2
2
2
2
2
2
2
2
2
2
2
2
4
4
3
3
2
2
2
2
2
2
2
2
2
2
2
2
2
2
2
2
2
2
2
2
2
2
2
2
2
2
2
2
2
2
2
2
2
2
2
2
2
2
2
2
4
4
3
3
2
2
2
2
2
2
2
2
2
2
2
2
2
2
2
2
2
2
2
2
2
2
2
2
2
2
2
2
2
2
2
2
2
2
2
2
2
2
2
2
4
4
3
3
2
2
2
2
2
2
2
2
2
2
2
2
2
2
2
2
2
2
2
2
2
2
2
2
2
2
2
2
2
2
2
2
2
2
2
2
2
2
2
2
4
4
3
3
2
2
2
2
2
2
2
2
2
2
2
2
2
2
2
2
2
2
2
2
2
2
2
2
2
2
2
2
2
2
2
2
2
2
2
2
2
2
2
2
4
4
3
3
2
2
2
2
2
2
2
2
2
2
2
2
2
2
2
2
2
2
2
2
2
2
2
2
2
2
2
2
2
2
2
2
2
2
2
2
2
2
2
2
4
4
3
3
2
2
2
2
2
2
2
2
2
2
2
2
2
2
2
2
2
2
2
2
2
2
2
2
2
2
2
2
2
2
2
2
2
2
2
2
2
2
2
2
4
4
3
3
2
2
2
2
2
2
2
2
2
2
2
2
2
2
2
2
2
2
2
2
2
2
2
2
2
2
2
2
2
2
2
2
2
2
2
2
2
2
2
2
4
4
3
3
2
2
2
2
2
2
2
2
2
2
2
2
2
2
2
2
2
2
2
2
2
2
2
2
2
2
2
2
2
2
2
2
2
2
2
2
2
2
2
2
4
4
3
3
2
2
2
2
2
2
2
2
2
2
2
2
2
2
2
2
2
2
2
2
2
2
2
2
2
2
2
2
2
2
2
2
2
2
2
2
2
2
2
2
4
4
3
3
2
2
2
2
2
2
2
2
2
2
2
2
2
2
2
2
2
2
2
2
2
2
2
2
2
2
2
2
2
2
2
2
2
2
2
2
2
2
2
2
4
4
3
3
2
2
2
2
2
2
2
2
2
2
2
2
2
2
2
2
2
2
2
2
2
2
2
2
2
2
2
2
2
2
2
2
2
2
2
2
2
2
2
2
4
4
3
3
2
2
2
2
2
2
2
2
2
2
2
2
2
2
2
2
2
2
2
2
2
2
2
2
2
2
2
2
2
2
2
2
2
2
2
2
2
2
2
2
4
4
3
3
2
2
2
2
2
2
2
2
2
2
2
2
2
2
2
2
2
2
2
2
2
2
2
2
2
2
2
2
2
2
2
2
2
2
2
2
2
2
2
2
4
4
3
3
2
2
2
2
2
2
2
2
2
2
2
2
2
2
2
2
2
2
2
2
2
2
2
2
2
2
2
2
2
2
2
2
2
2
2
2
2
2
2
2
4
4
3
3
2
2
2
2
2
2
2
2
2
2
2
2
2
2
2
2
2
2
2
2
2
2
2
2
2
2
2
2
2
2
2
2
2
2
2
2
2
2
2
2
4
4
3
3
2
2
2
2
2
2
2
2
2
2
2
2
2
2
2
2
2
2
2
2
2
2
2
2
2
2
2
2
2
2
2
2
2
2
2
2
2
2
2
2
4
4
3
3
3
3
3
3
3
3
3
3
3
3
3
3
3
3
3
3
3
3
3
3
3
3
3
3
3
3
3
3
3
3
3
3
3
3
3
3
3
3
3
3
</DataArray>
<DataArray NumberOfComponents='1' type='Float32' Name='Temperature' format='ascii'>
0.000000
0.000000
0.000000
0.000000
0.000000
0.000000
0.000000
0.000000
0.000000
0.000000
0.000000
0.000000
0.000000
0.000000
0.000000
0.000000
0.000000
0.000000
0.000000
0.000000
0.000000
0.000000
0.000000
0.000000
0.000000
0.000000
0.000000
0.000000
0.000000
0.000000
0.000000
0.000000
0.000000
0.000000
0.000000
0.000000
0.000000
0.000000
0.000000
0.000000
0.000000
0.000000
0.000000
0.000000
0.000000
0.000000
0.000000
0.000000
-0.244002
-0.440470
-0.642078
-0.841094
-1.037782
-1.231530
-1.421836
-1.608221
-1.790233
-1.967458
-2.139515
-2.306066
-2.466807
-2.621480
-2.769867
-2.911789
-3.047112
-3.175739
-3.297614
-3.412715
-3.521055
-3.622681
-3.717667
-3.806111
-3.888137
-3.963883
-4.033505
-4.097170
-4.155049
-4.207321
-4.254162
-4.295745
-4.332236
-4.363791
-4.390552
-4.412648
-4.430188
-4.443260
-4.451879
-4.457261
-3.000000
-3.000000
-3.000000
-3.000000
0.000000
0.000000
0.000000
0.000000
-0.238730
-0.430900
-0.628009
-0.822451
-1.014448
-1.203365
-1.388677
-1.569885
-1.746522
-1.918159
-2.084407
-2.244918
-2.399390
-2.547564
-2.689230
-2.824221
-2.952417
-3.073743
-3.188165
-3.295694
-3.396376
-3.490295
-3.577565
-3.658331
-3.732762
-3.801049
-3.863396
-3.920022
-3.971154
-4.017019
-4.057846
-4.093858
-4.125266
-4.152270
-4.175052
-4.193776
-4.208580
-4.219580
-4.226814
-4.231323
-3.000000
-3.000000
-3.000000
-3.000000
0.000000
0.000000
0.000000
0.000000
-0.235608
-0.425219
-0.619625
-0.811284
-1.000382
-1.186259
-1.368367
-1.546187
-1.719231
-1.887054
-2.049254
-2.205472
-2.355399
-2.498775
-2.635388
-2.765079
-2.887737
-3.003301
-3.111759
-3.213144
-3.307532
-3.395038
-3.475818
-3.550055
-3.617965
-3.679786
-3.735773
-3.786199
-3.831341
-3.871482
-3.906904
-3.937879
-3.964671
-3.987524
-4.006663
-4.022290
-4.034576
-4.043661
-4.049617
-4.053319
-3.000000
-3.000000
-3.000000
-3.000000
0.000000
0.000000
0.000000
0.000000
-0.233789
-0.421894
-0.614685
-0.804646
-0.991928
-1.175847
-1.355830
-1.531331
-1.701842
-1.866896
-2.026069
-2.178990
-2.325334
-2.464829
-2.597261
-2.722465
-2.840335
-2.950819
-3.053916
-3.149679
-3.238208
-3.319653
-3.394202
-3.462084
-3.523561
-3.578923
-3.628485
-3.672577
-3.711542
-3.745725
-3.775473
-3.801124
-3.823000
-3.841408
-3.856627
-3.868906
-3.878459
-3.885464
-3.890026
-3.892847
-3.000000
-3.000000
-3.000000
-3.000000
0.000000
0.000000
0.000000
0.000000
-0.232944
-0.420335
-0.612340
-0.801441
-0.987764
-1.170598
-1.349347
-1.523438
-1.692337
-1.855550
-2.012631
-2.163180
-2.306849
-2.443347
-2.572438
-2.693945
-2.807748
-2.913790
-3.012071
-3.102652
-3.185648
-3.261229
-3.329618
-3.391083
-3.445935
-3.494524
-3.537227
-3.574450
-3.606613
-3.634145
-3.657480
-3.677042
-3.693243
-3.706471
-3.717084
-3.725405
-3.731711
-3.736231
-3.739125
-3.740887
-3.000000
-3.000000
-3.000000
-3.000000
0.000000
0.000000
0.000000
0.000000
-0.232713
-0.419902
-0.611670
-0.800493
-0.986479
-1.168904
-1.347148
-1.520620
-1.688759
-1.851048
-2.007008
-2.156209
-2.298270
-2.432863
-2.559716
-2.678617
-2.789411
-2.892010
-2.986386
-3.072580
-3.150693
-3.220894
-3.283413
-3.338543
-3.386631
-3.428079
-3.463336
-3.492888
-3.517257
-3.536986
-3.552630
-3.564746
-3.573879
-3.580556
-3.585266
-3.588453
-3.590508
-3.591751
-3.592432
-3.592786
-3.000000
-3.000000
-3.000000
-3.000000
0.000000
0.000000
0.000000
0.000000
-0.232696
-0.419868
-0.611613
-0.800406
-0.986351
-1.168716
-1.346878
-1.520236
-1.688218
-1.850292
-2.005962
-2.154775
-2.296321
-2.430239
-2.556217
-2.673993
-2.783360
-2.884168
-2.976325
-3.059799
-3.134623
-3.200897
-3.258788
-3.308539
-3.350466
-3.384959
-3.412487
-3.433593
-3.448888
-3.459049
-3.464805
-3.466922
-3.466189
-3.463397
-3.459312
-3.454654
-3.450071
-3.446113
-3.443239
-3.441309
-3.000000
-3.000000
-3.000000
-3.000000
0.000000
0.000000
0.000000
0.000000
-0.232696
-0.419867
-0.611613
-0.800405
-0.986350
-1.168715
-1.346877
-1.520233
-1.688213
-1.850284
-2.005947
-2.154750
-2.296279
-2.430168
-2.556100
-2.673803
-2.783057
-2.883688
-2.975574
-3.058640
-3.132858
-3.198247
-3.254868
-3.302823
-3.342256
-3.373352
-3.396341
-3.411503
-3.419188
-3.419831
-3.413986
-3.402363
-3.385866
-3.365637
-3.343079
-3.319851
-3.297819
-3.278926
-3.265135
-3.255767
-3.000000
-3.000000
-3.000000
-3.000000
0.000000
0.000000
0.000000
0.000000
-0.232696
-0.419867
-0.611613
-0.800405
-0.986350
-1.168715
-1.346877
-1.520233
-1.688213
-1.850284
-2.005947
-2.154750
-2.296279
-2.430168
-2.556100
-2.673803
-2.783057
-2.883688
-2.975574
-3.058640
-3.132858
-3.198247
-3.254868
-3.302823
-3.342255
-3.373350
-3.396335
-3.411488
-3.419152
-3.419747
-3.413795
-3.401936
-3.384935
-3.363665
-3.339019
-3.311754
-3.282135
-3.249939
-3.211207
-3.164795
-3.000000
-3.000000
-3.000000
-3.000000
0.000000
0.000000
0.000000
0.000000
-0.232696
-0.419867
-0.611613
-0.800405
-0.986350
-1.168715
-1.346877
-1.520233
-1.688213
-1.850284
-2.005947
-2.154750
-2.296279
-2.430168
-2.556100
-2.673803
-2.783057
-2.883688
-2.975574
-3.058640
-3.132858
-3.198247
-3.254868
-3.302823
-3.342255
-3.373350
-3.396335
-3.411488
-3.419152
-3.419747
-3.413795
-3.401936
-3.384935
-3.363665
-3.339019
-3.311754
-3.282135
-3.249939
-3.211207
-3.164795
-3.000000
-3.000000
-3.000000
-3.000000
0.000000
0.000000
0.000000
0.000000
-0.235105
-0.424222
-0.617971
-0.808752
-0.996676
-1.181005
-1.361112
-1.536389
-1.706261
-1.870184
-2.027654
-2.178207
-2.321422
-2.456921
-2.584373
-2.703495
-2.814054
-2.915862
-3.008785
-3.092733
-3.167665
-3.233587
-3.290547
-3.338637
-3.377989
-3.408780
-3.431230
-3.445614
-3.452273
-3.451634
-3.444230
-3.430720
-3.411900
-3.388677
-3.361985
-3.332611
-3.300823
-3.266366
-3.225013
-3.175529
0.000000
0.000000
0.000000
0.000000
-0.239315
-0.431839
-0.629113
-0.823415
-1.014870
-1.202739
-1.386391
-1.565212
-1.738617
-1.906055
-2.067005
-2.220988
-2.367560
-2.506323
-2.636920
-2.759040
-2.872419
-2.976839
-3.072132
-3.158175
-3.234894
-3.302261
-3.360290
-3.409043
-3.448623
-3.479180
-3.500913
-3.514082
-3.519021
-3.516161
-3.506055
-3.489401
-3.467052
-3.439989
-3.409227
-3.375618
-3.339435
-3.300365
-3.253623
-3.197790
0.000000
0.000000
0.000000
0.000000
-0.243256
-0.438986
-0.639604
-0.837288
-1.032187
-1.223570
-1.410812
-1.593303
-1.770455
-1.941710
-2.106538
-2.264441
-2.414957
-2.557658
-2.692159
-2.818110
-2.935208
-3.043190
-3.141839
-3.230982
-3.310492
-3.380285
-3.440325
-3.490617
-3.531215
-3.562219
-3.583789
-3.596149
-3.599612
-3.594603
-3.581690
-3.561609
-3.535281
-3.503776
-3.468211
-3.429523
-3.387991
-3.343235
-3.289767
-3.225952
0.000000
0.000000
0.000000
0.000000
-0.246485
-0.444866
-0.648293
-0.848877
-1.046808
-1.241379
-1.431985
-1.618032
-1.798945
-1.974170
-2.143175
-2.305453
-2.460525
-2.607939
-2.747273
-2.878137
-3.000176
-3.113068
-3.216527
-3.310308
-3.394201
-3.468040
-3.531696
-3.585086
-3.628171
-3.660965
-3.683546
-3.696067
-3.698786
-3.692096
-3.676561
-3.652952
-3.622261
-3.585668
-3.544418
-3.499557
-3.451378
-3.399414
-3.337267
-3.263031
0.000000
0.000000
0.000000
0.000000
-0.248525
-0.448615
-0.653903
-0.856488
-1.056610
-1.253603
-1.446904
-1.635954
-1.820211
-1.999150
-2.172260
-2.339048
-2.499039
-2.651775
-2.796816
-2.933739
-3.062141
-3.181637
-3.291863
-3.392476
-3.483157
-3.563608
-3.633563
-3.692785
-3.741075
-3.778283
-3.804324
-3.819202
-3.823042
-3.816137
-3.798995
-3.772384
-3.737358
-3.695218
-3.647362
-3.594979
-3.538379
-3.476982
-3.403135
-3.314599
0.000000
0.000000
0.000000
0.000000
-0.249271
-0.450011
-0.656051
-0.859511
-1.060674
-1.258922
-1.453742
-1.644629
-1.831100
-2.012689
-2.188948
-2.359446
-2.523767
-2.681506
-2.832268
-2.975660
-3.111293
-3.238772
-3.357696
-3.467651
-3.568213
-3.658939
-3.739375
-3.809055
-3.867515
-3.914303
-3.949012
-3.971310
-3.981002
-3.978088
-3.962844
-3.935894
-3.898250
-3.851279
-3.796526
-3.735329
-3.667987
-3.593732
-3.503017
-3.393192
0.000000
0.000000
0.000000
0.000000
-0.249345
-0.450155
-0.656289
-0.859874
-1.061211
-1.259700
-1.454854
-1.646202
-1.833303
-2.015745
-2.193149
-2.365167
-2.531482
-2.691810
-2.845891
-2.993490
-3.134382
-3.268349
-3.395162
-3.514567
-3.626264
-3.729886
-3.824975
-3.910969
-3.987179
-4.052798
-4.106911
-4.148546
-4.176744
-4.190674
-4.189769
-4.173872
-4.143356
-4.099132
-4.042470
-3.974510
-3.895160
-3.803049
-3.685053
-3.538021
0.000000
0.000000
0.000000
0.000000
-0.249345
-0.450156
-0.656290
-0.859876
-1.061214
-1.259705
-1.454863
-1.646218
-1.833331
-2.015794
-2.193232
-2.365306
-2.531715
-2.692194
-2.846518
-2.994498
-3.135985
-3.270866
-3.399063
-3.520532
-3.635261
-3.743264
-3.844586
-3.939293
-4.027468
-4.109211
-4.184630
-4.253829
-4.316886
-4.373820
-4.424513
-4.468575
-4.505099
-4.532230
-4.546482
-4.541734
-4.507536
-4.430001
-4.274254
-4.032563
0.000000
0.000000
0.000000
0.000000
-0.249345
-0.450156
-0.656290
-0.859876
-1.061214
-1.259705
-1.454863
-1.646218
-1.833331
-2.015794
-2.193232
-2.365306
-2.531715
-2.692194
-2.846518
-2.994498
-3.135985
-3.270866
-3.399064
-3.520532
-3.635261
-3.743265
-3.844588
-3.939296
-4.027476
-4.109233
-4.184684
-4.253958
-4.317191
-4.374523
-4.426095
-4.472046
-4.512509
-4.547610
-4.577465
-4.602177
-4.621836
-4.636513
-4.646202
-4.652258
0.000000
0.000000
0.000000
0.000000
-0.249345
-0.450156
-0.656290
-0.859876
-1.061214
-1.259705
-1.454863
-1.646218
-1.833331
-2.015794
-2.193232
-2.365306
-2.531715
-2.692194
-2.846518
-2.994498
-3.135985
-3.270866
-3.399064
-3.520532
-3.635261
-3.743265
-3.844588
-3.939296
-4.027476
-4.109233
-4.184684
-4.253958
-4.317191
-4.374523
-4.426095
-4.472046
-4.512509
-4.547610
-4.577465
-4.602177
-4.621836
-4.636513
-4.646202
-4.652258
0.000000
0.000000
0.000000
0.000000
-0.249345
-0.450156
-0.656290
-0.859876
-1.061214
-1.259705
-1.454863
-1.646218
-1.833331
-2.015794
-2.193232
-2.365306
-2.531715
-2.692194
-2.846518
-2.994498
-3.135985
-3.270866
-3.399064
-3.520532
-3.635261
-3.743265
-3.844588
-3.939296
-4.027476
-4.109233
-4.184684
-4.253958
-4.317191
-4.374523
-4.426095
-4.472046
-4.512509
-4.547610
-4.577465
-4.602177
-4.621836
-4.636513
-4.646202
-4.652258
0.000000
0.000000
0.000000
0.000000
-0.249345
-0.450156
-0.656290
-0.859876
-1.061214
-1.259705
-1.454863
-1.646218
-1.833331
-2.015794
-2.193232
-2.365306
-2.531715
-2.692194
-2.846518
-2.994498
-3.135985
-3.270866
-3.399064
-3.520532
-3.635261
-3.743265
-3.844588
-3.939296
-4.027476
-4.109233
-4.184684
-4.253958
-4.317191
-4.374523
-4.426095
-4.472046
-4.512509
-4.547610
-4.577465
-4.602177
-4.621836
-4.636513
-4.646202
-4.652258
0.000000
0.000000
0.000000
0.000000
-0.249345
-0.450156
-0.656290
-0.859876
-1.061214
-1.259705
-1.454863
-1.646218
-1.833331
-2.015794
-2.193232
-2.365306
-2.531715
-2.692194
-2.846518
-2.994498
-3.135985
-3.270866
-3.399064
-3.520532
-3.635261
-3.743265
-3.844588
-3.939296
-4.027476
-4.109233
-4.184684
-4.253958
-4.317191
-4.374523
-4.426095
-4.472046
-4.512509
-4.547610
-4.577465
-4.602177
-4.621836
-4.636513
-4.646202
-4.652258
0.000000
0.000000
0.000000
0.000000
-0.249345
-0.450156
-0.656290
-0.859876
-1.061214
-1.259705
-1.454863
-1.646218
-1.833331
-2.015794
-2.193232
-2.365306
-2.531715
-2.692194
-2.846518
-2.994498
-3.135985
-3.270866
-3.399064
-3.520532
-3.635261
-3.743265
-3.844588
-3.939296
-4.027476
-4.109233
-4.184684
-4.253958
-4.317191
-4.374523
-4.426095
-4.472046
-4.512509
-4.547610
-4.577465
-4.602177
-4.621836
-4.636513
-4.646202
-4.652258
0.000000
0.000000
0.000000
0.000000
-0.249345
-0.450156
-0.656290
-0.859876
-1.061214
-1.259705
-1.454863
-1.646218
-1.833331
-2.015794
-2.193232
-2.365306
-2.531715
-2.692194
-2.846518
-2.994498
-3.135985
-3.270866
-3.399064
-3.520532
-3.635261
-3.743265
-3.844588
-3.939296
-4.027476
-4.109233
-4.184684
-4.253958
-4.317191
-4.374523
-4.426095
-4.472046
-4.512509
-4.547610
-4.577465
-4.602177
-4.621836
-4.636513
-4.646202
-4.652258
0.000000
0.000000
0.000000
0.000000
-0.249345
-0.450156
-0.656290
-0.859876
-1.061214
-1.259705
-1.454863
-1.646218
-1.833331
-2.015794
-2.193232
-2.365306
-2.531715
-2.692194
-2.846518
-2.994498
-3.135985
-3.270866
-3.399064
-3.520532
-3.635261
-3.743265
-3.844588
-3.939296
-4.027476
-4.109233
-4.184684
-4.253958
-4.317191
-4.374523
-4.426095
-4.472046
-4.512509
-4.547610
-4.577465
-4.602177
-4.621836
-4.636513
-4.646202
-4.652258
0.000000
0.000000
0.000000
0.000000
-0.249345
-0.450156
-0.656290
-0.859876
-1.061214
-1.259705
-1.454863
-1.646218
-1.833331
-2.015794
-2.193232
-2.365306
-2.531715
-2.692194
-2.846518
-2.994498
-3.135985
-3.270866
-3.399064
-3.520532
-3.635261
-3.743265
-3.844588
-3.939296
-4.027476
-4.109233
-4.184684
-4.253958
-4.317191
-4.374523
-4.426095
-4.472046
-4.512509
-4.547610
-4.577465
-4.602177
-4.621836
-4.636513
-4.646202
-4.652258
0.000000
0.000000
0.000000
0.000000
-0.249345
-0.450156
-0.656290
-0.859876
-1.061214
-1.259705
-1.454863
-1.646218
-1.833331
-2.015794
-2.193232
-2.365306
-2.531715
-2.692194
-2.846518
-2.994498
-3.135985
-3.270866
-3.399064
-3.520532
-3.635261
-3.743265
-3.844588
-3.939296
-4.027476
-4.109233
-4.184684
-4.253958
-4.317191
-4.374523
-4.426095
-4.472046
-4.512509
-4.547610
-4.577465
-4.602177
-4.621836
-4.636513
-4.646202
-4.652258
0.000000
0.000000
0.000000
0.000000
-0.249345
-0.450156
-0.656290
-0.859876
-1.061214
-1.259705
-1.454863
-1.646218
-1.833331
-2.015794
-2.193232
-2.365306
-2.531715
-2.692194
-2.846518
-2.994498
-3.135985
-3.270866
-3.399064
-3.520532
-3.635261
-3.743265
-3.844588
-3.939296
-4.027476
-4.109233
-4.184684
-4.253958
-4.317191
-4.374523
-4.426095
-4.472046
-4.512509
-4.547610
-4.577465
-4.602177
-4.621836
-4.636513
-4.646202
-4.652258
0.000000
0.000000
0.000000
0.000000
-0.249345
-0.450156
-0.656290
-0.859876
-1.061214
-1.259705
-1.454863
-1.646218
-1.833331
-2.015794
-2.193232
-2.365306
-2.531715
-2.692194
-2.846518
-2.994498
-3.135985
-3.270866
-3.399064
-3.520532
-3.635261
-3.743265
-3.844588
-3.939296
-4.027476
-4.109233
-4.184684
-4.253958
-4.317191
-4.374523
-4.426095
-4.472046
-4.512509
-4.547610
-4.577465
-4.602177
-4.621836
-4.636513
-4.646202
-4.652258
0.000000
0.000000
0.000000
0.000000
-0.249345
-0.450156
-0.656290
-0.859876
-1.061214
-1.259705
-1.454863
-1.646218
-1.833331
-2.015794
-2.193232
-2.365306
-2.531715
-2.692194
-2.846518
-2.994498
-3.135985
-3.270866
-3.399064
-3.520532
-3.635261
-3.743265
-3.844588
-3.939296
-4.027476
-4.109233
-4.184684
-4.253958
-4.317191
-4.374523
-4.426095
-4.472046
-4.512509
-4.547610
-4.577465
-4.602177
-4.621836
-4.636513
-4.646202
-4.652258
0.000000
0.000000
0.000000
0.000000
-0.249345
-0.450156
-0.656290
-0.859876
-1.061214
-1.259705
-1.454863
-1.646218
-1.833331
-2.015794
-2.193232
-2.365306
-2.531715
-2.692194
-2.846518
-2.994498
-3.135985
-3.270866
-3.399064
-3.520532
-3.635261
-3.743265
-3.844588
-3.939296
-4.027476
-4.109233
-4.184684
-4.253958
-4.317191
-4.374523
-4.426095
-4.472046
-4.512509
-4.547610
-4.577465
-4.602177
-4.621836
-4.636513
-4.646202
-4.652258
0.000000
0.000000
0.000000
0.000000
-0.249345
-0.450156
-0.656290
-0.859876
-1.061214
-1.259705
-1.454863
-1.646218
-1.833331
-2.015794
-2.193232
-2.365306
-2.531715
-2.692194
-2.846518
-2.994498
-3.135985
-3.270866
-3.399064
-3.520532
-3.635261
-3.743265
-3.844588
-3.939296
-4.027476
-4.109233
-4.184684
-4.253958
-4.317191
-4.374523
-4.426095
-4.472046
-4.512509
-4.547610
-4.577465
-4.602177
-4.621836
-4.636513
-4.646202
-4.652258
0.000000
0.000000
0.000000
0.000000
-0.249345
-0.450156
-0.656290
-0.859876
-1.061214
-1.259705
-1.454863
-1.646218
-1.833331
-2.015794
-2.193232
-2.365306
-2.531715
-2.692194
-2.846518
-2.994498
-3.135985
-3.270866
-3.399064
-3.520532
-3.635261
-3.743265
-3.844588
-3.939296
-4.027476
-4.109233
-4.184684
-4.253958
-4.317191
-4.374523
-4.426095
-4.472046
-4.512509
-4.547610
-4.577465
-4.602177
-4.621836
-4.636513
-4.646202
-4.652258
0.000000
0.000000
0.000000
0.000000
-0.249345
-0.450156
-0.656290
-0.859876
-1.061214
-1.259705
-1.454863
-1.646218
-1.833331
-2.015794
-2.193232
-2.365306
-2.531715
-2.692194
-2.846518
-2.994498
-3.135985
-3.270866
-3.399064
-3.520532
-3.635261
-3.743265
-3.844588
-3.939296
-4.027476
-4.109233
-4.184684
-4.253958
-4.317191
-4.374523
-4.426095
-4.472046
-4.512509
-4.547610
-4.577465
-4.602177
-4.621836