<?xml version='1.0' encoding='UTF-8'?>
<VTKFile xmlns='VTK' byte_order='LittleEndian' version='0.1' type='UnstructuredGrid'>
<UnstructuredGrid>
<Piece NumberOfCells='1816' NumberOfPoints='1816'>
<Points>
<DataArray NumberOfComponents='3' type='Float32' Name='Position' format='ascii'>
0.430000 0.400000 0.000000
0.430000 0.412500 0.000000
0.430000 0.425000 0.000000
0.430000 0.437500 0.000000
0.430000 0.450000 0.000000
0.430000 0.462500 0.000000
0.430000 0.475000 0.000000
0.430000 0.487500 0.000000
0.467500 0.400000 0.000000
0.467500 0.412500 0.000000
0.467500 0.425000 0.000000
0.467500 0.437500 0.000000
0.467500 0.450000 0.000000
0.467500 0.462500 0.000000
0.467500 0.475000 0.000000
0.467500 0.487500 0.000000
0.025000 0.000000 0.000000
0.025000 0.012500 0.000000
0.025000 0.025000 0.000000
0.025000 0.037500 0.000000
0.025000 0.050000 0.000000
0.025000 0.062500 0.000000
0.025000 0.075000 0.000000
0.025000 0.087500 0.000000
0.025000 0.100000 0.000000
0.025000 0.112500 0.000000
0.025000 0.125000 0.000000
0.025000 0.137500 0.000000
0.025000 0.150000 0.000000
0.025000 0.162500 0.000000
0.025000 0.175000 0.000000
0.025000 0.187500 0.000000
0.025000 0.200000 0.000000
0.025000 0.212500 0.000000
0.025000 0.225000 0.000000
0.025000 0.237500 0.000000
0.025000 0.250000 0.000000
0.025000 0.262500 0.000000
0.025000 0.275000 0.000000
0.025000 0.287500 0.000000
0.025000 0.300000 0.000000
0.025000 0.312500 0.000000
0.025000 0.325000 0.000000
0.025000 0.337500 0.000000
0.025000 0.350000 0.000000
0.025000 0.362500 0.000000
0.025000 0.375000 0.000000
0.025000 0.387500 0.000000
0.505000 0.400000 0.000000
0.505000 0.412500 0.000000
0.505000 0.425000 0.000000
0.505000 0.437500 0.000000
0.505000 0.450000 0.000000
0.505000 0.462500 0.000000
0.505000 0.475000 0.000000
0.505000 0.487500 0.000000
0.062500 0.000000 0.000000
0.062500 0.012500 0.000000
0.062500 0.025000 0.000000
0.062500 0.037500 0.000000
0.062500 0.050000 0.000000
0.062500 0.062500 0.000000
0.062500 0.075000 0.000000
0.062500 0.087500 0.000000
0.062500 0.100000 0.000000
0.062500 0.112500 0.000000
0.062500 0.125000 0.000000
0.062500 0.137500 0.000000
0.062500 0.150000 0.000000
0.062500 0.162500 0.000000
0.062500 0.175000 0.000000
0.062500 0.187500 0.000000
0.062500 0.200000 0.000000
0.062500 0.212500 0.000000
0.062500 0.225000 0.000000
0.062500 0.237500 0.000000
0.062500 0.250000 0.000000
0.062500 0.262500 0.000000
0.062500 0.275000 0.000000
0.062500 0.287500 0.000000
0.062500 0.300000 0.000000
0.062500 0.312500 0.000000
0.062500 0.325000 0.000000
0.062500 0.337500 0.000000
0.062500 0.350000 0.000000
0.062500 0.362500 0.000000
0.062500 0.375000 0.000000
0.062500 0.387500 0.000000
0.542500 0.400000 0.000000
0.542500 0.412500 0.000000
0.542500 0.425000 0.000000
0.542500 0.437500 0.000000
0.542500 0.450000 0.000000
0.542500 0.462500 0.000000
0.542500 0.475000 0.000000
0.542500 0.487500 0.000000
0.100000 0.000000 0.000000
0.100000 0.012500 0.000000
0.100000 0.025000 0.000000
0.100000 0.037500 0.000000
0.100000 0.050000 0.000000
0.100000 0.062500 0.000000
0.100000 0.075000 0.000000
0.100000 0.087500 0.000000
0.100000 0.100000 0.000000
0.100000 0.112500 0.000000
0.100000 0.125000 0.000000
0.100000 0.137500 0.000000
0.100000 0.150000 0.000000
0.100000 0.162500 0.000000
0.100000 0.175000 0.000000
0.100000 0.187500 0.000000
0.100000 0.200000 0.000000
0.100000 0.212500 0.000000
0.100000 0.225000 0.000000
0.100000 0.237500 0.000000
0.100000 0.250000 0.000000
0.100000 0.262500 0.000000
0.100000 0.275000 0.000000
0.100000 0.287500 0.000000
0.100000 0.300000 0.000000
0.100000 0.312500 0.000000
0.100000 0.325000 0.000000
0.100000 0.337500 0.000000
0.100000 0.350000 0.000000
0.100000 0.362500 0.000000
0.100000 0.375000 0.000000
0.100000 0.387500 0.000000
0.580000 0.400000 0.000000
0.580000 0.412500 0.000000
0.580000 0.425000 0.000000
0.580000 0.437500 0.000000
0.580000 0.450000 0.000000
0.580000 0.462500 0.000000
0.580000 0.475000 0.000000
0.580000 0.487500 0.000000
0.137500 0.000000 0.000000
0.137500 0.012500 0.000000
0.137500 0.025000 0.000000
0.137500 0.037500 0.000000
0.137500 0.050000 0.000000
0.137500 0.062500 0.000000
0.137500 0.075000 0.000000
0.137500 0.087500 0.000000
0.137500 0.100000 0.000000
0.137500 0.112500 0.000000
0.137500 0.125000 0.000000
0.137500 0.137500 0.000000
0.137500 0.150000 0.000000
0.137500 0.162500 0.000000
0.137500 0.175000 0.000000
0.137500 0.187500 0.000000
0.137500 0.200000 0.000000
0.137500 0.212500 0.000000
0.137500 0.225000 0.000000
0.137500 0.237500 0.000000
0.137500 0.250000 0.000000
0.137500 0.262500 0.000000
0.137500 0.275000 0.000000
0.137500 0.287500 0.000000
0.137500 0.300000 0.000000
0.137500 0.312500 0.000000
0.137500 0.325000 0.000000
0.137500 0.337500 0.000000
0.137500 0.350000 0.000000
0.137500 0.362500 0.000000
0.137500 0.375000 0.000000
0.137500 0.387500 0.000000
0.617500 0.400000 0.000000
0.617500 0.412500 0.000000
0.617500 0.425000 0.000000
0.617500 0.437500 0.000000
0.617500 0.450000 0.000000
0.617500 0.462500 0.000000
0.617500 0.475000 0.000000
0.617500 0.487500 0.000000
0.175000 0.000000 0.000000
0.175000 0.012500 0.000000
0.175000 0.025000 0.000000
0.175000 0.037500 0.000000
0.175000 0.050000 0.000000
0.175000 0.062500 0.000000
0.175000 0.075000 0.000000
0.175000 0.087500 0.000000
0.175000 0.100000 0.000000
0.175000 0.112500 0.000000
0.175000 0.125000 0.000000
0.175000 0.137500 0.000000
0.175000 0.150000 0.000000
0.175000 0.162500 0.000000
0.175000 0.175000 0.000000
0.175000 0.187500 0.000000
0.175000 0.200000 0.000000
0.175000 0.212500 0.000000
0.175000 0.225000 0.000000
0.175000 0.237500 0.000000
0.175000 0.250000 0.000000
0.175000 0.262500 0.000000
0.175000 0.275000 0.000000
0.175000 0.287500 0.000000
0.175000 0.300000 0.000000
0.175000 0.312500 0.000000
0.175000 0.325000 0.000000
0.175000 0.337500 0.000000
0.175000 0.350000 0.000000
0.175000 0.362500 0.000000
0.175000 0.375000 0.000000
0.175000 0.387500 0.000000
0.655000 0.400000 0.000000
0.655000 0.412500 0.000000
0.655000 0.425000 0.000000
0.655000 0.437500 0.000000
0.655000 0.450000 0.000000
0.655000 0.462500 0.000000
0.655000 0.475000 0.000000
0.655000 0.487500 0.000000
0.212500 0.000000 0.000000
0.212500 0.012500 0.000000
0.212500 0.025000 0.000000
0.212500 0.037500 0.000000
0.212500 0.050000 0.000000
0.212500 0.062500 0.000000
0.212500 0.075000 0.000000
0.212500 0.087500 0.000000
0.212500 0.100000 0.000000
0.212500 0.112500 0.000000
0.212500 0.125000 0.000000
0.212500 0.137500 0.000000
0.212500 0.150000 0.000000
0.212500 0.162500 0.000000
0.212500 0.175000 0.000000
0.212500 0.187500 0.000000
0.212500 0.200000 0.000000
0.212500 0.212500 0.000000
0.212500 0.225000 0.000000
0.212500 0.237500 0.000000
0.212500 0.250000 0.000000
0.212500 0.262500 0.000000
0.212500 0.275000 0.000000
0.212500 0.287500 0.000000
0.212500 0.300000 0.000000
0.212500 0.312500 0.000000
0.212500 0.325000 0.000000
0.212500 0.337500 0.000000
0.212500 0.350000 0.000000
0.212500 0.362500 0.000000
0.212500 0.375000 0.000000
0.212500 0.387500 0.000000
0.692500 0.400000 0.000000
0.692500 0.412500 0.000000
0.692500 0.425000 0.000000
0.692500 0.437500 0.000000
0.692500 0.450000 0.000000
0.692500 0.462500 0.000000
0.692500 0.475000 0.000000
0.692500 0.487500 0.000000
0.250000 0.000000 0.000000
0.250000 0.012500 0.000000
0.250000 0.025000 0.000000
0.250000 0.037500 0.000000
0.250000 0.050000 0.000000
0.250000 0.062500 0.000000
0.250000 0.075000 0.000000
0.250000 0.087500 0.000000
0.250000 0.100000 0.000000
0.250000 0.112500 0.000000
0.250000 0.125000 0.000000
0.250000 0.137500 0.000000
0.250000 0.150000 0.000000
0.250000 0.162500 0.000000
0.250000 0.175000 0.000000
0.250000 0.187500 0.000000
0.250000 0.200000 0.000000
0.250000 0.212500 0.000000
0.250000 0.225000 0.000000
0.250000 0.237500 0.000000
0.250000 0.250000 0.000000
0.250000 0.262500 0.000000
0.250000 0.275000 0.000000
0.250000 0.287500 0.000000
0.250000 0.300000 0.000000
0.250000 0.312500 0.000000
0.250000 0.325000 0.000000
0.250000 0.337500 0.000000
0.250000 0.350000 0.000000
0.250000 0.362500 0.000000
0.250000 0.375000 0.000000
0.250000 0.387500 0.000000
0.730000 0.400000 0.000000
0.730000 0.412500 0.000000
0.730000 0.425000 0.000000
0.730000 0.437500 0.000000
0.730000 0.450000 0.000000
0.730000 0.462500 0.000000
0.730000 0.475000 0.000000
0.730000 0.487500 0.000000
0.287500 0.000000 0.000000
0.287500 0.012500 0.000000
0.287500 0.025000 0.000000
0.287500 0.037500 0.000000
0.287500 0.050000 0.000000
0.287500 0.062500 0.000000
0.287500 0.075000 0.000000
0.287500 0.087500 0.000000
0.287500 0.100000 0.000000
0.287500 0.112500 0.000000
0.287500 0.125000 0.000000
0.287500 0.137500 0.000000
0.287500 0.150000 0.000000
0.287500 0.162500 0.000000
0.287500 0.175000 0.000000
0.287500 0.187500 0.000000
0.287500 0.200000 0.000000
0.287500 0.212500 0.000000
0.287500 0.225000 0.000000
0.287500 0.237500 0.000000
0.287500 0.250000 0.000000
0.287500 0.262500 0.000000
0.287500 0.275000 0.000000
0.287500 0.287500 0.000000
0.287500 0.300000 0.000000
0.287500 0.312500 0.000000
0.287500 0.325000 0.000000
0.287500 0.337500 0.000000
0.287500 0.350000 0.000000
0.287500 0.362500 0.000000
0.287500 0.375000 0.000000
0.287500 0.387500 0.000000
0.767500 0.400000 0.000000
0.767500 0.412500 0.000000
0.767500 0.425000 0.000000
0.767500 0.437500 0.000000
0.767500 0.450000 0.000000
0.767500 0.462500 0.000000
0.767500 0.475000 0.000000
0.767500 0.487500 0.000000
0.325000 0.000000 0.000000
0.325000 0.012500 0.000000
0.325000 0.025000 0.000000
0.325000 0.037500 0.000000
0.325000 0.050000 0.000000
0.325000 0.062500 0.000000
0.325000 0.075000 0.000000
0.325000 0.087500 0.000000
0.325000 0.100000 0.000000
0.325000 0.112500 0.000000
0.325000 0.125000 0.000000
0.325000 0.137500 0.000000
0.325000 0.150000 0.000000
0.325000 0.162500 0.000000
0.325000 0.175000 0.000000
0.325000 0.187500 0.000000
0.325000 0.200000 0.000000
0.325000 0.212500 0.000000
0.325000 0.225000 0.000000
0.325000 0.237500 0.000000
0.325000 0.250000 0.000000
0.325000 0.262500 0.000000
0.325000 0.275000 0.000000
[...]
<PointData>
<DataArray NumberOfComponents='1' type='Int32' Name='ParticleType' format='ascii'>
5
5
5
5
5
5
5
5
5
5
5
5
5
5
5
5
2
2
2
2
2
2
2
2
2
2
2
2
2
2
2
2
2
2
2
2
2
2
2
2
2
2
1
1
0
0
0
0
5
5
5
5
5
5
5
5
2
2
2
2
2
2
2
2
2
2
2
2
2
2
2
2
2
2
2
2
2
2
2
2
2
2
1
1
0
0
0
0
5
5
5
5
5
5
5
5
2
2
2
2
2
2
2
2
2
2
2
2
2
2
2
2
2
2
2
2
2
2
2
2
2
2
1
1
0
0
0
0
5
5
5
5
5
5
5
5
2
2
2
2
2
2
2
2
2
2
2
2
2
2
2
2
2
2
2
2
2
2
2
2
2
2
1
1
0
0
0
0
5
5
5
5
5
5
5
5
2
2
2
2
2
2
2
2
2
2
2
2
2
2
2
2
2
2
2
2
2
2
2
2
2
2
1
1
0
0
0
0
5
5
5
5
5
5
5
5
2
2
2
2
2
2
2
2
2
2
2
2
2
2
2
2
2
2
2
2
2
2
2
2
2
2
1
1
0
0
0
0
5
5
5
5
5
5
5
5
2
2
2
2
2
2
2
2
2
2
2
2
2
2
2
2
2
2
2
2
2
2
2
2
2
2
1
1
0
0
0
0
5
5
5
5
5
5
5
5
2
2
2
2
2
2
2
2
2
2
2
2
2
2
2
2
2
2
2
2
2
2
2
2
2
2
1
1
0
0
0
0
5
5
5
5
5
5
5
5
2
2
2
2
2
2
2
2
2
2
2
2
2
2
2
2
2
2
2
2
2
2
2
2
2
2
1
1
0
0
0
0
5
5
5
5
5
5
5
5
2
2
2
2
2
2
2
2
2
2
2
2
2
2
2
2
2
2
2
2
2
2
2
2
2
2
1
1
0
0
0
0
5
5
5
5
5
5
5
5
2
2
2
2
2
2
2
2
2
2
2
2
2
2
2
2
2
2
2
2
2
2
2
2
2
2
1
1
0
0
0
0
5
5
5
5
5
5
5
5
2
2
2
2
2
2
2
2
2
2
2
2
2
2
2
2
2
2
2
2
2
2
2
2
2
2
1
1
0
0
0
0
5
5
5
5
5
5
5
5
2
2
2
2
2
2
2
2
2
2
2
2
2
2
2
2
2
2
2
2
2
2
2
2
2
2
1
1
0
0
0
0
5
5
5
5
5
5
5
5
2
2
2
2
2
2
2
2
2
2
2
2
2
2
2
2
2
2
2
2
2
2
2
2
2
1
1
0
0
0
0
0
2
2
2
2
2
2
2
2
2
2
2
2
2
2
2
2
2
2
2
2
2
2
2
2
2
1
1
0
0
0
0
0
2
2
2
2
2
2
2
2
2
2
2
2
2
2
2
2
2
2
2
2
2
2
2
2
2
2
1
1
0
0
0
0
2
2
2
2
2
2
2
2
2
2
2
2
2
2
2
2
2
2
2
2
2
2
2
2
2
2
1
0
0
0
0
0
2
2
2
2
2
2
2
2
2
2
2
2
2
2
2
2
2
2
2
2
2
2
2
2
2
2
1
1
0
0
0
0
2
2
2
2
2
2
2
2
2
2
2
2
2
2
2
2
2
2
2
2
2
2
2
2
2
2
1
0
0
0
0
0
2
2
2
2
2
2
2
2
2
2
2
2
2
2
2
2
2
2
2
2
2
2
2
2
2
2
2
1
0
0
0
0
2
2
2
2
2
2
2
2
2
2
2
2
2
2
2
2
2
2
2
2
2
2
2
2
2
2
2
0
0
0
0
0
2
2
2
2
2
2
2
2
2
2
2
2
2
2
2
2
2
2
2
2
2
2
2
2
2
2
2
1
0
0
0
0
2
2
2
2
2
2
2
2
2
2
2
2
2
2
2
2
2
2
2
2
2
2
2
2
2
2
2
2
0
0
0
0
2
2
2
2
2
2
2
2
2
2
2
2
2
2
2
2
2
2
2
2
2
2
2
2
2
2
2
2
0
0
0
0
2
2
2
2
2
2
2
2
2
2
2
2
2
2
2
2
2
2
2
2
2
2
2
2
2
2
2
2
2
0
0
0
2
2
2
2
2
2
2
2
2
2
2
2
2
2
2
2
2
2
2
2
2
2
2
2
2
2
2
2
2
2
0
0
2
2
2
2
2
2
2
2
2
2
2
2
2
2
2
2
2
2
2
2
2
2
2
2
2
2
2
2
2
2
2
2
2
2
2
2
2
2
2
2
2
2
2
2
2
2
2
2
2
2
2
2
2
2
2
2
2
2
2
2
2
2
2
2
2
2
2
2
2
2
2
2
2
2
2
2
2
2
2
2
2
2
2
2
2
2
2
2
2
2
2
2
2
2
2
2
2
2
2
2
2
2
2
2
2
2
2
2
2
2
2
2
2
2
2
2
2
2
2
2
2
2
2
2
2
2
2
2
2
2
2
2
2
2
2
2
2
2
2
2
2
2
2
2
2
2
2
2
2
2
2
2
2
2
2
2
2
2
2
2
2
2
2
2
2
2
2
2
2
2
2
2
2
2
2
2
2
2
2
2
2
2
2
2
2
2
2
2
2
2
2
2
2
2
2
2
2
2
2
2
2
2
2
2
2
2
2
2
2
2
2
2
2
2
2
2
2
2
2
2
2
2
2
2
2
2
2
2
2
2
2
2
2
2
2
2
2
2
2
2
2
2
2
2
2
2
2
2
2
2
2
2
2
2
2
2
2
2
2
2
2
2
2
2
2
2
2
2
2
2
2
2
2
2
2
2
2
2
2
2
2
2
2
2
2
2
2
2
2
2
2
2
2
2
2
2
2
2
2
2
2
2
2
2
2
2
2
2
2
2
2
2
2
2
2
2
2
2
2
2
2
2
2
2
2
2
2
2
2
2
2
2
2
2
2
2
2
2
2
2
2
2
2
2
2
2
2
2
2
2
2
2
2
2
2
2
2
2
2
2
2
2
2
2
2
2
2
2
2
2
2
2
2
2
2
2
2
2
2
2
2
2
2
2
2
2
2
2
2
2
2
2
2
2
2
2
2
2
2
2
2
2
2
2
2
2
2
2
2
2
2
2
2
2
2
2
2
2
2
2
2
2
2
2
2
2
2
2
2
2
2
2
2
2
2
2
2
2
2
2
2
2
2
2
2
2
2
2
2
2
2
2
2
2
2
2
2
2
2
2
2
2
2
2
2
2
2
2
2
2
2
2
2
2
2
2
2
2
2
2
2
2
2
2
2
2
2
2
2
2
2
2
2
2
2
2
2
2
2
2
2
2
2
2
2
2
2
2
2
2
2
2
2
2
2
2
2
2
2
2
2
2
2
2
2
2
2
2
2
2
2
2
2
2
2
2
2
2
2
2
2
2
2
2
2
2
2
2
2
2
2
2
2
2
2
2
2
2
2
2
2
2
2
2
2
2
2
2
2
2
2
2
2
2
2
2
2
2
2
2
2
2
2
2
2
2
2
2
2
2
2
2
2
2
2
2
2
2
2
2
2
2
2
2
2
2
2
2
2
2
2
2
2
2
2
2
2
2
2
2
2
2
2
2
2
2
2
2
2
2
2
2
2
2
2
2
2
2
2
2
2
2
2
2
2
2
2
2
2
2
2
2
2
2
2
2
2
2
2
2
2
2
2
2
2
2
2
2
2
2
2
2
2
2
2
2
2
2
2
2
2
2
2
2
2
2
2
2
2
2
2
2
2
2
2
2
2
2
2
2
2
2
2
2
2
2
2
2
2
2
2
2
2
2
2
2
2
2
2
2
2
2
2
2
2
2
2
2
2
2
2
2
2
2
2
2
2
2
2
2
2
2
2
2
2
2
2
2
2
2
2
2
2
2
2
2
2
2
2
2
2
2
2
2
2
2
2
2
2
2
2
2
2
2
2
2
2
2
2
2
2
2
2
2
2
2
2
2
2
2
2
2
2
2
2
2
2
2
2
2
2
2
2
2
2
2
2
2
2
2
2
2
2
2
2
2
2
2
2
2
2
2
2
2
2
2
2
2
2
2
2
2
2
2
2
2
2
2
2
2
2
2
2
2
2
2
2
2
2
2
2
2
2
2
2
2
2
2
2
2
2
2
2
2
</DataArray>
<DataArray NumberOfComponents='1' type='Float32' Name='Temperature' format='ascii'>
-3.000000
-3.000000
-3.000000
-3.000000
-3.000000
-3.000000
-3.000000
-3.000000
-3.000000
-3.000000
-3.000000
-3.000000
-3.000000
-3.000000
-3.000000
-3.000000
-4.999996
-4.999993
-4.999986
-4.999970
-4.999935
-4.999862
-4.999713
-4.999416
-4.998833
-4.997717
-4.995629
-4.991813
-4.985014
-4.973206
-4.953247
-4.920441
-4.868074
-4.786982
-4.665301
-4.488544
-4.240120
-3.902218
-3.456585
-2.884418
-2.160619
-1.280783
-0.005410
0.001293
8.797557
46.277982
95.071424
188.070940
-3.000000
-3.000000
-3.000000
-3.000000
-3.000000
-3.000000
-3.000000
-3.000000
-4.999996
-4.999993
-4.999986
-4.999969
-4.999934
-4.999860
-4.999710
-4.999409
-4.998819
-4.997688
-4.995572
-4.991704
-4.984804
-4.972811
-4.952511
-4.919079
-4.865555
-4.782307
-4.656588
-4.472305
-4.210177
-3.848524
-3.365151
-2.740855
-1.967601
-1.046776
-0.006072
0.006799
19.198353
67.972636
138.928163
281.637104
-3.000000
-3.000000
-3.000000
-3.000000
-3.000000
-3.000000
-3.000000
-3.000000
-4.999996
-4.999993
-4.999986
-4.999969
-4.999934
-4.999860
-4.999709
-4.999407
-4.998816
-4.997682
-4.995558
-4.991672
-4.984736
-4.972664
-4.952199
-4.918426
-4.864217
-4.779642
-4.651469
-4.462919
-4.193933
-3.822343
-3.326482
-2.689188
-1.908770
-0.972959
-0.008961
0.002735
26.127377
86.776684
178.625756
372.797691
-3.000000
-3.000000
-3.000000
-3.000000
-3.000000
-3.000000
-3.000000
-3.000000
-4.999996
-4.999993
-4.999986
-4.999969
-4.999934
-4.999860
-4.999709
-4.999407
-4.998815
-4.997679
-4.995551
-4.991656
-4.984699
-4.972580
-4.952011
-4.918022
-4.863376
-4.777964
-4.648277
-4.457165
-4.184176
-3.806887
-3.303781
-2.658172
-1.871027
-0.917041
0.002580
0.004056
31.885449
103.897688
216.222370
466.950294
-3.000000
-3.000000
-3.000000
-3.000000
-3.000000
-3.000000
-3.000000
-3.000000
-4.999996
-4.999993
-4.999986
-4.999969
-4.999934
-4.999860
-4.999709
-4.999407
-4.998814
-4.997678
-4.995549
-4.991650
-4.984683
-4.972543
-4.951927
-4.917839
-4.862995
-4.777204
-4.646836
-4.454579
-4.179809
-3.799967
-3.293518
-2.643702
-1.852747
-0.884646
0.002546
0.004875
36.278175
118.278369
249.170941
558.489399
-3.000000
-3.000000
-3.000000
-3.000000
-3.000000
-3.000000
-3.000000
-3.000000
-4.999996
-4.999993
-4.999986
-4.999969
-4.999934
-4.999860
-4.999709
-4.999407
-4.998814
-4.997678
-4.995547
-4.991646
-4.984675
-4.972523
-4.951881
-4.917738
-4.862782
-4.776778
-4.646029
-4.453141
-4.177403
-3.796196
-3.287982
-2.635860
-1.842987
-0.863729
-0.006622
0.005484
40.043479
131.079446
279.667402
654.469561
-3.000000
-3.000000
-3.000000
-3.000000
-3.000000
-3.000000
-3.000000
-3.000000
-4.999996
-4.999993
-4.999986
-4.999969
-4.999934
-4.999860
-4.999709
-4.999407
-4.998814
-4.997678
-4.995547
-4.991646
-4.984673
-4.972519
-4.951871
-4.917715
-4.862730
-4.776666
-4.645798
-4.452682
-4.176526
-3.794580
-3.285110
-2.630817
-1.835054
-0.845789
-0.002524
0.005845
42.696384
141.339715
305.221589
748.583078
-3.000000
-3.000000
-3.000000
-3.000000
-3.000000
-3.000000
-3.000000
-3.000000
-4.999996
-4.999993
-4.999986
-4.999969
-4.999934
-4.999860
-4.999709
-4.999407
-4.998814
-4.997678
-4.995547
-4.991646
-4.984673
-4.972518
-4.951870
-4.917710
-4.862719
-4.776639
-4.645733
-4.452534
-4.176201
-3.793894
-3.283717
-2.628036
-1.830229
-0.833538
0.000578
0.006074
44.669101
149.937331
327.495038
848.743476
-3.000000
-3.000000
-3.000000
-3.000000
-3.000000
-3.000000
-3.000000
-3.000000
-4.999996
-4.999993
-4.999986
-4.999969
-4.999934
-4.999860
-4.999709
-4.999407
-4.998814
-4.997678
-4.995547
-4.991646
-4.984673
-4.972518
-4.951870
-4.917710
-4.862717
-4.776635
-4.645724
-4.452509
-4.176137
-3.793732
-3.283327
-2.627100
-1.828423
-0.827513
0.000606
0.006195
45.915506
156.281053
344.250856
947.827895
-3.000000
-3.000000
-3.000000
-3.000000
-3.000000
-3.000000
-3.000000
-3.000000
-4.999996
-4.999993
-4.999986
-4.999969
-4.999934
-4.999860
-4.999709
-4.999407
-4.998814
-4.997678
-4.995547
-4.991646
-4.984673
-4.972518
-4.951870
-4.917710
-4.862717
-4.776635
-4.645722
-4.452505
-4.176122
-3.793688
-3.283202
-2.626745
-1.827659
-0.824408
0.000617
0.006255
46.663457
160.963578
356.367324
1054.859566
-3.000000
-3.000000
-3.000000
-3.000000
-3.000000
-3.000000
-3.000000
-3.000000
-4.999996
-4.999993
-4.999986
-4.999969
-4.999934
-4.999860
-4.999709
-4.999407
-4.998814
-4.997678
-4.995547
-4.991646
-4.984673
-4.972519
-4.951871
-4.917712
-4.862721
-4.776641
-4.645733
-4.452522
-4.176151
-3.793729
-3.283249
-2.626758
-1.827574
-0.823448
0.000563
0.006273
46.992441
163.728001
361.967604
1162.312985
-3.000000
-3.000000
-3.000000
-3.000000
-3.000000
-3.000000
-3.000000
-3.000000
-4.999996
-4.999993
-4.999986
-4.999969
-4.999934
-4.999860
-4.999709
-4.999407
-4.998815
-4.997679
-4.995550
-4.991651
-4.984682
-4.972535
-4.951901
-4.917768
-4.862825
-4.776837
-4.646093
-4.453168
-4.177255
-3.795512
-3.285931
-2.630476
-1.832245
-0.828786
-0.004996
0.006211
46.976499
164.592817
363.877154
1297.634188
-3.000000
-3.000000
-3.000000
-3.000000
-3.000000
-3.000000
-3.000000
-3.000000
-4.999996
-4.999993
-4.999986
-4.999970
-4.999935
-4.999863
-4.999714
-4.999416
-4.998831
-4.997708
-4.995601
-4.991739
-4.984834
-4.972797
-4.952357
-4.918583
-4.864320
-4.779620
-4.651258
-4.462494
-4.193293
-3.821256
-3.323748
-2.680750
-1.888738
-0.902801
0.009552
0.006118
39.529429
162.441724
362.924473
1297.287668
-3.000000
-3.000000
-3.000000
-3.000000
-3.000000
-3.000000
-3.000000
-3.000000
-4.999997
-4.999995
-4.999989
-4.999976
-4.999948
-4.999887
-4.999761
-4.999502
-4.998983
-4.997964
-4.996007
-4.992332
-4.985587
-4.973509
-4.952418
-4.916547
-4.857192
-4.761762
-4.612883
-4.387880
-4.059146
-3.596204
-2.970577
-2.164817
-1.188446
-0.008378
-0.000540
16.403102
53.424947
161.568412
353.784367
1281.482030
-4.999999
-4.999998
-4.999995
-4.999988
-4.999973
-4.999940
-4.999868
-4.999714
-4.999394
-4.998743
-4.997445
-4.994915
-4.990103
-4.981177
-4.965043
-4.936669
-4.888175
-4.807745
-4.678486
-4.477503
-4.175659
-3.738649
-3.130674
-2.320601
-1.314893
-0.005876
-0.005382
13.438238
45.402275
142.624394
320.880512
1232.190190
-5.000000
-4.999999
-4.999998
-4.999995
-4.999989
-4.999974
-4.999940
-4.999865
-4.999702
-4.999355
-4.998631
-4.997162
-4.994249
-4.988624
-4.978050
-4.958736
-4.924504
-4.865743
-4.768245
-4.612265
-4.372347
-4.018757
-3.521518
-2.856541
-2.022478
-0.991075
-0.008002
0.002073
35.867041
122.627243
285.756630
1175.842403
-5.000000
-5.000000
-4.999999
-4.999998
-4.999996
-4.999990
-4.999976
-4.999942
-4.999866
-4.999694
-4.999315
-4.998505
-4.996808
-4.993349
-4.986481
-4.973227
-4.948393
-4.903302
-4.824110
-4.689879
-4.470845
-4.127744
-3.613473
-2.875484
-1.889031
-0.409641
-0.005829
7.826349
29.695414
104.591604
251.195874
1115.191724
-5.000000
-5.000000
-5.000000
-5.000000
-4.999999
-4.999997
-4.999992
-4.999979
-4.999948
-4.999875
-4.999706
-4.999320
-4.998468
-4.996630
-4.992778
-4.984940
-4.969479
-4.939971
-4.885585
-4.789009
-4.624214
-4.354901
-3.935262
-3.315616
-2.457384
-1.352317
-0.008785
-0.002392
22.358839
86.280847
215.387194
1046.144388
-5.000000
-5.000000
-5.000000
-5.000000
-5.000000
-4.999999
-4.999998
-4.999994
-4.999983
-4.999956
-4.999889
-4.999727
-4.999343
-4.998457
-4.996470
-4.992143
-4.983004
-4.964318
-4.927397
-4.857050
-4.728084
-4.501258
-4.119985
-3.510435
-2.598155
-1.258682
-0.007057
3.748263
17.028810
69.743377
180.662022
971.241111
-5.000000
-5.000000
-5.000000
-5.000000
-5.000000
-5.000000
-4.999999
-4.999998
-4.999996
-4.999988
-4.999967
-4.999912
-4.999771
-4.999420
-4.998571
-4.996578
-4.992042
-4.982062
-4.960888
-4.917678
-4.833136
-4.675105
-4.393984
-3.920254
-3.163202
-2.061048
-0.190986
-0.005934
11.756955
53.790166
145.599976
885.312273
-5.000000
-5.000000
-5.000000
-5.000000
-5.000000
-5.000000
-5.000000
-5.000000
-4.999999
-4.999997
-4.999992
-4.999977
-4.999936
-4.999824
-4.999527
-4.998762
-4.996858
-4.992272
-4.981611
-4.957761
-4.906566
-4.801464
-4.595916
-4.214682
-3.545580
-2.455161
-0.633124
1.137144
7.776259
39.755896
112.628618
791.367162
-5.000000
-5.000000
-5.000000
-5.000000
-5.000000
-5.000000
-5.000000
-5.000000
-5.000000
-5.000000
-4.999999
-4.999996
-4.999988
-4.999963
-4.999888
-4.999675
-4.999084
-4.997492
-4.993363
-4.983052
-4.958355
-4.901811
-4.778601
-4.524520
-4.032259
-3.153459
-1.649118
-0.007926
4.454188
27.050063
80.823287
682.718839
-5.000000
-5.000000
-5.000000
-5.000000
-5.000000
-5.000000
-5.000000
-5.000000
-5.000000
-5.000000
-5.000000
-5.000000
-4.999999
-4.999995
-4.999983
-4.999944
-4.999820
-4.999439
-4.998305
-4.995054
-4.986119
-4.962655
-4.904046
-4.765521
-4.457463
-3.814215
-2.588862
-0.121179
2.101286
16.630692
52.817447
563.007842
-5.000000
-5.000000
-5.000000
-5.000000
-5.000000
-5.000000
-5.000000
-5.000000
-5.000000
-5.000000
-5.000000
-5.000000
-5.000000
-5.000000
-4.999999
-4.999996
-4.999983
-4.999938
-4.999778
-4.999225
-4.997394
-4.991571
-4.973909
-4.923138
-4.785839
-4.440522
-3.645993
-1.934681
0.580440
8.262189
28.491590
423.422204
-5.000000
-5.000000
-5.000000
-5.000000
-5.000000
-5.000000
-5.000000
-5.000000
-5.000000
-5.000000
-5.000000
-5.000000
-5.000000
-5.000000
-5.000000
-5.000000
-5.000000
-4.999998
-4.999991
-4.999960
-4.999829
-4.999293
-4.997156
-4.989010
-4.959562
-4.859885
-4.544184
-3.675214
-1.095625
2.659827
10.732179
268.431134
-5.000000
-5.000000
-5.000000
-5.000000
-5.000000
-5.000000
-5.000000
-5.000000
-5.000000
-5.000000
-5.000000
-5.000000
-5.000000
-5.000000
-5.000000
-5.000000
-5.000000
-5.000000
-5.000000
-5.000000
-4.999998
-4.999992
-4.999965
-4.999848
-4.999311
-4.996699
-4.982757
-4.909146
-4.521917
-2.164616
0.852985
86.156483
-5.000000
-5.000000
-5.000000
-5.000000
-5.000000
-5.000000
-5.000000
-5.000000
-5.000000
-5.000000
-5.000000
-5.000000
-5.000000
-5.000000
-5.000000
-5.000000
-5.000000
-5.000000
-5.000000
-5.000000
-5.000000
-5.000000
-5.000000
-4.999999
-4.999997
-4.999985
-4.999933
-4.999686
-4.998516
-4.992282
-4.978485
-4.833723
-5.000000
-5.000000
-5.000000
-5.000000
-5.000000
-5.000000
-5.000000
-5.000000
-5.000000
-5.000000
-5.000000
-5.000000
-5.000000
-5.000000
-5.000000
-5.000000
-5.000000
-5.000000
-5.000000
-5.000000
-5.000000
-5.000000
-5.000000
-5.000000
-5.000000
-5.000000
-5.000000
-4.999999
-4.999997
-4.999987
-4.999963
-4.999774
-5.000000
-5.000000
-5.000000
-5.000000
-5.000000
-5.000000
-5.000000
-5.000000
-5.000000
-5.000000
-5.000000
-5.000000
-5.000000
-5.000000
-5.000000
-5.000000
-5.000000
-5.000000
-5.000000
-5.000000
-5.000000
-5.000000
-5.000000
-5.000000
-5.000000
-5.000000
-5.000000
-5.000000
-5.000000
-5.000000
-5.000000
-5.000000
-5.000000
-5.000000
-5.000000
-5.000000
-5.000000
-5.000000
-5.000000
-5.000000
-5.000000
-5.000000
-5.000000
-5.000000
-5.000000
-5.000000
-5.000000
-5.000000
-5.000000
-5.000000
-5.000000
-5.000000
-5.000000
-5.000000
-5.000000
-5.000000
-5.000000
-5.000000
-5.000000
-5.000000
-5.000000
-5.000000
-5.000000
-5.000000
-5.000000
-5.000000
-5.000000
-5.000000
-5.000000
-5.000000
-5.000000
-5.000000
-5.000000
-5.000000
-5.000000
-5.000000
-5.000000
-5.000000
-5.000000
-5.000000
-5.000000
-5.000000
-5.000000
-5.000000
-5.000000
-5.000000
-5.000000
-5.000000
-5.000000
-5.000000
-5.000000
-5.000000
-5.000000
-5.000000
-5.000000
-5.000000
-5.000000
-5.000000
-5.000000
-5.000000
-5.000000
-5.000000
-5.000000
-5.000000
-5.000000
-5.000000
-5.000000
-5.000000
-5.000000
-5.000000
-5.000000
-5.000000
-5.000000
-5.000000
-5.000000
-5.000000
-5.000000
-5.000000
-5.000000
-5.000000
-5.000000
-5.000000
-5.000000
-5.000000
-5.000000
-5.000000
-5.000000
-5.000000
-5.000000
-5.000000
-5.000000
-5.000000
-5.000000
-5.000000
-5.000000
-5.000000
-5.000000
-5.000000
-5.000000
-5.000000
-5.000000
-5.000000
-5.000000
-5.000000
-5.000000
-5.000000
-5.000000
-5.000000
-5.000000
-5.000000
-5.000000
-5.000000
-5.000000
-5.000000
-5.000000
-5.000000
-5.000000
-5.000000
-5.000000
-5.000000
-5.000000
-5.000000
-5.000000
-5.000000
-5.000000
-5.000000
-5.000000
-5.000000
-5.000000
-5.000000
-5.000000
-5.000000
-5.000000
-5.000000
-5.000000
-5.000000
-5.000000
-5.000000
-5.000000
-5.000000
-5.000000
-5.000000
-5.000000
-5.000000
-5.000000
-5.000000
-5.000000
-5.000000
-5.000000
-5.000000
-5.000000
-5.000000
-5.000000
-5.000000
-5.000000
-5.000000
-5.000000
-5.000000
-5.000000
-5.000000
-5.000000
-5.000000
-5.000000
-5.000000
-5.000000
-5.000000
-5.000000
-5.000000
-5.000000
-5.000000
-5.000000
-5.000000
-5.000000
-5.000000
-5.000000
-5.000000
-5.000000
-5.000000
-5.000000
-5.000000
-5.000000
-5.000000
-5.000000
-5.000000
-5.000000
-5.000000
-5.000000
-5.000000
-5.000000
-5.000000
-5.000000
-5.000000
-5.000000
-5.000000
-5.000000
-5.000000
-5.000000
-5.000000
-5.000000
-5.000000
-5.000000
-5.000000
-5.000000
-5.000000
-5.000000
-5.000000
-5.000000
-5.000000
-5.000000
-5.000000
-5.000000
-5.000000
-5.000000
-5.000000
-5.000000
-5.000000
-5.000000
-5.000000
-5.000000
-5.000000
-5.000000
-5.000000
-5.000000
-5.000000
-5.000000
-5.000000
-5.000000
-5.000000
-5.000000
-5.000000
-5.000000
-5.000000
-5.000000
-5.000000
-5.000000
-5.000000
-5.000000
-5.000000
-5.000000
-5.000000
-5.000000
-5.000000
-5.000000
-5.000000
-5.000000
-5.000000
-5.000000
-5.000000
-5.000000
-5.000000
-5.000000
-5.000000
-5.000000
-5.000000
-5.000000
-5.000000
-5.000000
-5.000000
-5.000000
-5.000000
-5.000000
-5.000000
-5.000000
-5.000000
-5.000000
-5.000000
-5.000000
-5.000000
-5.000000
-5.000000
-5.000000
-5.000000
-5.000000
-5.000000
-5.000000
-5.000000
-5.000000
-5.000000
-5.000000
-5.000000
-5.000000
-5.000000
-5.000000
-5.000000
-5.000000
-5.000000
-5.000000
-5.000000
-5.000000
-5.000000
-5.000000
-5.000000
-5.000000
-5.000000
-5.000000
-5.000000
-5.000000
-5.000000
-5.000000
-5.000000
-5.000000
-5.000000
-5.000000
-5.000000
-5.000000
-5.000000
-5.000000
-5.000000
-5.000000
-5.000000
-5.000000
-5.000000
-5.000000
-5.000000
-5.000000
-5.000000
-5.000000
-5.000000
-5.000000
-5.000000
-5.000000
-5.000000
-5.000000
-5.000000
-5.000000
-5.000000
-5.000000
-5.000000
-5.000000
-5.000000
-5.000000
-5.000000
-5.000000
-5.000000
-5.000000
-5.000000
-5.000000
-5.000000
-5.000000
-5.000000
-5.000000
-5.000000
-5.000000
-5.000000
-5.000000
-5.000000
-5.000000
-5.000000
-5.000000
-5.000000
-5.000000
-5.000000
-5.000000
-5.000000
-5.000000
-5.000000
-5.000000
-5.000000
-5.000000
-5.000000
-5.000000
-5.000000
-5.000000
-5.000000
-5.000000
-5.000000
-5.000000
-5.000000
-5.000000
-5.000000
-5.000000
-5.000000
-5.000000
-5.000000
-5.000000
-5.000000
-5.000000
-5.000000
-5.000000
-5.000000
-5.000000
-5.000000
-5.000000
-5.000000
-5.000000
-5.000000
-5.000000
-5.000000
-5.000000
-5.000000
-5.000000
-5.000000
-5.000000
-5.000000
-5.000000
-5.000000
-5.000000
-5.000000
-5.000000
-5.000000
-5.000000
-5.000000
-5.000000
-5.000000
-5.000000
-5.000000
-5.000000
-5.000000
-5.000000
-5.000000
-5.000000
-5.000000
-5.000000
-5.000000
-5.000000
-5.000000
-5.000000
-5.000000
-5.000000
-5.000000
-5.000000
-5.000000
-5.000000
-5.000000
-5.000000
-5.000000
-5.000000
-5.000000
-5.000000
-5.000000
-5.000000
-5.000000
-5.000000
-5.000000
-5.000000
-5.000000
-5.000000
-5.000000
-5.000000
-5.000000
-5.000000
-5.000000
-5.000000
-5.000000
-5.000000
-5.000000
-5.000000
-5.000000
-5.000000
-5.000000
-5.000000
-5.000000
-5.000000
-5.000000
-5.000000
-5.000000
-5.000000
-5.000000
-5.000000
-5.000000
-5.000000
-5.000000
-5.000000
-5.000000
-5.000000
-5.000000
-5.000000
-5.000000
-5.000000
-5.000000
-5.000000
-5.000000
-5.000000
-5.000000
-5.000000
-5.000000
-5.000000
-5.000000
-5.000000
-5.000000
-5.000000
-5.000000
-5.000000
-5.000000
-5.000000
-5.000000
-5.000000
-5.000000
-5.000000
-5.000000
-5.000000
-5.000000
-5.000000
-5.000000
-5.000000
-5.000000
-5.000000
-5.000000
-5.000000
-5.000000
-5.000000
-5.000000
-5.000000
-5.000000
-5.000000
-5.000000
-5.000000
-5.000000
-5.000000
-5.000000
-5.000000
-5.000000
-5.000000
-5.000000
-5.000000
-5.000000
-5.000000
-5.000000
-5.000000
-5.000000
-5.000000
-5.000000
-5.000000
-5.000000
-5.000000
-5.000000
-5.000000
-5.000000
-5.000000
-5.000000
-5.000000
-5.000000
-5.000000
-5.000000
-5.000000
-5.000000
-5.000000
-5.000000
-5.000000
-5.000000
-5.000000
-5.000000
-5.000000
-5.000000
-5.000000
-5.000000
-5.000000
-5.000000
-5.000000
-5.000000
-5.000000
-5.000000
-5.000000
-5.000000
-5.000000
-5.000000
-5.000000
-5.000000