<?xml version='1.0' encoding='UTF-8'?>
<VTKFile xmlns='VTK' byte_order='LittleEndian' version='0.1' type='UnstructuredGrid'>
<UnstructuredGrid>
<Piece NumberOfCells='1888' NumberOfPoints='1888'>
<Points>
<DataArray NumberOfComponents='3' type='Float32' Name='Position' format='ascii'>
-0.040000 -0.030000 0.000000
-0.040000 -0.020000 0.000000
-0.040000 -0.010000 0.000000
-0.040000 0.000000 0.000000
-0.040000 0.010000 0.000000
-0.040000 0.020000 0.000000
-0.040000 0.030000 0.000000
-0.040000 0.040000 0.000000
-0.040000 0.050000 0.000000
-0.040000 0.060000 0.000000
-0.040000 0.070000 0.000000
-0.040000 0.080000 0.000000
-0.040000 0.090000 0.000000
-0.040000 0.100000 0.000000
-0.040000 0.110000 0.000000
-0.040000 0.120000 0.000000
-0.040000 0.130000 0.000000
-0.040000 0.140000 0.000000
-0.040000 0.150000 0.000000
-0.040000 0.160000 0.000000
-0.040000 0.170000 0.000000
-0.040000 0.180000 0.000000
-0.040000 0.190000 0.000000
-0.040000 0.200000 0.000000
-0.040000 0.210000 0.000000
-0.040000 0.220000 0.000000
-0.040000 0.230000 0.000000
-0.040000 0.240000 0.000000
-0.040000 0.250000 0.000000
-0.040000 0.260000 0.000000
-0.040000 0.270000 0.000000
-0.040000 0.280000 0.000000
-0.040000 0.290000 0.000000
-0.040000 0.300000 0.000000
-0.040000 0.310000 0.000000
-0.040000 0.320000 0.000000
-0.040000 0.330000 0.000000
-0.040000 0.340000 0.000000
-0.040000 0.350000 0.000000
-0.040000 0.360000 0.000000
-0.040000 0.370000 0.000000
-0.040000 0.380000 0.000000
-0.040000 0.390000 0.000000
-0.040000 0.400000 0.000000
0.010000 -0.030000 0.000000
0.010000 -0.020000 0.000000
0.010000 -0.010000 0.000000
0.010000 0.000000 0.000000
0.010000 0.010000 0.000000
0.010000 0.020000 0.000000
0.010000 0.030000 0.000000
0.010000 0.040000 0.000000
0.010000 0.050000 0.000000
0.010000 0.060000 0.000000
0.010000 0.070000 0.000000
0.010000 0.080000 0.000000
0.010000 0.090000 0.000000
0.010000 0.100000 0.000000
0.010000 0.110000 0.000000
0.010000 0.120000 0.000000
0.010000 0.130000 0.000000
0.010000 0.140000 0.000000
0.010000 0.150000 0.000000
0.010000 0.160000 0.000000
0.010000 0.170000 0.000000
0.010000 0.180000 0.000000
0.010000 0.190000 0.000000
0.010000 0.200000 0.000000
0.010000 0.210000 0.000000
0.010000 0.220000 0.000000
0.010000 0.230000 0.000000
0.010000 0.240000 0.000000
0.010000 0.250000 0.000000
0.010000 0.260000 0.000000
0.010000 0.270000 0.000000
0.010000 0.280000 0.000000
0.010000 0.290000 0.000000
0.010000 0.300000 0.000000
0.010000 0.310000 0.000000
0.010000 0.320000 0.000000
0.010000 0.330000 0.000000
0.010000 0.340000 0.000000
0.010000 0.350000 0.000000
0.010000 0.360000 0.000000
0.010000 0.370000 0.000000
0.010000 0.380000 0.000000
0.010000 0.390000 0.000000
0.010000 0.400000 0.000000
0.348000 0.410000 0.000000
0.348000 0.420000 0.000000
0.348000 0.430000 0.000000
0.348000 0.440000 0.000000
0.060000 -0.030000 0.000000
0.060000 -0.020000 0.000000
0.060000 -0.010000 0.000000
0.060000 0.000000 0.000000
0.060000 0.010000 0.000000
0.060000 0.020000 0.000000
0.060000 0.030000 0.000000
0.060000 0.040000 0.000000
0.060000 0.050000 0.000000
0.060000 0.060000 0.000000
0.060000 0.070000 0.000000
0.060000 0.080000 0.000000
0.060000 0.090000 0.000000
0.060000 0.100000 0.000000
0.060000 0.110000 0.000000
0.060000 0.120000 0.000000
0.060000 0.130000 0.000000
0.060000 0.140000 0.000000
0.060000 0.150000 0.000000
0.060000 0.160000 0.000000
0.060000 0.170000 0.000000
0.060000 0.180000 0.000000
0.060000 0.190000 0.000000
0.060000 0.200000 0.000000
0.060000 0.210000 0.000000
0.060000 0.220000 0.000000
0.060000 0.230000 0.000000
0.060000 0.240000 0.000000
0.060000 0.250000 0.000000
0.060000 0.260000 0.000000
0.060000 0.270000 0.000000
0.060000 0.280000 0.000000
0.060000 0.290000 0.000000
0.060000 0.300000 0.000000
0.060000 0.310000 0.000000
0.060000 0.320000 0.000000
0.060000 0.330000 0.000000
0.060000 0.340000 0.000000
0.060000 0.350000 0.000000
0.060000 0.360000 0.000000
0.060000 0.370000 0.000000
0.060000 0.380000 0.000000
0.060000 0.390000 0.000000
0.060000 0.400000 0.000000
0.398000 0.410000 0.000000
0.398000 0.420000 0.000000
0.398000 0.430000 0.000000
0.398000 0.440000 0.000000
0.110000 -0.030000 0.000000
0.110000 -0.020000 0.000000
0.110000 -0.010000 0.000000
0.110000 0.000000 0.000000
0.110000 0.010000 0.000000
0.110000 0.020000 0.000000
0.110000 0.030000 0.000000
0.110000 0.040000 0.000000
0.110000 0.050000 0.000000
0.110000 0.060000 0.000000
0.110000 0.070000 0.000000
0.110000 0.080000 0.000000
0.110000 0.090000 0.000000
0.110000 0.100000 0.000000
0.110000 0.110000 0.000000
0.110000 0.120000 0.000000
0.110000 0.130000 0.000000
0.110000 0.140000 0.000000
0.110000 0.150000 0.000000
0.110000 0.160000 0.000000
0.110000 0.170000 0.000000
0.110000 0.180000 0.000000
0.110000 0.190000 0.000000
0.110000 0.200000 0.000000
0.110000 0.210000 0.000000
0.110000 0.220000 0.000000
0.110000 0.230000 0.000000
0.110000 0.240000 0.000000
0.110000 0.250000 0.000000
0.110000 0.260000 0.000000
0.110000 0.270000 0.000000
0.110000 0.280000 0.000000
0.110000 0.290000 0.000000
0.110000 0.300000 0.000000
0.110000 0.310000 0.000000
0.110000 0.320000 0.000000
0.110000 0.330000 0.000000
0.110000 0.340000 0.000000
0.110000 0.350000 0.000000
0.110000 0.360000 0.000000
0.110000 0.370000 0.000000
0.110000 0.380000 0.000000
0.110000 0.390000 0.000000
0.110000 0.400000 0.000000
0.448000 0.410000 0.000000
0.448000 0.420000 0.000000
0.448000 0.430000 0.000000
0.448000 0.440000 0.000000
0.160000 -0.030000 0.000000
0.160000 -0.020000 0.000000
0.160000 -0.010000 0.000000
0.160000 0.000000 0.000000
0.160000 0.010000 0.000000
0.160000 0.020000 0.000000
0.160000 0.030000 0.000000
0.160000 0.040000 0.000000
0.160000 0.050000 0.000000
0.160000 0.060000 0.000000
0.160000 0.070000 0.000000
0.160000 0.080000 0.000000
0.160000 0.090000 0.000000
0.160000 0.100000 0.000000
0.160000 0.110000 0.000000
0.160000 0.120000 0.000000
0.160000 0.130000 0.000000
0.160000 0.140000 0.000000
0.160000 0.150000 0.000000
0.160000 0.160000 0.000000
0.160000 0.170000 0.000000
0.160000 0.180000 0.000000
0.160000 0.190000 0.000000
0.160000 0.200000 0.000000
0.160000 0.210000 0.000000
0.160000 0.220000 0.000000
0.160000 0.230000 0.000000
0.160000 0.240000 0.000000
0.160000 0.250000 0.000000
0.160000 0.260000 0.000000
0.160000 0.270000 0.000000
0.160000 0.280000 0.000000
0.160000 0.290000 0.000000
0.160000 0.300000 0.000000
0.160000 0.310000 0.000000
0.160000 0.320000 0.000000
0.160000 0.330000 0.000000
0.160000 0.340000 0.000000
0.160000 0.350000 0.000000
0.160000 0.360000 0.000000
0.160000 0.370000 0.000000
0.160000 0.380000 0.000000
0.160000 0.390000 0.000000
0.160000 0.400000 0.000000
0.498000 0.410000 0.000000
0.498000 0.420000 0.000000
0.498000 0.430000 0.000000
0.498000 0.440000 0.000000
0.210000 -0.030000 0.000000
0.210000 -0.020000 0.000000
0.210000 -0.010000 0.000000
0.210000 0.000000 0.000000
0.210000 0.010000 0.000000
0.210000 0.020000 0.000000
0.210000 0.030000 0.000000
0.210000 0.040000 0.000000
0.210000 0.050000 0.000000
0.210000 0.060000 0.000000
0.210000 0.070000 0.000000
0.210000 0.080000 0.000000
0.210000 0.090000 0.000000
0.210000 0.100000 0.000000
0.210000 0.110000 0.000000
0.210000 0.120000 0.000000
0.210000 0.130000 0.000000
0.210000 0.140000 0.000000
0.210000 0.150000 0.000000
0.210000 0.160000 0.000000
0.210000 0.170000 0.000000
0.210000 0.180000 0.000000
0.210000 0.190000 0.000000
0.210000 0.200000 0.000000
0.210000 0.210000 0.000000
0.210000 0.220000 0.000000
0.210000 0.230000 0.000000
0.210000 0.240000 0.000000
0.210000 0.250000 0.000000
0.210000 0.260000 0.000000
0.210000 0.270000 0.000000
0.210000 0.280000 0.000000
0.210000 0.290000 0.000000
0.210000 0.300000 0.000000
0.210000 0.310000 0.000000
0.210000 0.320000 0.000000
0.210000 0.330000 0.000000
0.210000 0.340000 0.000000
0.210000 0.350000 0.000000
0.210000 0.360000 0.000000
0.210000 0.370000 0.000000
0.210000 0.380000 0.000000
0.210000 0.390000 0.000000
0.210000 0.400000 0.000000
0.548000 0.410000 0.000000
0.548000 0.420000 0.000000
0.548000 0.430000 0.000000
0.548000 0.440000 0.000000
0.260000 -0.030000 0.000000
0.260000 -0.020000 0.000000
0.260000 -0.010000 0.000000
0.260000 0.000000 0.000000
0.260000 0.010000 0.000000
0.260000 0.020000 0.000000
0.260000 0.030000 0.000000
0.260000 0.040000 0.000000
0.260000 0.050000 0.000000
0.260000 0.060000 0.000000
0.260000 0.070000 0.000000
0.260000 0.080000 0.000000
0.260000 0.090000 0.000000
0.260000 0.100000 0.000000
0.260000 0.110000 0.000000
0.260000 0.120000 0.000000
0.260000 0.130000 0.000000
0.260000 0.140000 0.000000
0.260000 0.150000 0.000000
0.260000 0.160000 0.000000
0.260000 0.170000 0.000000
0.260000 0.180000 0.000000
0.260000 0.190000 0.000000
0.260000 0.200000 0.000000
0.260000 0.210000 0.000000
0.260000 0.220000 0.000000
0.260000 0.230000 0.000000
0.260000 0.240000 0.000000
0.260000 0.250000 0.000000
0.260000 0.260000 0.000000
0.260000 0.270000 0.000000
0.260000 0.280000 0.000000
0.260000 0.290000 0.000000
0.260000 0.300000 0.000000
0.260000 0.310000 0.000000
0.260000 0.320000 0.000000
0.260000 0.330000 0.000000
0.260000 0.340000 0.000000
0.260000 0.350000 0.000000
0.260000 0.360000 0.000000
0.260000 0.370000 0.000000
0.260000 0.380000 0.000000
0.260000 0.390000 0.000000
0.260000 0.400000 0.000000
0.598000 0.410000 0.000000
0.598000 0.420000 0.000000
0.598000 0.430000 0.000000
0.598000 0.440000 0.000000
0.310000 -0.030000 0.000000
0.310000 -0.020000 0.000000
0.310000 -0.010000 0.000000
0.310000 0.000000 0.000000
0.310000 0.010000 0.000000
0.310000 0.020000 0.000000
0.310000 0.030000 0.000000
0.310000 0.040000 0.000000
0.310000 0.050000 0.000000
0.310000 0.060000 0.000000
0.310000 0.070000 0.000000
0.310000 0.080000 0.000000
0.310000 0.090000 0.000000
0.310000 0.100000 0.000000
0.310000 0.110000 0.000000
0.310000 0.120000 0.000000
0.310000 0.130000 0.000000
0.310000 0.140000 0.000000
0.310000 0.150000 0.000000
0.310000 0.160000 0.000000
0.310000 0.170000 0.000000
0.310000 0.180000 0.000000
0.310000 0.190000 0.000000
0.310000 0.200000 0.000000
0.310000 0.210000 0.000000
[...]
<PointData>
<DataArray NumberOfComponents='1' type='Int32' Name='ParticleType' format='ascii'>
4
4
4
4
4
4
4
4
4
4
4
4
4
4
4
4
4
4
4
4
4
4
4
4
4
4
4
4
4
4
4
4
4
4
4
4
4
4
4
4
4
4
4
4
4
4
3
3
2
2
2
2
2
2
2
2
2
2
2
2
2
2
2
2
2
2
2
2
2
2
2
2
2
2
2
2
2
2
2
2
2
2
2
2
2
2
2
2
5
5
5
5
4
4
3
3
2
2
2
2
2
2
2
2
2
2
2
2
2
2
2
2
2
2
2
2
2
2
2
2
2
2
2
2
2
2
2
2
2
2
2
2
2
2
2
2
5
5
5
5
4
4
3
3
2
2
2
2
2
2
2
2
2
2
2
2
2
2
2
2
2
2
2
2
2
2
2
2
2
2
2
2
2
2
2
2
2
2
2
2
2
2
2
2
5
5
5
5
4
4
3
3
2
2
2
2
2
2
2
2
2
2
2
2
2
2
2
2
2
2
2
2
2
2
2
2
2
2
2
2
2
2
2
2
2
2
2
2
2
2
2
2
5
5
5
5
4
4
3
3
2
2
2
2
2
2
2
2
2
2
2
2
2
2
2
2
2
2
2
2
2
2
2
2
2
2
2
2
2
2
2
2
2
2
2
2
2
2
2
2
5
5
5
5
4
4
3
3
2
2
2
2
2
2
2
2
2
2
2
2
2
2
2
2
2
2
2
2
2
2
2
2
2
2
2
2
2
2
2
2
2
2
2
2
2
2
2
2
5
5
5
5
4
4
3
3
2
2
2
2
2
2
2
2
2
2
2
2
2
2
2
2
2
2
2
2
2
2
2
2
2
2
2
2
2
2
2
2
2
2
2
2
2
2
2
2
5
5
5
5
4
4
3
3
2
2
2
2
2
2
2
2
2
2
2
2
2
2
2
2
2
2
2
2
2
2
2
2
2
2
2
2
2
2
2
2
2
2
2
2
2
2
2
2
5
5
5
5
4
4
3
3
2
2
2
2
2
2
2
2
2
2
2
2
2
2
2
2
2
2
2
2
2
2
2
2
2
2
2
2
2
2
2
2
2
2
2
2
2
2
2
2
5
5
5
5
4
4
3
3
2
2
2
2
2
2
2
2
2
2
2
2
2
2
2
2
2
2
2
2
2
2
2
2
2
2
2
2
2
2
2
2
2
2
2
2
2
2
2
2
5
5
5
5
4
4
3
3
2
2
2
2
2
2
2
2
2
2
2
2
2
2
2
2
2
2
2
2
2
2
2
2
2
2
2
2
2
2
2
2
2
2
2
2
2
2
2
2
4
4
3
3
2
2
2
2
2
2
2
2
2
2
2
2
2
2
2
2
2
2
2
2
2
2
2
2
2
2
2
2
2
2
2
2
2
2
2
2
2
2
2
2
4
4
3
3
2
2
2
2
2
2
2
2
2
2
2
2
2
2
2
2
2
2
2
2
2
2
2
2
2
2
2
2
2
2
2
2
2
2
2
2
2
2
2
2
4
4
3
3
2
2
2
2
2
2
2
2
2
2
2
2
2
2
2
2
2
2
2
2
2
2
2
2
2
2
2
2
2
2
2
2
2
2
2
2
2
2
2
2
4
4
3
3
2
2
2
2
2
2
2
2
2
2
2
2
2
2
2
2
2
2
2
2
2
2
2
2
2
2
2
2
2
2
2
2
2
2
2
2
2
2
2
2
4
4
3
3
2
2
2
2
2
2
2
2
2
2
2
2
2
2
2
2
2
2
2
2
2
2
2
2
2
2
2
2
2
2
2
2
2
2
2
2
2
2
2
2
4
4
3
3
2
2
2
2
2
2
2
2
2
2
2
2
2
2
2
2
2
2
2
2
2
2
2
2
2
2
2
2
2
2
2
2
2
2
2
2
2
2
2
2
4
4
3
3
2
2
2
2
2
2
2
2
2
2
2
2
2
2
2
2
2
2
2
2
2
2
2
2
2
2
2
2
2
2
2
2
2
2
2
2
2
2
2
2
4
4
3
3
2
2
2
2
2
2
2
2
2
2
2
2
2
2
2
2
2
2
2
2
2
2
2
2
2
2
2
2
2
2
2
2
2
2
2
2
2
2
2
2
4
4
3
3
2
2
2
2
2
2
2
2
2
2
2
2
2
2
2
2
2
2
2
2
2
2
2
2
2
2
2
2
2
2
2
2
2
2
2
2
2
2
2
2
4
4
3
3
2
2
2
2
2
2
2
2
2
2
2
2
2
2
2
2
2
2
2
2
2
2
2
2
2
2
2
2
2
2
2
2
2
2
2
2
2
2
2
2
4
4
3
3
2
2
2
2
2
2
2
2
2
2
2
2
2
2
2
2
2
2
2
2
2
2
2
2
2
2
2
2
2
2
2
2
2
2
2
2
2
2
2
2
4
4
3
3
2
2
2
2
2
2
2
2
2
2
2
2
2
2
2
2
2
2
2
2
2
2
2
2
2
2
2
2
2
2
2
2
2
2
2
2
2
2
2
2
4
4
3
3
2
2
2
2
2
2
2
2
2
2
2
2
2
2
2
2
2
2
2
2
2
2
2
2
2
2
2
2
2
2
2
2
2
2
2
2
2
2
2
2
4
4
3
3
2
2
2
2
2
2
2
2
2
2
2
2
2
2
2
2
2
2
2
2
2
2
2
2
2
2
2
2
2
2
2
2
2
2
2
2
2
2
2
2
4
4
3
3
2
2
2
2
2
2
2
2
2
2
2
2
2
2
2
2
2
2
2
2
2
2
2
2
2
2
2
2
2
2
2
2
2
2
2
2
2
2
2
2
4
4
3
3
2
2
2
2
2
2
2
2
2
2
2
2
2
2
2
2
2
2
2
2
2
2
2
2
2
2
2
2
2
2
2
2
2
2
2
2
2
2
2
2
4
4
3
3
2
2
2
2
2
2
2
2
2
2
2
2
2
2
2
2
2
2
2
2
2
2
2
2
2
2
2
2
2
2
2
2
2
2
2
2
2
2
2
2
4
4
3
3
2
2
2
2
2
2
2
2
2
2
2
2
2
2
2
2
2
2
2
2
2
2
2
2
2
2
2
2
2
2
2
2
2
2
2
2
2
2
2
2
4
4
3
3
2
2
2
2
2
2
2
2
2
2
2
2
2
2
2
2
2
2
2
2
2
2
2
2
2
2
2
2
2
2
2
2
2
2
2
2
2
2
2
2
4
4
3
3
2
2
2
2
2
2
2
2
2
2
2
2
2
2
2
2
2
2
2
2
2
2
2
2
2
2
2
2
2
2
2
2
2
2
2
2
2
2
2
2
4
4
3
3
2
2
2
2
2
2
2
2
2
2
2
2
2
2
2
2
2
2
2
2
2
2
2
2
2
2
2
2
2
2
2
2
2
2
2
2
2
2
2
2
4
4
3
3
2
2
2
2
2
2
2
2
2
2
2
2
2
2
2
2
2
2
2
2
2
2
2
2
2
2
2
2
2
2
2
2
2
2
2
2
2
2
2
2
4
4
3
3
2
2
2
2
2
2
2
2
2
2
2
2
2
2
2
2
2
2
2
2
2
2
2
2
2
2
2
2
2
2
2
2
2
2
2
2
2
2
2
2
4
4
3
3
2
2
2
2
2
2
2
2
2
2
2
2
2
2
2
2
2
2
2
2
2
2
2
2
2
2
2
2
2
2
2
2
2
2
2
2
2
2
2
2
4
4
3
3
2
2
2
2
2
2
2
2
2
2
2
2
2
2
2
2
2
2
2
2
2
2
2
2
2
2
2
2
2
2
2
2
2
2
2
2
2
2
2
2
4
4
3
3
2
2
2
2
2
2
2
2
2
2
2
2
2
2
2
2
2
2
2
2
2
2
2
2
2
2
2
2
2
2
2
2
2
2
2
2
2
2
2
2
4
4
3
3
2
2
2
2
2
2
2
2
2
2
2
2
2
2
2
2
2
2
2
2
2
2
2
2
2
2
2
2
2
2
2
2
2
2
2
2
2
2
2
2
4
4
3
3
2
2
2
2
2
2
2
2
2
2
2
2
2
2
2
2
2
2
2
2
2
2
2
2
2
2
2
2
2
2
2
2
2
2
2
2
2
2
2
2
4
4
3
3
2
2
2
2
2
2
2
2
2
2
2
2
2
2
2
2
2
2
2
2
2
2
2
2
2
2
2
2
2
2
2
2
2
2
2
2
2
2
2
2
4
4
3
3
3
3
3
3
3
3
3
3
3
3
3
3
3
3
3
3
3
3
3
3
3
3
3
3
3
3
3
3
3
3
3
3
3
3
3
3
3
3
3
3
</DataArray>
<DataArray NumberOfComponents='1' type='Float32' Name='Temperature' format='ascii'>
0.000000
0.000000
0.000000
0.000000
0.000000
0.000000
0.000000
0.000000
0.000000
0.000000
0.000000
0.000000
0.000000
0.000000
0.000000
0.000000
0.000000
0.000000
0.000000
0.000000
0.000000
0.000000
0.000000
0.000000
0.000000
0.000000
0.000000
0.000000
0.000000
0.000000
0.000000
0.000000
0.000000
0.000000
0.000000
0.000000
0.000000
0.000000
0.000000
0.000000
0.000000
0.000000
0.000000
0.000000
0.000000
0.000000
0.000000
0.000000
-0.262536
-0.473809
-0.690414
-0.903942
-1.114596
-1.321644
-1.524479
-1.722525
-1.915250
-2.102170
-2.282850
-2.456909
-2.624020
-2.783911
-2.936367
-3.081231
-3.218398
-3.347815
-3.469483
-3.583447
-3.689799
-3.788668
-3.880222
-3.964657
-4.042197
-4.113087
-4.177587
-4.235968
-4.288508
-4.335485
-4.377171
-4.413831
-4.445716
-4.473061
-4.496079
-4.514958
-4.529861
-4.540918
-4.548184
-4.552708
-3.000000
-3.000000
-3.000000
-3.000000
0.000000
0.000000
0.000000
0.000000
-0.258229
-0.465972
-0.678848
-0.888538
-1.095195
-1.298052
-1.496472
-1.689849
-1.877625
-2.059294
-2.234401
-2.402550
-2.563407
-2.716695
-2.862203
-2.999777
-3.129329
-3.250826
-3.364295
-3.469816
-3.567519
-3.657579
-3.740217
-3.815685
-3.884269
-3.946280
-4.002048
-4.051916
-4.096233
-4.135352
-4.169618
-4.199366
-4.224915
-4.246564
-4.264582
-4.279211
-4.290658
-4.299089
-4.304600
-4.308017
-3.000000
-3.000000
-3.000000
-3.000000
0.000000
0.000000
0.000000
0.000000
-0.256007
-0.461910
-0.672814
-0.880428
-1.084868
-1.285335
-1.481159
-1.671706
-1.856389
-2.034676
-2.206089
-2.370214
-2.526697
-2.675251
-2.815655
-2.947756
-3.071466
-3.186764
-3.293693
-3.392356
-3.482913
-3.565580
-3.640618
-3.708334
-3.769073
-3.823208
-3.871140
-3.913285
-3.950070
-3.981923
-4.009271
-4.032527
-4.052084
-4.068313
-4.081551
-4.092098
-4.100214
-4.106108
-4.109920
-4.112262
-3.000000
-3.000000
-3.000000
-3.000000
0.000000
0.000000
0.000000
0.000000
-0.255003
-0.460059
-0.670027
-0.876621
-1.079921
-1.279099
-1.473457
-1.662328
-1.845097
-2.021198
-2.190125
-2.351432
-2.504739
-2.649731
-2.786168
-2.913876
-3.032755
-3.142778
-3.243987
-3.336494
-3.420477
-3.496179
-3.563900
-3.623994
-3.676864
-3.722953
-3.762739
-3.796724
-3.825429
-3.849383
-3.869113
-3.885137
-3.897953
-3.908028
-3.915796
-3.921643
-3.925900
-3.928844
-3.930673
-3.931759
-3.000000
-3.000000
-3.000000
-3.000000
0.000000
0.000000
0.000000
0.000000
-0.254727
-0.459540
-0.669226
-0.875487
-1.078385
-1.277073
-1.470827
-1.658958
-1.840818
-2.015813
-2.183399
-2.343094
-2.494475
-2.637189
-2.770947
-2.895537
-3.010815
-3.116716
-3.213251
-3.300506
-3.378645
-3.447905
-3.508599
-3.561109
-3.605880
-3.643419
-3.674287
-3.699088
-3.718461
-3.733070
-3.743589
-3.750695
-3.755047
-3.757277
-3.757974
-3.757672
-3.756838
-3.755856
-3.755036
-3.754435
-3.000000
-3.000000
-3.000000
-3.000000
0.000000
0.000000
0.000000
0.000000
-0.254706
-0.459498
-0.669157
-0.875381
-1.078228
-1.276844
-1.470498
-1.658489
-1.840158
-2.014891
-2.182123
-2.341343
-2.492095
-2.633984
-2.766672
-2.889886
-3.003419
-3.107131
-3.200950
-3.284879
-3.358992
-3.423446
-3.478475
-3.524399
-3.561624
-3.590646
-3.612048
-3.626500
-3.634756
-3.637640
-3.636042
-3.630893
-3.623151
-3.613774
-3.603689
-3.593769
-3.584796
-3.577437
-3.572258
-3.568856
-3.000000
-3.000000
-3.000000
-3.000000
0.000000
0.000000
0.000000
0.000000
-0.254705
-0.459498
-0.669157
-0.875381
-1.078228
-1.276843
-1.470496
-1.658486
-1.840152
-2.014880
-2.182104
-2.341311
-2.492042
-2.633895
-2.766526
-2.889649
-3.003039
-3.106528
-3.200007
-3.283422
-3.356774
-3.420115
-3.473545
-3.517207
-3.551292
-3.576032
-3.591708
-3.598660
-3.597304
-3.588162
-3.571896
-3.549361
-3.521658
-3.490187
-3.456678
-3.423197
-3.392070
-3.365741
-3.346687
-3.333828
-3.000000
-3.000000
-3.000000
-3.000000
0.000000
0.000000
0.000000
0.000000
-0.254705
-0.459498
-0.669157
-0.875381
-1.078228
-1.276843
-1.470496
-1.658486
-1.840152
-2.014880
-2.182104
-2.341311
-2.492042
-2.633895
-2.766526
-2.889649
-3.003039
-3.106528
-3.200007
-3.283422
-3.356774
-3.420115
-3.473544
-3.517207
-3.551291
-3.576029
-3.591700
-3.598641
-3.597258
-3.588054
-3.571648
-3.548807
-3.520451
-3.487627
-3.451408
-3.412677
-3.371683
-3.328034
-3.276460
-3.215327
-3.000000
-3.000000
-3.000000
-3.000000
0.000000
0.000000
0.000000
0.000000
-0.254705
-0.459498
-0.669157
-0.875381
-1.078228
-1.276843
-1.470496
-1.658486
-1.840152
-2.014880
-2.182104
-2.341311
-2.492042
-2.633895
-2.766526
-2.889649
-3.003039
-3.106528
-3.200007
-3.283422
-3.356774
-3.420115
-3.473544
-3.517207
-3.551291
-3.576029
-3.591700
-3.598641
-3.597258
-3.588054
-3.571648
-3.548807
-3.520451
-3.487627
-3.451408
-3.412677
-3.371683
-3.328034
-3.276460
-3.215327
-3.000000
-3.000000
-3.000000
-3.000000
0.000000
0.000000
0.000000
0.000000
-0.254705
-0.459498
-0.669157
-0.875381
-1.078228
-1.276843
-1.470496
-1.658486
-1.840152
-2.014880
-2.182104
-2.341311
-2.492042
-2.633895
-2.766526
-2.889649
-3.003039
-3.106528
-3.200007
-3.283422
-3.356774
-3.420115
-3.473544
-3.517207
-3.551291
-3.576029
-3.591700
-3.598641
-3.597258
-3.588054
-3.571648
-3.548807
-3.520451
-3.487627
-3.451408
-3.412677
-3.371683
-3.328034
-3.276460
-3.215327
-3.000000
-3.000000
-3.000000
-3.000000
0.000000
0.000000
0.000000
0.000000
-0.257110
-0.463850
-0.675525
-0.883766
-1.088640
-1.289292
-1.484990
-1.675030
-1.858748
-2.035522
-2.204780
-2.365998
-2.518706
-2.662488
-2.796984
-2.921894
-3.036972
-3.142033
-3.236947
-3.321640
-3.396091
-3.460332
-3.514442
-3.558546
-3.592814
-3.617462
-3.632757
-3.639024
-3.636665
-3.626185
-3.608213
-3.583540
-3.553118
-3.518040
-3.479424
-3.438196
-3.394604
-3.348223
-3.293453
-3.228552
0.000000
0.000000
0.000000
0.000000
-0.261052
-0.470999
-0.686020
-0.897644
-1.105963
-1.310130
-1.509420
-1.703131
-1.890596
-2.071190
-2.244326
-2.409467
-2.566119
-2.713841
-2.852243
-2.980985
-3.099784
-3.208408
-3.306679
-3.394473
-3.471716
-3.538385
-3.594505
-3.640149
-3.675436
-3.700532
-3.715663
-3.721121
-3.717286
-3.704656
-3.683876
-3.655774
-3.621372
-3.581851
-3.538431
-3.492121
-3.443178
-3.391109
-3.329612
-3.256724
0.000000
0.000000
0.000000
0.000000
-0.264293
-0.476903
-0.694743
-0.909279
-1.120643
-1.328011
-1.530678
-1.727960
-1.919202
-2.103781
-2.281112
-2.450646
-2.611873
-2.764327
-2.907583
-3.041259
-3.165019
-3.278573
-3.381676
-3.474127
-3.555772
-3.626503
-3.686256
-3.735011
-3.772795
-3.799690
-3.815837
-3.821457
-3.816875
-3.802557
-3.779145
-3.747500
-3.708718
-3.664087
-3.614958
-3.562449
-3.506832
-3.447525
-3.377312
-3.293960
0.000000
0.000000
0.000000
0.000000
-0.266362
-0.480703
-0.700430
-0.916996
-1.130581
-1.340405
-1.545804
-1.746131
-1.940764
-2.129110
-2.310604
-2.484711
-2.650928
-2.808780
-2.957824
-3.097645
-3.227860
-3.348113
-3.458080
-3.557462
-3.645993
-3.723433
-3.789576
-3.844248
-3.887314
-3.918687
-3.938346
-3.946358
-3.942915
-3.928380
-3.903339
-3.868652
-3.825473
-3.775215
-3.719386
-3.659248
-3.595089
-3.526213
-3.444130
-3.346272
0.000000
0.000000
0.000000
0.000000
-0.267128
-0.482137
-0.702637
-0.920100
-1.134755
-1.345869
-1.552829
-1.755044
-1.951952
-2.143022
-2.327753
-2.505674
-2.676342
-2.839338
-2.994264
-3.140737
-3.278387
-3.406850
-3.525760
-3.634751
-3.733444
-3.821453
-3.898376
-3.963807
-4.017335
-4.058564
-4.087141
-4.102789
-4.105369
-4.094942
-4.071858
-4.036825
-3.990956
-3.935733
-3.872813
-3.803611
-3.728404
-3.646303
-3.546871
-3.427115
0.000000
0.000000
0.000000
0.000000
-0.267205
-0.482287
-0.702885
-0.920479
-1.135314
-1.346678
-1.553987
-1.756682
-1.954246
-2.146205
-2.332128
-2.511632
-2.684378
-2.850071
-3.008457
-3.159314
-3.302447
-3.437673
-3.564810
-3.683655
-3.793961
-3.895420
-3.987630
-4.070079
-4.142127
-4.203005
-4.251832
-4.287661
-4.309557
-4.316715
-4.308602
-4.285114
-4.246694
-4.194348
-4.129445
-4.053196
-3.965464
-3.864736
-3.736838
-3.578255
0.000000
0.000000
0.000000
0.000000
-0.267205
-0.482288
-0.702886
-0.920480
-1.135317
-1.346684
-1.553996
-1.756698
-1.954275
-2.146255
-2.332215
-2.511779
-2.684623
-2.850476
-3.009116
-3.160376
-3.304136
-3.440326
-3.568922
-3.689942
-3.803446
-3.909527
-4.008313
-4.099957
-4.184634
-4.262538
-4.333868
-4.398817
-4.457552
-4.510170
-4.556619
-4.596554
-4.629072
-4.652256
-4.662444
-4.653159
-4.613297
-4.528081
-4.360304
-4.101595
0.000000
0.000000
0.000000
0.000000
-0.267205
-0.482288
-0.702886
-0.920480
-1.135317
-1.346684
-1.553996
-1.756698
-1.954275
-2.146255
-2.332215
-2.511779
-2.684623
-2.850476
-3.009116
-3.160376
-3.304136
-3.440326
-3.568922
-3.689943
-3.803446
-3.909528
-4.008314
-4.099960
-4.184644
-4.262561
-4.333924
-4.398954
-4.457876
-4.510917
-4.558302
-4.600247
-4.636957
-4.668625
-4.695424
-4.717510
-4.735015
-4.748045
-4.756629
-4.761984
0.000000
0.000000
0.000000
0.000000
-0.267205
-0.482288
-0.702886
-0.920480
-1.135317
-1.346684
-1.553996
-1.756698
-1.954275
-2.146255
-2.332215
-2.511779
-2.684623
-2.850476
-3.009116
-3.160376
-3.304136
-3.440326
-3.568922
-3.689943
-3.803446
-3.909528
-4.008314
-4.099960
-4.184644
-4.262561
-4.333924
-4.398954
-4.457876
-4.510917
-4.558302
-4.600247
-4.636957
-4.668625
-4.695424
-4.717510
-4.735015
-4.748045
-4.756629
-4.761984
0.000000
0.000000
0.000000
0.000000
-0.267205
-0.482288
-0.702886
-0.920480
-1.135317
-1.346684
-1.553996
-1.756698
-1.954275
-2.146255
-2.332215
-2.511779
-2.684623
-2.850476
-3.009116
-3.160376
-3.304136
-3.440326
-3.568922
-3.689943
-3.803446
-3.909528
-4.008314
-4.099960
-4.184644
-4.262561
-4.333924
-4.398954
-4.457876
-4.510917
-4.558302
-4.600247
-4.636957
-4.668625
-4.695424
-4.717510
-4.735015
-4.748045
-4.756629
-4.761984
0.000000
0.000000
0.000000
0.000000
-0.267205
-0.482288
-0.702886
-0.920480
-1.135317
-1.346684
-1.553996
-1.756698
-1.954275
-2.146255
-2.332215
-2.511779
-2.684623
-2.850476
-3.009116
-3.160376
-3.304136
-3.440326
-3.568922
-3.689943
-3.803446
-3.909528
-4.008314
-4.099960
-4.184644
-4.262561
-4.333924
-4.398954
-4.457876
-4.510917
-4.558302
-4.600247
-4.636957
-4.668625
-4.695424
-4.717510
-4.735015
-4.748045
-4.756629
-4.761984
0.000000
0.000000
0.000000
0.000000
-0.267205
-0.482288
-0.702886
-0.920480
-1.135317
-1.346684
-1.553996
-1.756698
-1.954275
-2.146255
-2.332215
-2.511779
-2.684623
-2.850476
-3.009116
-3.160376
-3.304136
-3.440326
-3.568922
-3.689943
-3.803446
-3.909528
-4.008314
-4.099960
-4.184644
-4.262561
-4.333924
-4.398954
-4.457876
-4.510917
-4.558302
-4.600247
-4.636957
-4.668625
-4.695424
-4.717510
-4.735015
-4.748045
-4.756629
-4.761984
0.000000
0.000000
0.000000
0.000000
-0.267205
-0.482288
-0.702886
-0.920480
-1.135317
-1.346684
-1.553996
-1.756698
-1.954275
-2.146255
-2.332215
-2.511779
-2.684623
-2.850476
-3.009116
-3.160376
-3.304136
-3.440326
-3.568922
-3.689943
-3.803446
-3.909528
-4.008314
-4.099960
-4.184644
-4.262561
-4.333924
-4.398954
-4.457876
-4.510917
-4.558302
-4.600247
-4.636957
-4.668625
-4.695424
-4.717510
-4.735015
-4.748045
-4.756629
-4.761984
0.000000
0.000000
0.000000
0.000000
-0.267205
-0.482288
-0.702886
-0.920480
-1.135317
-1.346684
-1.553996
-1.756698
-1.954275
-2.146255
-2.332215
-2.511779
-2.684623
-2.850476
-3.009116
-3.160376
-3.304136
-3.440326
-3.568922
-3.689943
-3.803446
-3.909528
-4.008314
-4.099960
-4.184644
-4.262561
-4.333924
-4.398954
-4.457876
-4.510917
-4.558302
-4.600247
-4.636957
-4.668625
-4.695424
-4.717510
-4.735015
-4.748045
-4.756629
-4.761984
0.000000
0.000000
0.000000
0.000000
-0.267205
-0.482288
-0.702886
-0.920480
-1.135317
-1.346684
-1.553996
-1.756698
-1.954275
-2.146255
-2.332215
-2.511779
-2.684623
-2.850476
-3.009116
-3.160376
-3.304136
-3.440326
-3.568922
-3.689943
-3.803446
-3.909528
-4.008314
-4.099960
-4.184644
-4.262561
-4.333924
-4.398954
-4.457876
-4.510917
-4.558302
-4.600247
-4.636957
-4.668625
-4.695424
-4.717510
-4.735015
-4.748045
-4.756629
-4.761984
0.000000
0.000000
0.000000
0.000000
-0.267205
-0.482288
-0.702886
-0.920480
-1.135317
-1.346684
-1.553996
-1.756698
-1.954275
-2.146255
-2.332215
-2.511779
-2.684623
-2.850476
-3.009116
-3.160376
-3.304136
-3.440326
-3.568922
-3.689943
-3.803446
-3.909528
-4.008314
-4.099960
-4.184644
-4.262561
-4.333924
-4.398954
-4.457876
-4.510917
-4.558302
-4.600247
-4.636957
-4.668625
-4.695424
-4.717510
-4.735015
-4.748045
-4.756629
-4.761984
0.000000
0.000000
0.000000
0.000000
-0.267205
-0.482288
-0.702886
-0.920480
-1.135317
-1.346684
-1.553996
-1.756698
-1.954275
-2.146255
-2.332215
-2.511779
-2.684623
-2.850476
-3.009116
-3.160376
-3.304136
-3.440326
-3.568922
-3.689943
-3.803446
-3.909528
-4.008314
-4.099960
-4.184644
-4.262561
-4.333924
-4.398954
-4.457876
-4.510917
-4.558302
-4.600247
-4.636957
-4.668625
-4.695424
-4.717510
-4.735015
-4.748045
-4.756629
-4.761984
0.000000
0.000000
0.000000
0.000000
-0.267205
-0.482288
-0.702886
-0.920480
-1.135317
-1.346684
-1.553996
-1.756698
-1.954275
-2.146255
-2.332215
-2.511779
-2.684623
-2.850476
-3.009116
-3.160376
-3.304136
-3.440326
-3.568922
-3.689943
-3.803446
-3.909528
-4.008314
-4.099960
-4.184644
-4.262561
-4.333924
-4.398954
-4.457876
-4.510917
-4.558302
-4.600247
-4.636957
-4.668625
-4.695424
-4.717510
-4.735015
-4.748045
-4.756629
-4.761984
0.000000
0.000000
0.000000
0.000000
-0.267205
-0.482288
-0.702886
-0.920480
-1.135317
-1.346684
-1.553996
-1.756698
-1.954275
-2.146255
-2.332215
-2.511779
-2.684623
-2.850476
-3.009116
-3.160376
-3.304136
-3.440326
-3.568922
-3.689943
-3.803446
-3.909528
-4.008314
-4.099960
-4.184644
-4.262561
-4.333924
-4.398954
-4.457876
-4.510917
-4.558302
-4.600247
-4.636957
-4.668625
-4.695424
-4.717510
-4.735015
-4.748045
-4.756629
-4.761984
0.000000
0.000000
0.000000
0.000000
-0.267205
-0.482288
-0.702886
-0.920480
-1.135317
-1.346684
-1.553996
-1.756698
-1.954275
-2.146255
-2.332215
-2.511779
-2.684623
-2.850476
-3.009116
-3.160376
-3.304136
-3.440326
-3.568922
-3.689943
-3.803446
-3.909528
-4.008314
-4.099960
-4.184644
-4.262561
-4.333924
-4.398954
-4.457876
-4.510917
-4.558302
-4.600247
-4.636957
-4.668625
-4.695424
-4.717510
-4.735015
-4.748045
-4.756629
-4.761984
0.000000
0.000000
0.000000
0.000000
-0.267205
-0.482288
-0.702886
-0.920480
-1.135317
-1.346684
-1.553996
-1.756698
-1.954275
-2.146255
-2.332215
-2.511779
-2.684623
-2.850476
-3.009116
-3.160376
-3.304136
-3.440326
-3.568922
-3.689943
-3.803446
-3.909528
-4.008314
-4.099960
-4.184644
-4.262561
-4.333924
-4.398954
-4.457876
-4.510917
-4.558302
-4.600247
-4.636957
-4.668625
-4.695424
-4.717510
-4.735015
-4.748045
-4.756629
-4.761984
0.000000
0.000000
0.000000
0.000000
-0.267205
-0.482288
-0.702886
-0.920480
-1.135317
-1.346684
-1.553996
-1.756698
-1.954275
-2.146255
-2.332215
-2.511779
-2.684623
-2.850476
-3.009116
-3.160376
-3.304136
-3.440326
-3.568922
-3.689943
-3.803446
-3.909528
-4.008314
-4.099960
-4.184644
-4.262561
-4.333924
-4.398954
-4.457876
-4.510917
-4.558302
-4.600247
-4.636957
-4.668625
-4.695424
-4.717510
-4.735015
-4.748045
-4.756629
-4.761984
0.000000
0.000000
0.000000
0.000000
-0.267205
-0.482288
-0.702886
-0.920480
-1.135317
-1.346684
-1.553996
-1.756698
-1.954275
-2.146255
-2.332215
-2.511779
-2.684623
-2.850476
-3.009116
-3.160376
-3.304136
-3.440326
-3.568922
-3.689943
-3.803446
-3.909528
-4.008314
-4.099960
-4.184644
-4.262561
-4.333924
-4.398954
-4.457876
-4.510917
-4.558302
-4.600247
-4.636957
-4.668625
-4.695424
-4.717510
-4.735015
-4.748045
-4.756629
-4.761984
0.000000
0.000000
0.000000
0.000000
-0.267205
-0.482288
-0.702886
-0.920480
-1.135317
-1.346684
-1.553996
-1.756698
-1.954275
-2.146255
-2.332215
-2.511779
-2.684623
-2.850476
-3.009116
-3.160376
-3.304136
-3.440326
-3.568922
-3.689943
-3.803446
-3.909528
-4.008314
-4.099960
-4.184644
-4.262561
-4.333924
-4.398954
-4.457876
-4.510917
-4.558302
-4.600247
-4.636957
-4.668625
-4.695424
-4.717510
-4.735015
-4.748045
-4.756629
-4.761984
0.000000
0.000000
0.000000
0.000000
-0.267205
-0.482288
-0.702886
-0.920480
-1.135317
-1.346684
-1.553996
-1.756698
-1.954275
-2.146255
-2.332215
-2.511779
-2.684623
-2.850476
-3.009116
-3.160376
-3.304136
-3.440326
-3.568922
-3.689943
-3.803446
-3.909528
-4.008314
-4.099960
-4.184644
-4.262561
-4.333924
-4.398954
-4.457876
-4.510917
-4.558302
-4.600247
-4.636957
-4.668625
-4.695424
-4.717510
-4.735015