<?xml version='1.0' encoding='UTF-8'?>
<VTKFile xmlns='VTK' byte_order='LittleEndian' version='0.1' type='UnstructuredGrid'>
<UnstructuredGrid>
<Piece NumberOfCells='1888' NumberOfPoints='1888'>
<Points>
<DataArray NumberOfComponents='3' type='Float32' Name='Position' format='ascii'>
-0.040000 -0.030000 0.000000
-0.040000 -0.020000 0.000000
-0.040000 -0.010000 0.000000
-0.040000 0.000000 0.000000
-0.040000 0.010000 0.000000
-0.040000 0.020000 0.000000
-0.040000 0.030000 0.000000
-0.040000 0.040000 0.000000
-0.040000 0.050000 0.000000
-0.040000 0.060000 0.000000
-0.040000 0.070000 0.000000
-0.040000 0.080000 0.000000
-0.040000 0.090000 0.000000
-0.040000 0.100000 0.000000
-0.040000 0.110000 0.000000
-0.040000 0.120000 0.000000
-0.040000 0.130000 0.000000
-0.040000 0.140000 0.000000
-0.040000 0.150000 0.000000
-0.040000 0.160000 0.000000
-0.040000 0.170000 0.000000
-0.040000 0.180000 0.000000
-0.040000 0.190000 0.000000
-0.040000 0.200000 0.000000
-0.040000 0.210000 0.000000
-0.040000 0.220000 0.000000
-0.040000 0.230000 0.000000
-0.040000 0.240000 0.000000
-0.040000 0.250000 0.000000
-0.040000 0.260000 0.000000
-0.040000 0.270000 0.000000
-0.040000 0.280000 0.000000
-0.040000 0.290000 0.000000
-0.040000 0.300000 0.000000
-0.040000 0.310000 0.000000
-0.040000 0.320000 0.000000
-0.040000 0.330000 0.000000
-0.040000 0.340000 0.000000
-0.040000 0.350000 0.000000
-0.040000 0.360000 0.000000
-0.040000 0.370000 0.000000
-0.040000 0.380000 0.000000
-0.040000 0.390000 0.000000
-0.040000 0.400000 0.000000
0.010000 -0.030000 0.000000
0.010000 -0.020000 0.000000
0.010000 -0.010000 0.000000
0.010000 0.000000 0.000000
0.010000 0.010000 0.000000
0.010000 0.020000 0.000000
0.010000 0.030000 0.000000
0.010000 0.040000 0.000000
0.010000 0.050000 0.000000
0.010000 0.060000 0.000000
0.010000 0.070000 0.000000
0.010000 0.080000 0.000000
0.010000 0.090000 0.000000
0.010000 0.100000 0.000000
0.010000 0.110000 0.000000
0.010000 0.120000 0.000000
0.010000 0.130000 0.000000
0.010000 0.140000 0.000000
0.010000 0.150000 0.000000
0.010000 0.160000 0.000000
0.010000 0.170000 0.000000
0.010000 0.180000 0.000000
0.010000 0.190000 0.000000
0.010000 0.200000 0.000000
0.010000 0.210000 0.000000
0.010000 0.220000 0.000000
0.010000 0.230000 0.000000
0.010000 0.240000 0.000000
0.010000 0.250000 0.000000
0.010000 0.260000 0.000000
0.010000 0.270000 0.000000
0.010000 0.280000 0.000000
0.010000 0.290000 0.000000
0.010000 0.300000 0.000000
0.010000 0.310000 0.000000
0.010000 0.320000 0.000000
0.010000 0.330000 0.000000
0.010000 0.340000 0.000000
0.010000 0.350000 0.000000
0.010000 0.360000 0.000000
0.010000 0.370000 0.000000
0.010000 0.380000 0.000000
0.010000 0.390000 0.000000
0.010000 0.400000 0.000000
0.510000 0.410000 0.000000
0.510000 0.420000 0.000000
0.510000 0.430000 0.000000
0.510000 0.440000 0.000000
0.060000 -0.030000 0.000000
0.060000 -0.020000 0.000000
0.060000 -0.010000 0.000000
0.060000 0.000000 0.000000
0.060000 0.010000 0.000000
0.060000 0.020000 0.000000
0.060000 0.030000 0.000000
0.060000 0.040000 0.000000
0.060000 0.050000 0.000000
0.060000 0.060000 0.000000
0.060000 0.070000 0.000000
0.060000 0.080000 0.000000
0.060000 0.090000 0.000000
0.060000 0.100000 0.000000
0.060000 0.110000 0.000000
0.060000 0.120000 0.000000
0.060000 0.130000 0.000000
0.060000 0.140000 0.000000
0.060000 0.150000 0.000000
0.060000 0.160000 0.000000
0.060000 0.170000 0.000000
0.060000 0.180000 0.000000
0.060000 0.190000 0.000000
0.060000 0.200000 0.000000
0.060000 0.210000 0.000000
0.060000 0.220000 0.000000
0.060000 0.230000 0.000000
0.060000 0.240000 0.000000
0.060000 0.250000 0.000000
0.060000 0.260000 0.000000
0.060000 0.270000 0.000000
0.060000 0.280000 0.000000
0.060000 0.290000 0.000000
0.060000 0.300000 0.000000
0.060000 0.310000 0.000000
0.060000 0.320000 0.000000
0.060000 0.330000 0.000000
0.060000 0.340000 0.000000
0.060000 0.350000 0.000000
0.060000 0.360000 0.000000
0.060000 0.370000 0.000000
0.060000 0.380000 0.000000
0.060000 0.390000 0.000000
0.060000 0.400000 0.000000
0.560000 0.410000 0.000000
0.560000 0.420000 0.000000
0.560000 0.430000 0.000000
0.560000 0.440000 0.000000
0.110000 -0.030000 0.000000
0.110000 -0.020000 0.000000
0.110000 -0.010000 0.000000
0.110000 0.000000 0.000000
0.110000 0.010000 0.000000
0.110000 0.020000 0.000000
0.110000 0.030000 0.000000
0.110000 0.040000 0.000000
0.110000 0.050000 0.000000
0.110000 0.060000 0.000000
0.110000 0.070000 0.000000
0.110000 0.080000 0.000000
0.110000 0.090000 0.000000
0.110000 0.100000 0.000000
0.110000 0.110000 0.000000
0.110000 0.120000 0.000000
0.110000 0.130000 0.000000
0.110000 0.140000 0.000000
0.110000 0.150000 0.000000
0.110000 0.160000 0.000000
0.110000 0.170000 0.000000
0.110000 0.180000 0.000000
0.110000 0.190000 0.000000
0.110000 0.200000 0.000000
0.110000 0.210000 0.000000
0.110000 0.220000 0.000000
0.110000 0.230000 0.000000
0.110000 0.240000 0.000000
0.110000 0.250000 0.000000
0.110000 0.260000 0.000000
0.110000 0.270000 0.000000
0.110000 0.280000 0.000000
0.110000 0.290000 0.000000
0.110000 0.300000 0.000000
0.110000 0.310000 0.000000
0.110000 0.320000 0.000000
0.110000 0.330000 0.000000
0.110000 0.340000 0.000000
0.110000 0.350000 0.000000
0.110000 0.360000 0.000000
0.110000 0.370000 0.000000
0.110000 0.380000 0.000000
0.110000 0.390000 0.000000
0.110000 0.400000 0.000000
0.610000 0.410000 0.000000
0.610000 0.420000 0.000000
0.610000 0.430000 0.000000
0.610000 0.440000 0.000000
0.160000 -0.030000 0.000000
0.160000 -0.020000 0.000000
0.160000 -0.010000 0.000000
0.160000 0.000000 0.000000
0.160000 0.010000 0.000000
0.160000 0.020000 0.000000
0.160000 0.030000 0.000000
0.160000 0.040000 0.000000
0.160000 0.050000 0.000000
0.160000 0.060000 0.000000
0.160000 0.070000 0.000000
0.160000 0.080000 0.000000
0.160000 0.090000 0.000000
0.160000 0.100000 0.000000
0.160000 0.110000 0.000000
0.160000 0.120000 0.000000
0.160000 0.130000 0.000000
0.160000 0.140000 0.000000
0.160000 0.150000 0.000000
0.160000 0.160000 0.000000
0.160000 0.170000 0.000000
0.160000 0.180000 0.000000
0.160000 0.190000 0.000000
0.160000 0.200000 0.000000
0.160000 0.210000 0.000000
0.160000 0.220000 0.000000
0.160000 0.230000 0.000000
0.160000 0.240000 0.000000
0.160000 0.250000 0.000000
0.160000 0.260000 0.000000
0.160000 0.270000 0.000000
0.160000 0.280000 0.000000
0.160000 0.290000 0.000000
0.160000 0.300000 0.000000
0.160000 0.310000 0.000000
0.160000 0.320000 0.000000
0.160000 0.330000 0.000000
0.160000 0.340000 0.000000
0.160000 0.350000 0.000000
0.160000 0.360000 0.000000
0.160000 0.370000 0.000000
0.160000 0.380000 0.000000
0.160000 0.390000 0.000000
0.160000 0.400000 0.000000
0.660000 0.410000 0.000000
0.660000 0.420000 0.000000
0.660000 0.430000 0.000000
0.660000 0.440000 0.000000
0.210000 -0.030000 0.000000
0.210000 -0.020000 0.000000
0.210000 -0.010000 0.000000
0.210000 0.000000 0.000000
0.210000 0.010000 0.000000
0.210000 0.020000 0.000000
0.210000 0.030000 0.000000
0.210000 0.040000 0.000000
0.210000 0.050000 0.000000
0.210000 0.060000 0.000000
0.210000 0.070000 0.000000
0.210000 0.080000 0.000000
0.210000 0.090000 0.000000
0.210000 0.100000 0.000000
0.210000 0.110000 0.000000
0.210000 0.120000 0.000000
0.210000 0.130000 0.000000
0.210000 0.140000 0.000000
0.210000 0.150000 0.000000
0.210000 0.160000 0.000000
0.210000 0.170000 0.000000
0.210000 0.180000 0.000000
0.210000 0.190000 0.000000
0.210000 0.200000 0.000000
0.210000 0.210000 0.000000
0.210000 0.220000 0.000000
0.210000 0.230000 0.000000
0.210000 0.240000 0.000000
0.210000 0.250000 0.000000
0.210000 0.260000 0.000000
0.210000 0.270000 0.000000
0.210000 0.280000 0.000000
0.210000 0.290000 0.000000
0.210000 0.300000 0.000000
0.210000 0.310000 0.000000
0.210000 0.320000 0.000000
0.210000 0.330000 0.000000
0.210000 0.340000 0.000000
0.210000 0.350000 0.000000
0.210000 0.360000 0.000000
0.210000 0.370000 0.000000
0.210000 0.380000 0.000000
0.210000 0.390000 0.000000
0.210000 0.400000 0.000000
0.710000 0.410000 0.000000
0.710000 0.420000 0.000000
0.710000 0.430000 0.000000
0.710000 0.440000 0.000000
0.260000 -0.030000 0.000000
0.260000 -0.020000 0.000000
0.260000 -0.010000 0.000000
0.260000 0.000000 0.000000
0.260000 0.010000 0.000000
0.260000 0.020000 0.000000
0.260000 0.030000 0.000000
0.260000 0.040000 0.000000
0.260000 0.050000 0.000000
0.260000 0.060000 0.000000
0.260000 0.070000 0.000000
0.260000 0.080000 0.000000
0.260000 0.090000 0.000000
0.260000 0.100000 0.000000
0.260000 0.110000 0.000000
0.260000 0.120000 0.000000
0.260000 0.130000 0.000000
0.260000 0.140000 0.000000
0.260000 0.150000 0.000000
0.260000 0.160000 0.000000
0.260000 0.170000 0.000000
0.260000 0.180000 0.000000
0.260000 0.190000 0.000000
0.260000 0.200000 0.000000
0.260000 0.210000 0.000000
0.260000 0.220000 0.000000
0.260000 0.230000 0.000000
0.260000 0.240000 0.000000
0.260000 0.250000 0.000000
0.260000 0.260000 0.000000
0.260000 0.270000 0.000000
0.260000 0.280000 0.000000
0.260000 0.290000 0.000000
0.260000 0.300000 0.000000
0.260000 0.310000 0.000000
0.260000 0.320000 0.000000
0.260000 0.330000 0.000000
0.260000 0.340000 0.000000
0.260000 0.350000 0.000000
0.260000 0.360000 0.000000
0.260000 0.370000 0.000000
0.260000 0.380000 0.000000
0.260000 0.390000 0.000000
0.260000 0.400000 0.000000
0.760000 0.410000 0.000000
0.760000 0.420000 0.000000
0.760000 0.430000 0.000000
0.760000 0.440000 0.000000
0.310000 -0.030000 0.000000
0.310000 -0.020000 0.000000
0.310000 -0.010000 0.000000
0.310000 0.000000 0.000000
0.310000 0.010000 0.000000
0.310000 0.020000 0.000000
0.310000 0.030000 0.000000
0.310000 0.040000 0.000000
0.310000 0.050000 0.000000
0.310000 0.060000 0.000000
0.310000 0.070000 0.000000
0.310000 0.080000 0.000000
0.310000 0.090000 0.000000
0.310000 0.100000 0.000000
0.310000 0.110000 0.000000
0.310000 0.120000 0.000000
0.310000 0.130000 0.000000
0.310000 0.140000 0.000000
0.310000 0.150000 0.000000
0.310000 0.160000 0.000000
0.310000 0.170000 0.000000
0.310000 0.180000 0.000000
0.310000 0.190000 0.000000
0.310000 0.200000 0.000000
0.310000 0.210000 0.000000
[...]
<PointData>
<DataArray NumberOfComponents='1' type='Int32' Name='ParticleType' format='ascii'>
4
4
4
4
4
4
4
4
4
4
4
4
4
4
4
4
4
4
4
4
4
4
4
4
4
4
4
4
4
4
4
4
4
4
4
4
4
4
4
4
4
4
4
4
4
4
3
3
2
2
2
2
2
2
2
2
2
2
2
2
2
2
2
2
2
2
2
2
2
2
2
2
2
2
2
2
2
2
2
2
2
2
2
2
2
2
2
2
5
5
5
5
4
4
3
3
2
2
2
2
2
2
2
2
2
2
2
2
2
2
2
2
2
2
2
2
2
2
2
2
2
2
2
2
2
2
2
2
2
2
2
2
2
2
2
2
5
5
5
5
4
4
3
3
2
2
2
2
2
2
2
2
2
2
2
2
2
2
2
2
2
2
2
2
2
2
2
2
2
2
2
2
2
2
2
2
2
2
2
2
2
2
2
2
5
5
5
5
4
4
3
3
2
2
2
2
2
2
2
2
2
2
2
2
2
2
2
2
2
2
2
2
2
2
2
2
2
2
2
2
2
2
2
2
2
2
2
2
2
2
2
2
5
5
5
5
4
4
3
3
2
2
2
2
2
2
2
2
2
2
2
2
2
2
2
2
2
2
2
2
2
2
2
2
2
2
2
2
2
2
2
2
2
2
2
2
2
2
2
2
5
5
5
5
4
4
3
3
2
2
2
2
2
2
2
2
2
2
2
2
2
2
2
2
2
2
2
2
2
2
2
2
2
2
2
2
2
2
2
2
2
2
2
2
2
2
2
2
5
5
5
5
4
4
3
3
2
2
2
2
2
2
2
2
2
2
2
2
2
2
2
2
2
2
2
2
2
2
2
2
2
2
2
2
2
2
2
2
2
2
2
2
2
2
2
2
5
5
5
5
4
4
3
3
2
2
2
2
2
2
2
2
2
2
2
2
2
2
2
2
2
2
2
2
2
2
2
2
2
2
2
2
2
2
2
2
2
2
2
2
2
2
2
2
5
5
5
5
4
4
3
3
2
2
2
2
2
2
2
2
2
2
2
2
2
2
2
2
2
2
2
2
2
2
2
2
2
2
2
2
2
2
2
2
2
2
2
2
2
2
2
2
5
5
5
5
4
4
3
3
2
2
2
2
2
2
2
2
2
2
2
2
2
2
2
2
2
2
2
2
2
2
2
2
2
2
2
2
2
2
2
2
2
2
2
2
2
2
2
2
5
5
5
5
4
4
3
3
2
2
2
2
2
2
2
2
2
2
2
2
2
2
2
2
2
2
2
2
2
2
2
2
2
2
2
2
2
2
2
2
2
2
2
2
2
2
2
2
4
4
3
3
2
2
2
2
2
2
2
2
2
2
2
2
2
2
2
2
2
2
2
2
2
2
2
2
2
2
2
2
2
2
2
2
2
2
2
2
2
2
2
2
4
4
3
3
2
2
2
2
2
2
2
2
2
2
2
2
2
2
2
2
2
2
2
2
2
2
2
2
2
2
2
2
2
2
2
2
2
2
2
2
2
2
2
2
4
4
3
3
2
2
2
2
2
2
2
2
2
2
2
2
2
2
2
2
2
2
2
2
2
2
2
2
2
2
2
2
2
2
2
2
2
2
2
2
2
2
2
2
4
4
3
3
2
2
2
2
2
2
2
2
2
2
2
2
2
2
2
2
2
2
2
2
2
2
2
2
2
2
2
2
2
2
2
2
2
2
2
2
2
2
2
2
4
4
3
3
2
2
2
2
2
2
2
2
2
2
2
2
2
2
2
2
2
2
2
2
2
2
2
2
2
2
2
2
2
2
2
2
2
2
2
2
2
2
2
2
4
4
3
3
2
2
2
2
2
2
2
2
2
2
2
2
2
2
2
2
2
2
2
2
2
2
2
2
2
2
2
2
2
2
2
2
2
2
2
2
2
2
2
2
4
4
3
3
2
2
2
2
2
2
2
2
2
2
2
2
2
2
2
2
2
2
2
2
2
2
2
2
2
2
2
2
2
2
2
2
2
2
2
2
2
2
2
2
4
4
3
3
2
2
2
2
2
2
2
2
2
2
2
2
2
2
2
2
2
2
2
2
2
2
2
2
2
2
2
2
2
2
2
2
2
2
2
2
2
2
2
2
4
4
3
3
2
2
2
2
2
2
2
2
2
2
2
2
2
2
2
2
2
2
2
2
2
2
2
2
2
2
2
2
2
2
2
2
2
2
2
2
2
2
2
2
4
4
3
3
2
2
2
2
2
2
2
2
2
2
2
2
2
2
2
2
2
2
2
2
2
2
2
2
2
2
2
2
2
2
2
2
2
2
2
2
2
2
2
2
4
4
3
3
2
2
2
2
2
2
2
2
2
2
2
2
2
2
2
2
2
2
2
2
2
2
2
2
2
2
2
2
2
2
2
2
2
2
2
2
2
2
2
2
4
4
3
3
2
2
2
2
2
2
2
2
2
2
2
2
2
2
2
2
2
2
2
2
2
2
2
2
2
2
2
2
2
2
2
2
2
2
2
2
2
2
2
2
4
4
3
3
2
2
2
2
2
2
2
2
2
2
2
2
2
2
2
2
2
2
2
2
2
2
2
2
2
2
2
2
2
2
2
2
2
2
2
2
2
2
2
2
4
4
3
3
2
2
2
2
2
2
2
2
2
2
2
2
2
2
2
2
2
2
2
2
2
2
2
2
2
2
2
2
2
2
2
2
2
2
2
2
2
2
2
2
4
4
3
3
2
2
2
2
2
2
2
2
2
2
2
2
2
2
2
2
2
2
2
2
2
2
2
2
2
2
2
2
2
2
2
2
2
2
2
2
2
2
2
2
4
4
3
3
2
2
2
2
2
2
2
2
2
2
2
2
2
2
2
2
2
2
2
2
2
2
2
2
2
2
2
2
2
2
2
2
2
2
2
2
2
2
2
2
4
4
3
3
2
2
2
2
2
2
2
2
2
2
2
2
2
2
2
2
2
2
2
2
2
2
2
2
2
2
2
2
2
2
2
2
2
2
2
2
2
2
2
2
4
4
3
3
2
2
2
2
2
2
2
2
2
2
2
2
2
2
2
2
2
2
2
2
2
2
2
2
2
2
2
2
2
2
2
2
2
2
2
2
2
2
2
2
4
4
3
3
2
2
2
2
2
2
2
2
2
2
2
2
2
2
2
2
2
2
2
2
2
2
2
2
2
2
2
2
2
2
2
2
2
2
2
2
2
2
2
2
4
4
3
3
2
2
2
2
2
2
2
2
2
2
2
2
2
2
2
2
2
2
2
2
2
2
2
2
2
2
2
2
2
2
2
2
2
2
2
2
2
2
2
2
4
4
3
3
2
2
2
2
2
2
2
2
2
2
2
2
2
2
2
2
2
2
2
2
2
2
2
2
2
2
2
2
2
2
2
2
2
2
2
2
2
2
2
2
4
4
3
3
2
2
2
2
2
2
2
2
2
2
2
2
2
2
2
2
2
2
2
2
2
2
2
2
2
2
2
2
2
2
2
2
2
2
2
2
2
2
2
2
4
4
3
3
2
2
2
2
2
2
2
2
2
2
2
2
2
2
2
2
2
2
2
2
2
2
2
2
2
2
2
2
2
2
2
2
2
2
2
2
2
2
2
2
4
4
3
3
2
2
2
2
2
2
2
2
2
2
2
2
2
2
2
2
2
2
2
2
2
2
2
2
2
2
2
2
2
2
2
2
2
2
2
2
2
2
2
2
4
4
3
3
2
2
2
2
2
2
2
2
2
2
2
2
2
2
2
2
2
2
2
2
2
2
2
2
2
2
2
2
2
2
2
2
2
2
2
2
2
2
2
2
4
4
3
3
2
2
2
2
2
2
2
2
2
2
2
2
2
2
2
2
2
2
2
2
2
2
2
2
2
2
2
2
2
2
2
2
2
2
2
2
2
2
2
2
4
4
3
3
2
2
2
2
2
2
2
2
2
2
2
2
2
2
2
2
2
2
2
2
2
2
2
2
2
2
2
2
2
2
2
2
2
2
2
2
2
2
2
2
4
4
3
3
2
2
2
2
2
2
2
2
2
2
2
2
2
2
2
2
2
2
2
2
2
2
2
2
2
2
2
2
2
2
2
2
2
2
2
2
2
2
2
2
4
4
3
3
2
2
2
2
2
2
2
2
2
2
2
2
2
2
2
2
2
2
2
2
2
2
2
2
2
2
2
2
2
2
2
2
2
2
2
2
2
2
2
2
4
4
3
3
3
3
3
3
3
3
3
3
3
3
3
3
3
3
3
3
3
3
3
3
3
3
3
3
3
3
3
3
3
3
3
3
3
3
3
3
3
3
3
3
</DataArray>
<DataArray NumberOfComponents='1' type='Float32' Name='Temperature' format='ascii'>
0.000000
0.000000
0.000000
0.000000
0.000000
0.000000
0.000000
0.000000
0.000000
0.000000
0.000000
0.000000
0.000000
0.000000
0.000000
0.000000
0.000000
0.000000
0.000000
0.000000
0.000000
0.000000
0.000000
0.000000
0.000000
0.000000
0.000000
0.000000
0.000000
0.000000
0.000000
0.000000
0.000000
0.000000
0.000000
0.000000
0.000000
0.000000
0.000000
0.000000
0.000000
0.000000
0.000000
0.000000
0.000000
0.000000
0.000000
0.000000
-0.213168
-0.384949
-0.561462
-0.736056
-0.909062
-1.080035
-1.248621
-1.414473
-1.577258
-1.736664
-1.892397
-2.044180
-2.191761
-2.334908
-2.473411
-2.607083
-2.735760
-2.859299
-2.977579
-3.090501
-3.197986
-3.299973
-3.396419
-3.487298
-3.572599
-3.652325
-3.726487
-3.795109
-3.858222
-3.915863
-3.968072
-4.014895
-4.056375
-4.092557
-4.123482
-4.149188
-4.169710
-4.185075
-4.195239
-4.201602
-3.000000
-3.000000
-3.000000
-3.000000
0.000000
0.000000
0.000000
0.000000
-0.206678
-0.373200
-0.544260
-0.713387
-0.880882
-1.046294
-1.209261
-1.369431
-1.526469
-1.680060
-1.829908
-1.975742
-2.117312
-2.254394
-2.386785
-2.514311
-2.636820
-2.754185
-2.866303
-2.973095
-3.074501
-3.170485
-3.261028
-3.346130
-3.425806
-3.500085
-3.569006
-3.632622
-3.690989
-3.744171
-3.792235
-3.835250
-3.873282
-3.906397
-3.934657
-3.958115
-3.976821
-3.990813
-4.000063
-4.005850
-3.000000
-3.000000
-3.000000
-3.000000
0.000000
0.000000
0.000000
0.000000
-0.202257
-0.365190
-0.532516
-0.697883
-0.861564
-1.023101
-1.182122
-1.338266
-1.491194
-1.640585
-1.786142
-1.927593
-2.064690
-2.197211
-2.324962
-2.447776
-2.565512
-2.678056
-2.785320
-2.887242
-2.983782
-3.074924
-3.160673
-3.241051
-3.316098
-3.385868
-3.450429
-3.509858
-3.564238
-3.613659
-3.658212
-3.697991
-3.733084
-3.763579
-3.789555
-3.811083
-3.828228
-3.841039
-3.849501
-3.854792
-3.000000
-3.000000
-3.000000
-3.000000
0.000000
0.000000
0.000000
0.000000
-0.199011
-0.359299
-0.523860
-0.686423
-0.847236
-1.005826
-1.161812
-1.314822
-1.464507
-1.610540
-1.752619
-1.890467
-2.023837
-2.152509
-2.276293
-2.395028
-2.508584
-2.616857
-2.719776
-2.817293
-2.909389
-2.996070
-3.077362
-3.153313
-3.223991
-3.289477
-3.349866
-3.405265
-3.455787
-3.501550
-3.542674
-3.579278
-3.611479
-3.639385
-3.663100
-3.682713
-3.698305
-3.709939
-3.717615
-3.722412
-3.000000
-3.000000
-3.000000
-3.000000
0.000000
0.000000
0.000000
0.000000
-0.196729
-0.355149
-0.517743
-0.678287
-0.837005
-0.993411
-1.147107
-1.297709
-1.444854
-1.588206
-1.727454
-1.862316
-1.992542
-2.117910
-2.238231
-2.353349
-2.463141
-2.567515
-2.666412
-2.759800
-2.847681
-2.930080
-3.007051
-3.078668
-3.145027
-3.206241
-3.262439
-3.313759
-3.360348
-3.402359
-3.439946
-3.473259
-3.502447
-3.527647
-3.548989
-3.566587
-3.580541
-3.590931
-3.597777
-3.602049
-3.000000
-3.000000
-3.000000
-3.000000
0.000000
0.000000
0.000000
0.000000
-0.195316
-0.352570
-0.513920
-0.673162
-0.830501
-0.985430
-1.137536
-1.286419
-1.431701
-1.573032
-1.710090
-1.842584
-1.970253
-2.092871
-2.210248
-2.322227
-2.428687
-2.529544
-2.624748
-2.714284
-2.798169
-2.876450
-2.949206
-3.016540
-3.078580
-3.135473
-3.187385
-3.234492
-3.276984
-3.315053
-3.348894
-3.378699
-3.404655
-3.426938
-3.445709
-3.461115
-3.473282
-3.482312
-3.488247
-3.491943
-3.000000
-3.000000
-3.000000
-3.000000
0.000000
0.000000
0.000000
0.000000
-0.194627
-0.351304
-0.512021
-0.670582
-0.827168
-0.981259
-1.132424
-1.280245
-1.424329
-1.564310
-1.699848
-1.830638
-1.956406
-2.076914
-2.191961
-2.301383
-2.405055
-2.502892
-2.594847
-2.680912
-2.761115
-2.835523
-2.904234
-2.967381
-3.025122
-3.077642
-3.125148
-3.167864
-3.206026
-3.239878
-3.269667
-3.295639
-3.318031
-3.337070
-3.352964
-3.365901
-3.376046
-3.383531
-3.388429
-3.391469
-3.000000
-3.000000
-3.000000
-3.000000
0.000000
0.000000
0.000000
0.000000
-0.194416
-0.350910
-0.511418
-0.669738
-0.826040
-0.979792
-1.130549
-1.277880
-1.421375
-1.560651
-1.695352
-1.825152
-1.949758
-2.068912
-2.182393
-2.290019
-2.391648
-2.487178
-2.576553
-2.659756
-2.736814
-2.807796
-2.872814
-2.932016
-2.985588
-3.033751
-3.076753
-3.114870
-3.148395
-3.177638
-3.202915
-3.224545
-3.242838
-3.258095
-3.270596
-3.280593
-3.288310
-3.293928
-3.297567
-3.299807
-3.000000
-3.000000
-3.000000
-3.000000
0.000000
0.000000
0.000000
0.000000
-0.194394
-0.350866
-0.511347
-0.669632
-0.825887
-0.979577
-1.130250
-1.277467
-1.420813
-1.559891
-1.694333
-1.823798
-1.947975
-2.066583
-2.179379
-2.286151
-2.386728
-2.480979
-2.568811
-2.650177
-2.725072
-2.793540
-2.855668
-2.911593
-2.961498
-3.005612
-3.044211
-3.077610
-3.106162
-3.130252
-3.150289
-3.166697
-3.179908
-3.190345
-3.198414
-3.204494
-3.208920
-3.211974
-3.213869
-3.214991
-3.000000
-3.000000
-3.000000
-3.000000
0.000000
0.000000
0.000000
0.000000
-0.194393
-0.350866
-0.511347
-0.669631
-0.825886
-0.979574
-1.130245
-1.277459
-1.420800
-1.559870
-1.694299
-1.823744
-1.947890
-2.066452
-2.179177
-2.285845
-2.386270
-2.480300
-2.567818
-2.648742
-2.723026
-2.790660
-2.851669
-2.906116
-2.954104
-2.995776
-3.031323
-3.060985
-3.085060
-3.103912
-3.117974
-3.127754
-3.133838
-3.136878
-3.137578
-3.136670
-3.134871
-3.132843
-3.131157
-3.129921
-3.000000
-3.000000
-3.000000
-3.000000
0.000000
0.000000
0.000000
0.000000
-0.196492
-0.354653
-0.516862
-0.676849
-0.834778
-0.990108
-1.142379
-1.291147
-1.435985
-1.576491
-1.712288
-1.843025
-1.968379
-2.088058
-2.201803
-2.309386
-2.410614
-2.505329
-2.593409
-2.674764
-2.749344
-2.817133
-2.878152
-2.932459
-2.980152
-3.021365
-3.056277
-3.085108
-3.108119
-3.125608
-3.137899
-3.145322
-3.148178
-3.146697
-3.140979
-3.130945
-3.116309
-3.096662
-3.071422
-3.042050
0.000000
0.000000
0.000000
0.000000
-0.200404
-0.361715
-0.527155
-0.690329
-0.851405
-1.009828
-1.165128
-1.316849
-1.464552
-1.607822
-1.746268
-1.879524
-2.007255
-2.129153
-2.244945
-2.354388
-2.457273
-2.553428
-2.642716
-2.725036
-2.800322
-2.868548
-2.929724
-2.983901
-3.031168
-3.071660
-3.105555
-3.133075
-3.154491
-3.170114
-3.180280
-3.185332
-3.185577
-3.181236
-3.172375
-3.158847
-3.140258
-3.116063
-3.085506
-3.050252
0.000000
0.000000
0.000000
0.000000
-0.204547
-0.369198
-0.538074
-0.704651
-0.869104
-1.030868
-1.189464
-1.344424
-1.495300
-1.641662
-1.783106
-1.919250
-2.049742
-2.174257
-2.292501
-2.404214
-2.509166
-2.607165
-2.698052
-2.781706
-2.858043
-2.927017
-2.988622
-3.042894
-3.089910
-3.129795
-3.162724
-3.188921
-3.208661
-3.222268
-3.230091
-3.232486
-3.229766
-3.222139
-3.209632
-3.192016
-3.168769
-3.139187
-3.102306
-3.060040
0.000000
0.000000
0.000000
0.000000
-0.208753
-0.376805
-0.549195
-0.719274
-0.887231
-1.052495
-1.214584
-1.373023
-1.527353
-1.677133
-1.821946
-1.961392
-2.095101
-2.222725
-2.343948
-2.458481
-2.566068
-2.666488
-2.759553
-2.845110
-2.923045
-2.993283
-3.055789
-3.110573
-3.157691
-3.197249
-3.229409
-3.254389
-3.272468
-3.283973
-3.289270
-3.288725
-3.282655
-3.271252
-3.254494
-3.232054
-3.203254
-3.167201
-3.122683
-3.071921
0.000000
0.000000
0.000000
0.000000
-0.212720
-0.383994
-0.559738
-0.733196
-0.904578
-1.073320
-1.238942
-1.400969
-1.558938
-1.712403
-1.860931
-2.004108
-2.141543
-2.272862
-2.397720
-2.515794
-2.626792
-2.730450
-2.826537
-2.914855
-2.995244
-3.067580
-3.131783
-3.187819
-3.235703
-3.275506
-3.307362
-3.331471
-3.348100
-3.357579
-3.360278
-3.356572
-3.346778
-3.331065
-3.309346
-3.281174
-3.245683
-3.201744
-3.147848
-3.086609
0.000000
0.000000
0.000000
0.000000
-0.216020
-0.389997
-0.568590
-0.744972
-0.919388
-1.091291
-1.260218
-1.425706
-1.587300
-1.744553
-1.897030
-2.044304
-2.185966
-2.321617
-2.450879
-2.573388
-2.688806
-2.796815
-2.897122
-2.989465
-3.073612
-3.149368
-3.216577
-3.275130
-3.324972
-3.366109
-3.398618
-3.422652
-3.438447
-3.446311
-3.446606
-3.439705
-3.425909
-3.405352
-3.377859
-3.342828
-3.299151
-3.245413
-3.179734
-3.105247
0.000000
0.000000
0.000000
0.000000
-0.218212
-0.394012
-0.574574
-0.753048
-0.929722
-1.104086
-1.275709
-1.444157
-1.609001
-1.769813
-1.926169
-2.077652
-2.223847
-2.364343
-2.498737
-2.626633
-2.747641
-2.861385
-2.967498
-3.065631
-3.155455
-3.236666
-3.308992
-3.372201
-3.426115
-3.470618
-3.505674
-3.531334
-3.547749
-3.555161
-3.553882
-3.544241
-3.526496
-3.500703
-3.466556
-3.423234
-3.369309
-3.302986
-3.221916
-3.129956
0.000000
0.000000
0.000000
0.000000
-0.219137
-0.395733
-0.577199
-0.756698
-0.934564
-1.110328
-1.283605
-1.454007
-1.621154
-1.784664
-1.944163
-2.099275
-2.249623
-2.394829
-2.534510
-2.668277
-2.795730
-2.916462
-3.030054
-3.136078
-3.234100
-3.323679
-3.404384
-3.475796
-3.537530
-3.589249
-3.630689
-3.661678
-3.682155
-3.692169
-3.691861
-3.681404
-3.660897
-3.630208
-3.588771
-3.535400
-3.468181
-3.384772
-3.282183
-3.165387
0.000000
0.000000
0.000000
0.000000
-0.219274
-0.395998
-0.577626
-0.757333
-0.935474
-1.111605
-1.285372
-1.456425
-1.624429
-1.789060
-1.950008
-2.106976
-2.259677
-2.407831
-2.551163
-2.689394
-2.822238
-2.949392
-3.070528
-3.185280
-3.293238
-3.393940
-3.486867
-3.571442
-3.647045
-3.713024
-3.768722
-3.813509
-3.846813
-3.868134
-3.877042
-3.873123
-3.855859
-3.824446
-3.777551
-3.713088
-3.628101
-3.519225
-3.382422
-3.224755
0.000000
0.000000
0.000000
0.000000
-0.219275
-0.396001
-0.577631
-0.757342
-0.935489
-1.111630
-1.285413
-1.456493
-1.624539
-1.789238
-1.950292
-2.107424
-2.260375
-2.408907
-2.552802
-2.691863
-2.825915
-2.954803
-3.078389
-3.196559
-3.309212
-3.416265
-3.517641
-3.613269
-3.703068
-3.786924
-3.864661
-3.935979
-4.000375
-4.057006
-4.104513
-4.140773
-4.162603
-4.165442
-4.143083
-4.087628
-3.989857
-3.840758
-3.631935
-3.376362
0.000000
0.000000
0.000000
0.000000
-0.219275
-0.396001
-0.577631
-0.757342
-0.935489
-1.111630
-1.285413
-1.456493
-1.624539
-1.789238
-1.950292
-2.107424
-2.260375
-2.408907
-2.552802
-2.691864
-2.825916
-2.954805
-3.078394
-3.196569
-3.309235
-3.416312
-3.517740
-3.613474
-3.703482
-3.787746
-3.866260
-3.939024
-4.006052
-4.067359
-4.122969
-4.172908
-4.217203
-4.255884
-4.288977
-4.316510
-4.338507
-4.354985
-4.365889
-4.372718
0.000000
0.000000
0.000000
0.000000
-0.219275
-0.396001
-0.577631
-0.757342
-0.935489
-1.111630
-1.285413
-1.456493
-1.624539
-1.789238
-1.950292
-2.107424
-2.260375
-2.408907
-2.552802
-2.691864
-2.825916
-2.954805
-3.078394
-3.196569
-3.309235
-3.416312
-3.517740
-3.613474
-3.703482
-3.787746
-3.866260
-3.939024
-4.006052
-4.067359
-4.122969
-4.172908
-4.217203
-4.255884
-4.288977
-4.316510
-4.338507
-4.354985
-4.365889
-4.372718
0.000000
0.000000
0.000000
0.000000
-0.219275
-0.396001
-0.577631
-0.757342
-0.935489
-1.111630
-1.285413
-1.456493
-1.624539
-1.789238
-1.950292
-2.107424
-2.260375
-2.408907
-2.552802
-2.691864
-2.825916
-2.954805
-3.078394
-3.196569
-3.309235
-3.416312
-3.517740
-3.613474
-3.703482
-3.787746
-3.866260
-3.939024
-4.006052
-4.067359
-4.122969
-4.172908
-4.217203
-4.255884
-4.288977
-4.316510
-4.338507
-4.354985
-4.365889
-4.372718
0.000000
0.000000
0.000000
0.000000
-0.219275
-0.396001
-0.577631
-0.757342
-0.935489
-1.111630
-1.285413
-1.456493
-1.624539
-1.789238
-1.950292
-2.107424
-2.260375
-2.408907
-2.552802
-2.691864
-2.825916
-2.954805
-3.078394
-3.196569
-3.309235
-3.416312
-3.517740
-3.613474
-3.703482
-3.787746
-3.866260
-3.939024
-4.006052
-4.067359
-4.122969
-4.172908
-4.217203
-4.255884
-4.288977
-4.316510
-4.338507
-4.354985
-4.365889
-4.372718
0.000000
0.000000
0.000000
0.000000
-0.219275
-0.396001
-0.577631
-0.757342
-0.935489
-1.111630
-1.285413
-1.456493
-1.624539
-1.789238
-1.950292
-2.107424
-2.260375
-2.408907
-2.552802
-2.691864
-2.825916
-2.954805
-3.078394
-3.196569
-3.309235
-3.416312
-3.517740
-3.613474
-3.703482
-3.787746
-3.866260
-3.939024
-4.006052
-4.067359
-4.122969
-4.172908
-4.217203
-4.255884
-4.288977
-4.316510
-4.338507
-4.354985
-4.365889
-4.372718
0.000000
0.000000
0.000000
0.000000
-0.219275
-0.396001
-0.577631
-0.757342
-0.935489
-1.111630
-1.285413
-1.456493
-1.624539
-1.789238
-1.950292
-2.107424
-2.260375
-2.408907
-2.552802
-2.691864
-2.825916
-2.954805
-3.078394
-3.196569
-3.309235
-3.416312
-3.517740
-3.613474
-3.703482
-3.787746
-3.866260
-3.939024
-4.006052
-4.067359
-4.122969
-4.172908
-4.217203
-4.255884
-4.288977
-4.316510
-4.338507
-4.354985
-4.365889
-4.372718
0.000000
0.000000
0.000000
0.000000
-0.219275
-0.396001
-0.577631
-0.757342
-0.935489
-1.111630
-1.285413
-1.456493
-1.624539
-1.789238
-1.950292
-2.107424
-2.260375
-2.408907
-2.552802
-2.691864
-2.825916
-2.954805
-3.078394
-3.196569
-3.309235
-3.416312
-3.517740
-3.613474
-3.703482
-3.787746
-3.866260
-3.939024
-4.006052
-4.067359
-4.122969
-4.172908
-4.217203
-4.255884
-4.288977
-4.316510
-4.338507
-4.354985
-4.365889
-4.372718
0.000000
0.000000
0.000000
0.000000
-0.219275
-0.396001
-0.577631
-0.757342
-0.935489
-1.111630
-1.285413
-1.456493
-1.624539
-1.789238
-1.950292
-2.107424
-2.260375
-2.408907
-2.552802
-2.691864
-2.825916
-2.954805
-3.078394
-3.196569
-3.309235
-3.416312
-3.517740
-3.613474
-3.703482
-3.787746
-3.866260
-3.939024
-4.006052
-4.067359
-4.122969
-4.172908
-4.217203
-4.255884
-4.288977
-4.316510
-4.338507
-4.354985
-4.365889
-4.372718
0.000000
0.000000
0.000000
0.000000
-0.219275
-0.396001
-0.577631
-0.757342
-0.935489
-1.111630
-1.285413
-1.456493
-1.624539
-1.789238
-1.950292
-2.107424
-2.260375
-2.408907
-2.552802
-2.691864
-2.825916
-2.954805
-3.078394
-3.196569
-3.309235
-3.416312
-3.517740
-3.613474
-3.703482
-3.787746
-3.866260
-3.939024
-4.006052
-4.067359
-4.122969
-4.172908
-4.217203
-4.255884
-4.288977
-4.316510
-4.338507
-4.354985
-4.365889
-4.372718
0.000000
0.000000
0.000000
0.000000
-0.219275
-0.396001
-0.577631
-0.757342
-0.935489
-1.111630
-1.285413
-1.456493
-1.624539
-1.789238
-1.950292
-2.107424
-2.260375
-2.408907
-2.552802
-2.691864
-2.825916
-2.954805
-3.078394
-3.196569
-3.309235
-3.416312
-3.517740
-3.613474
-3.703482
-3.787746
-3.866260
-3.939024
-4.006052
-4.067359
-4.122969
-4.172908
-4.217203
-4.255884
-4.288977
-4.316510
-4.338507
-4.354985
-4.365889
-4.372718
0.000000
0.000000
0.000000
0.000000
-0.219275
-0.396001
-0.577631
-0.757342
-0.935489
-1.111630
-1.285413
-1.456493
-1.624539
-1.789238
-1.950292
-2.107424
-2.260375
-2.408907
-2.552802
-2.691864
-2.825916
-2.954805
-3.078394
-3.196569
-3.309235
-3.416312
-3.517740
-3.613474
-3.703482
-3.787746
-3.866260
-3.939024
-4.006052
-4.067359
-4.122969
-4.172908
-4.217203
-4.255884
-4.288977
-4.316510
-4.338507
-4.354985
-4.365889
-4.372718
0.000000
0.000000
0.000000
0.000000
-0.219275
-0.396001
-0.577631
-0.757342
-0.935489
-1.111630
-1.285413
-1.456493
-1.624539
-1.789238
-1.950292
-2.107424
-2.260375
-2.408907
-2.552802
-2.691864
-2.825916
-2.954805
-3.078394
-3.196569
-3.309235
-3.416312
-3.517740
-3.613474
-3.703482
-3.787746
-3.866260
-3.939024
-4.006052
-4.067359
-4.122969
-4.172908
-4.217203
-4.255884
-4.288977
-4.316510
-4.338507
-4.354985
-4.365889
-4.372718
0.000000
0.000000
0.000000
0.000000
-0.219275
-0.396001
-0.577631
-0.757342
-0.935489
-1.111630
-1.285413
-1.456493
-1.624539
-1.789238
-1.950292
-2.107424
-2.260375
-2.408907
-2.552802
-2.691864
-2.825916
-2.954805
-3.078394
-3.196569
-3.309235
-3.416312
-3.517740
-3.613474
-3.703482
-3.787746
-3.866260
-3.939024
-4.006052
-4.067359
-4.122969
-4.172908
-4.217203
-4.255884
-4.288977
-4.316510
-4.338507
-4.354985
-4.365889
-4.372718
0.000000
0.000000
0.000000
0.000000
-0.219275
-0.396001
-0.577631
-0.757342
-0.935489
-1.111630
-1.285413
-1.456493
-1.624539
-1.789238
-1.950292
-2.107424
-2.260375
-2.408907
-2.552802
-2.691864
-2.825916
-2.954805
-3.078394
-3.196569
-3.309235
-3.416312
-3.517740
-3.613474
-3.703482
-3.787746
-3.866260
-3.939024
-4.006052
-4.067359
-4.122969
-4.172908
-4.217203
-4.255884
-4.288977
-4.316510
-4.338507
-4.354985
-4.365889
-4.372718
0.000000
0.000000
0.000000
0.000000
-0.219275
-0.396001
-0.577631
-0.757342
-0.935489
-1.111630
-1.285413
-1.456493
-1.624539
-1.789238
-1.950292
-2.107424
-2.260375
-2.408907
-2.552802
-2.691864
-2.825916
-2.954805
-3.078394
-3.196569
-3.309235
-3.416312
-3.517740
-3.613474
-3.703482
-3.787746
-3.866260
-3.939024
-4.006052
-4.067359
-4.122969
-4.172908
-4.217203
-4.255884
-4.288977
-4.316510
-4.338507