<?xml version='1.0' encoding='UTF-8'?>
<VTKFile xmlns='VTK' byte_order='LittleEndian' version='0.1' type='UnstructuredGrid'>
<UnstructuredGrid>
<Piece NumberOfCells='1888' NumberOfPoints='1888'>
<Points>
<DataArray NumberOfComponents='3' type='Float32' Name='Position' format='ascii'>
-0.040000 -0.030000 0.000000
-0.040000 -0.020000 0.000000
-0.040000 -0.010000 0.000000
-0.040000 0.000000 0.000000
-0.040000 0.010000 0.000000
-0.040000 0.020000 0.000000
-0.040000 0.030000 0.000000
-0.040000 0.040000 0.000000
-0.040000 0.050000 0.000000
-0.040000 0.060000 0.000000
-0.040000 0.070000 0.000000
-0.040000 0.080000 0.000000
-0.040000 0.090000 0.000000
-0.040000 0.100000 0.000000
-0.040000 0.110000 0.000000
-0.040000 0.120000 0.000000
-0.040000 0.130000 0.000000
-0.040000 0.140000 0.000000
-0.040000 0.150000 0.000000
-0.040000 0.160000 0.000000
-0.040000 0.170000 0.000000
-0.040000 0.180000 0.000000
-0.040000 0.190000 0.000000
-0.040000 0.200000 0.000000
-0.040000 0.210000 0.000000
-0.040000 0.220000 0.000000
-0.040000 0.230000 0.000000
-0.040000 0.240000 0.000000
-0.040000 0.250000 0.000000
-0.040000 0.260000 0.000000
-0.040000 0.270000 0.000000
-0.040000 0.280000 0.000000
-0.040000 0.290000 0.000000
-0.040000 0.300000 0.000000
-0.040000 0.310000 0.000000
-0.040000 0.320000 0.000000
-0.040000 0.330000 0.000000
-0.040000 0.340000 0.000000
-0.040000 0.350000 0.000000
-0.040000 0.360000 0.000000
-0.040000 0.370000 0.000000
-0.040000 0.380000 0.000000
-0.040000 0.390000 0.000000
-0.040000 0.400000 0.000000
0.010000 -0.030000 0.000000
0.010000 -0.020000 0.000000
0.010000 -0.010000 0.000000
0.010000 0.000000 0.000000
0.010000 0.010000 0.000000
0.010000 0.020000 0.000000
0.010000 0.030000 0.000000
0.010000 0.040000 0.000000
0.010000 0.050000 0.000000
0.010000 0.060000 0.000000
0.010000 0.070000 0.000000
0.010000 0.080000 0.000000
0.010000 0.090000 0.000000
0.010000 0.100000 0.000000
0.010000 0.110000 0.000000
0.010000 0.120000 0.000000
0.010000 0.130000 0.000000
0.010000 0.140000 0.000000
0.010000 0.150000 0.000000
0.010000 0.160000 0.000000
0.010000 0.170000 0.000000
0.010000 0.180000 0.000000
0.010000 0.190000 0.000000
0.010000 0.200000 0.000000
0.010000 0.210000 0.000000
0.010000 0.220000 0.000000
0.010000 0.230000 0.000000
0.010000 0.240000 0.000000
0.010000 0.250000 0.000000
0.010000 0.260000 0.000000
0.010000 0.270000 0.000000
0.010000 0.280000 0.000000
0.010000 0.290000 0.000000
0.010000 0.300000 0.000000
0.010000 0.310000 0.000000
0.010000 0.320000 0.000000
0.010000 0.330000 0.000000
0.010000 0.340000 0.000000
0.010000 0.350000 0.000000
0.010000 0.360000 0.000000
0.010000 0.370000 0.000000
0.010000 0.380000 0.000000
0.010000 0.390000 0.000000
0.010000 0.400000 0.000000
0.468000 0.410000 0.000000
0.468000 0.420000 0.000000
0.468000 0.430000 0.000000
0.468000 0.440000 0.000000
0.060000 -0.030000 0.000000
0.060000 -0.020000 0.000000
0.060000 -0.010000 0.000000
0.060000 0.000000 0.000000
0.060000 0.010000 0.000000
0.060000 0.020000 0.000000
0.060000 0.030000 0.000000
0.060000 0.040000 0.000000
0.060000 0.050000 0.000000
0.060000 0.060000 0.000000
0.060000 0.070000 0.000000
0.060000 0.080000 0.000000
0.060000 0.090000 0.000000
0.060000 0.100000 0.000000
0.060000 0.110000 0.000000
0.060000 0.120000 0.000000
0.060000 0.130000 0.000000
0.060000 0.140000 0.000000
0.060000 0.150000 0.000000
0.060000 0.160000 0.000000
0.060000 0.170000 0.000000
0.060000 0.180000 0.000000
0.060000 0.190000 0.000000
0.060000 0.200000 0.000000
0.060000 0.210000 0.000000
0.060000 0.220000 0.000000
0.060000 0.230000 0.000000
0.060000 0.240000 0.000000
0.060000 0.250000 0.000000
0.060000 0.260000 0.000000
0.060000 0.270000 0.000000
0.060000 0.280000 0.000000
0.060000 0.290000 0.000000
0.060000 0.300000 0.000000
0.060000 0.310000 0.000000
0.060000 0.320000 0.000000
0.060000 0.330000 0.000000
0.060000 0.340000 0.000000
0.060000 0.350000 0.000000
0.060000 0.360000 0.000000
0.060000 0.370000 0.000000
0.060000 0.380000 0.000000
0.060000 0.390000 0.000000
0.060000 0.400000 0.000000
0.518000 0.410000 0.000000
0.518000 0.420000 0.000000
0.518000 0.430000 0.000000
0.518000 0.440000 0.000000
0.110000 -0.030000 0.000000
0.110000 -0.020000 0.000000
0.110000 -0.010000 0.000000
0.110000 0.000000 0.000000
0.110000 0.010000 0.000000
0.110000 0.020000 0.000000
0.110000 0.030000 0.000000
0.110000 0.040000 0.000000
0.110000 0.050000 0.000000
0.110000 0.060000 0.000000
0.110000 0.070000 0.000000
0.110000 0.080000 0.000000
0.110000 0.090000 0.000000
0.110000 0.100000 0.000000
0.110000 0.110000 0.000000
0.110000 0.120000 0.000000
0.110000 0.130000 0.000000
0.110000 0.140000 0.000000
0.110000 0.150000 0.000000
0.110000 0.160000 0.000000
0.110000 0.170000 0.000000
0.110000 0.180000 0.000000
0.110000 0.190000 0.000000
0.110000 0.200000 0.000000
0.110000 0.210000 0.000000
0.110000 0.220000 0.000000
0.110000 0.230000 0.000000
0.110000 0.240000 0.000000
0.110000 0.250000 0.000000
0.110000 0.260000 0.000000
0.110000 0.270000 0.000000
0.110000 0.280000 0.000000
0.110000 0.290000 0.000000
0.110000 0.300000 0.000000
0.110000 0.310000 0.000000
0.110000 0.320000 0.000000
0.110000 0.330000 0.000000
0.110000 0.340000 0.000000
0.110000 0.350000 0.000000
0.110000 0.360000 0.000000
0.110000 0.370000 0.000000
0.110000 0.380000 0.000000
0.110000 0.390000 0.000000
0.110000 0.400000 0.000000
0.568000 0.410000 0.000000
0.568000 0.420000 0.000000
0.568000 0.430000 0.000000
0.568000 0.440000 0.000000
0.160000 -0.030000 0.000000
0.160000 -0.020000 0.000000
0.160000 -0.010000 0.000000
0.160000 0.000000 0.000000
0.160000 0.010000 0.000000
0.160000 0.020000 0.000000
0.160000 0.030000 0.000000
0.160000 0.040000 0.000000
0.160000 0.050000 0.000000
0.160000 0.060000 0.000000
0.160000 0.070000 0.000000
0.160000 0.080000 0.000000
0.160000 0.090000 0.000000
0.160000 0.100000 0.000000
0.160000 0.110000 0.000000
0.160000 0.120000 0.000000
0.160000 0.130000 0.000000
0.160000 0.140000 0.000000
0.160000 0.150000 0.000000
0.160000 0.160000 0.000000
0.160000 0.170000 0.000000
0.160000 0.180000 0.000000
0.160000 0.190000 0.000000
0.160000 0.200000 0.000000
0.160000 0.210000 0.000000
0.160000 0.220000 0.000000
0.160000 0.230000 0.000000
0.160000 0.240000 0.000000
0.160000 0.250000 0.000000
0.160000 0.260000 0.000000
0.160000 0.270000 0.000000
0.160000 0.280000 0.000000
0.160000 0.290000 0.000000
0.160000 0.300000 0.000000
0.160000 0.310000 0.000000
0.160000 0.320000 0.000000
0.160000 0.330000 0.000000
0.160000 0.340000 0.000000
0.160000 0.350000 0.000000
0.160000 0.360000 0.000000
0.160000 0.370000 0.000000
0.160000 0.380000 0.000000
0.160000 0.390000 0.000000
0.160000 0.400000 0.000000
0.618000 0.410000 0.000000
0.618000 0.420000 0.000000
0.618000 0.430000 0.000000
0.618000 0.440000 0.000000
0.210000 -0.030000 0.000000
0.210000 -0.020000 0.000000
0.210000 -0.010000 0.000000
0.210000 0.000000 0.000000
0.210000 0.010000 0.000000
0.210000 0.020000 0.000000
0.210000 0.030000 0.000000
0.210000 0.040000 0.000000
0.210000 0.050000 0.000000
0.210000 0.060000 0.000000
0.210000 0.070000 0.000000
0.210000 0.080000 0.000000
0.210000 0.090000 0.000000
0.210000 0.100000 0.000000
0.210000 0.110000 0.000000
0.210000 0.120000 0.000000
0.210000 0.130000 0.000000
0.210000 0.140000 0.000000
0.210000 0.150000 0.000000
0.210000 0.160000 0.000000
0.210000 0.170000 0.000000
0.210000 0.180000 0.000000
0.210000 0.190000 0.000000
0.210000 0.200000 0.000000
0.210000 0.210000 0.000000
0.210000 0.220000 0.000000
0.210000 0.230000 0.000000
0.210000 0.240000 0.000000
0.210000 0.250000 0.000000
0.210000 0.260000 0.000000
0.210000 0.270000 0.000000
0.210000 0.280000 0.000000
0.210000 0.290000 0.000000
0.210000 0.300000 0.000000
0.210000 0.310000 0.000000
0.210000 0.320000 0.000000
0.210000 0.330000 0.000000
0.210000 0.340000 0.000000
0.210000 0.350000 0.000000
0.210000 0.360000 0.000000
0.210000 0.370000 0.000000
0.210000 0.380000 0.000000
0.210000 0.390000 0.000000
0.210000 0.400000 0.000000
0.668000 0.410000 0.000000
0.668000 0.420000 0.000000
0.668000 0.430000 0.000000
0.668000 0.440000 0.000000
0.260000 -0.030000 0.000000
0.260000 -0.020000 0.000000
0.260000 -0.010000 0.000000
0.260000 0.000000 0.000000
0.260000 0.010000 0.000000
0.260000 0.020000 0.000000
0.260000 0.030000 0.000000
0.260000 0.040000 0.000000
0.260000 0.050000 0.000000
0.260000 0.060000 0.000000
0.260000 0.070000 0.000000
0.260000 0.080000 0.000000
0.260000 0.090000 0.000000
0.260000 0.100000 0.000000
0.260000 0.110000 0.000000
0.260000 0.120000 0.000000
0.260000 0.130000 0.000000
0.260000 0.140000 0.000000
0.260000 0.150000 0.000000
0.260000 0.160000 0.000000
0.260000 0.170000 0.000000
0.260000 0.180000 0.000000
0.260000 0.190000 0.000000
0.260000 0.200000 0.000000
0.260000 0.210000 0.000000
0.260000 0.220000 0.000000
0.260000 0.230000 0.000000
0.260000 0.240000 0.000000
0.260000 0.250000 0.000000
0.260000 0.260000 0.000000
0.260000 0.270000 0.000000
0.260000 0.280000 0.000000
0.260000 0.290000 0.000000
0.260000 0.300000 0.000000
0.260000 0.310000 0.000000
0.260000 0.320000 0.000000
0.260000 0.330000 0.000000
0.260000 0.340000 0.000000
0.260000 0.350000 0.000000
0.260000 0.360000 0.000000
0.260000 0.370000 0.000000
0.260000 0.380000 0.000000
0.260000 0.390000 0.000000
0.260000 0.400000 0.000000
0.718000 0.410000 0.000000
0.718000 0.420000 0.000000
0.718000 0.430000 0.000000
0.718000 0.440000 0.000000
0.310000 -0.030000 0.000000
0.310000 -0.020000 0.000000
0.310000 -0.010000 0.000000
0.310000 0.000000 0.000000
0.310000 0.010000 0.000000
0.310000 0.020000 0.000000
0.310000 0.030000 0.000000
0.310000 0.040000 0.000000
0.310000 0.050000 0.000000
0.310000 0.060000 0.000000
0.310000 0.070000 0.000000
0.310000 0.080000 0.000000
0.310000 0.090000 0.000000
0.310000 0.100000 0.000000
0.310000 0.110000 0.000000
0.310000 0.120000 0.000000
0.310000 0.130000 0.000000
0.310000 0.140000 0.000000
0.310000 0.150000 0.000000
0.310000 0.160000 0.000000
0.310000 0.170000 0.000000
0.310000 0.180000 0.000000
0.310000 0.190000 0.000000
0.310000 0.200000 0.000000
0.310000 0.210000 0.000000
[...]
<PointData>
<DataArray NumberOfComponents='1' type='Int32' Name='ParticleType' format='ascii'>
4
4
4
4
4
4
4
4
4
4
4
4
4
4
4
4
4
4
4
4
4
4
4
4
4
4
4
4
4
4
4
4
4
4
4
4
4
4
4
4
4
4
4
4
4
4
3
3
2
2
2
2
2
2
2
2
2
2
2
2
2
2
2
2
2
2
2
2
2
2
2
2
2
2
2
2
2
2
2
2
2
2
2
2
2
2
2
2
5
5
5
5
4
4
3
3
2
2
2
2
2
2
2
2
2
2
2
2
2
2
2
2
2
2
2
2
2
2
2
2
2
2
2
2
2
2
2
2
2
2
2
2
2
2
2
2
5
5
5
5
4
4
3
3
2
2
2
2
2
2
2
2
2
2
2
2
2
2
2
2
2
2
2
2
2
2
2
2
2
2
2
2
2
2
2
2
2
2
2
2
2
2
2
2
5
5
5
5
4
4
3
3
2
2
2
2
2
2
2
2
2
2
2
2
2
2
2
2
2
2
2
2
2
2
2
2
2
2
2
2
2
2
2
2
2
2
2
2
2
2
2
2
5
5
5
5
4
4
3
3
2
2
2
2
2
2
2
2
2
2
2
2
2
2
2
2
2
2
2
2
2
2
2
2
2
2
2
2
2
2
2
2
2
2
2
2
2
2
2
2
5
5
5
5
4
4
3
3
2
2
2
2
2
2
2
2
2
2
2
2
2
2
2
2
2
2
2
2
2
2
2
2
2
2
2
2
2
2
2
2
2
2
2
2
2
2
2
2
5
5
5
5
4
4
3
3
2
2
2
2
2
2
2
2
2
2
2
2
2
2
2
2
2
2
2
2
2
2
2
2
2
2
2
2
2
2
2
2
2
2
2
2
2
2
2
2
5
5
5
5
4
4
3
3
2
2
2
2
2
2
2
2
2
2
2
2
2
2
2
2
2
2
2
2
2
2
2
2
2
2
2
2
2
2
2
2
2
2
2
2
2
2
2
2
5
5
5
5
4
4
3
3
2
2
2
2
2
2
2
2
2
2
2
2
2
2
2
2
2
2
2
2
2
2
2
2
2
2
2
2
2
2
2
2
2
2
2
2
2
2
2
2
5
5
5
5
4
4
3
3
2
2
2
2
2
2
2
2
2
2
2
2
2
2
2
2
2
2
2
2
2
2
2
2
2
2
2
2
2
2
2
2
2
2
2
2
2
2
2
2
5
5
5
5
4
4
3
3
2
2
2
2
2
2
2
2
2
2
2
2
2
2
2
2
2
2
2
2
2
2
2
2
2
2
2
2
2
2
2
2
2
2
2
2
2
2
2
2
4
4
3
3
2
2
2
2
2
2
2
2
2
2
2
2
2
2
2
2
2
2
2
2
2
2
2
2
2
2
2
2
2
2
2
2
2
2
2
2
2
2
2
2
4
4
3
3
2
2
2
2
2
2
2
2
2
2
2
2
2
2
2
2
2
2
2
2
2
2
2
2
2
2
2
2
2
2
2
2
2
2
2
2
2
2
2
2
4
4
3
3
2
2
2
2
2
2
2
2
2
2
2
2
2
2
2
2
2
2
2
2
2
2
2
2
2
2
2
2
2
2
2
2
2
2
2
2
2
2
2
2
4
4
3
3
2
2
2
2
2
2
2
2
2
2
2
2
2
2
2
2
2
2
2
2
2
2
2
2
2
2
2
2
2
2
2
2
2
2
2
2
2
2
2
2
4
4
3
3
2
2
2
2
2
2
2
2
2
2
2
2
2
2
2
2
2
2
2
2
2
2
2
2
2
2
2
2
2
2
2
2
2
2
2
2
2
2
2
2
4
4
3
3
2
2
2
2
2
2
2
2
2
2
2
2
2
2
2
2
2
2
2
2
2
2
2
2
2
2
2
2
2
2
2
2
2
2
2
2
2
2
2
2
4
4
3
3
2
2
2
2
2
2
2
2
2
2
2
2
2
2
2
2
2
2
2
2
2
2
2
2
2
2
2
2
2
2
2
2
2
2
2
2
2
2
2
2
4
4
3
3
2
2
2
2
2
2
2
2
2
2
2
2
2
2
2
2
2
2
2
2
2
2
2
2
2
2
2
2
2
2
2
2
2
2
2
2
2
2
2
2
4
4
3
3
2
2
2
2
2
2
2
2
2
2
2
2
2
2
2
2
2
2
2
2
2
2
2
2
2
2
2
2
2
2
2
2
2
2
2
2
2
2
2
2
4
4
3
3
2
2
2
2
2
2
2
2
2
2
2
2
2
2
2
2
2
2
2
2
2
2
2
2
2
2
2
2
2
2
2
2
2
2
2
2
2
2
2
2
4
4
3
3
2
2
2
2
2
2
2
2
2
2
2
2
2
2
2
2
2
2
2
2
2
2
2
2
2
2
2
2
2
2
2
2
2
2
2
2
2
2
2
2
4
4
3
3
2
2
2
2
2
2
2
2
2
2
2
2
2
2
2
2
2
2
2
2
2
2
2
2
2
2
2
2
2
2
2
2
2
2
2
2
2
2
2
2
4
4
3
3
2
2
2
2
2
2
2
2
2
2
2
2
2
2
2
2
2
2
2
2
2
2
2
2
2
2
2
2
2
2
2
2
2
2
2
2
2
2
2
2
4
4
3
3
2
2
2
2
2
2
2
2
2
2
2
2
2
2
2
2
2
2
2
2
2
2
2
2
2
2
2
2
2
2
2
2
2
2
2
2
2
2
2
2
4
4
3
3
2
2
2
2
2
2
2
2
2
2
2
2
2
2
2
2
2
2
2
2
2
2
2
2
2
2
2
2
2
2
2
2
2
2
2
2
2
2
2
2
4
4
3
3
2
2
2
2
2
2
2
2
2
2
2
2
2
2
2
2
2
2
2
2
2
2
2
2
2
2
2
2
2
2
2
2
2
2
2
2
2
2
2
2
4
4
3
3
2
2
2
2
2
2
2
2
2
2
2
2
2
2
2
2
2
2
2
2
2
2
2
2
2
2
2
2
2
2
2
2
2
2
2
2
2
2
2
2
4
4
3
3
2
2
2
2
2
2
2
2
2
2
2
2
2
2
2
2
2
2
2
2
2
2
2
2
2
2
2
2
2
2
2
2
2
2
2
2
2
2
2
2
4
4
3
3
2
2
2
2
2
2
2
2
2
2
2
2
2
2
2
2
2
2
2
2
2
2
2
2
2
2
2
2
2
2
2
2
2
2
2
2
2
2
2
2
4
4
3
3
2
2
2
2
2
2
2
2
2
2
2
2
2
2
2
2
2
2
2
2
2
2
2
2
2
2
2
2
2
2
2
2
2
2
2
2
2
2
2
2
4
4
3
3
2
2
2
2
2
2
2
2
2
2
2
2
2
2
2
2
2
2
2
2
2
2
2
2
2
2
2
2
2
2
2
2
2
2
2
2
2
2
2
2
4
4
3
3
2
2
2
2
2
2
2
2
2
2
2
2
2
2
2
2
2
2
2
2
2
2
2
2
2
2
2
2
2
2
2
2
2
2
2
2
2
2
2
2
4
4
3
3
2
2
2
2
2
2
2
2
2
2
2
2
2
2
2
2
2
2
2
2
2
2
2
2
2
2
2
2
2
2
2
2
2
2
2
2
2
2
2
2
4
4
3
3
2
2
2
2
2
2
2
2
2
2
2
2
2
2
2
2
2
2
2
2
2
2
2
2
2
2
2
2
2
2
2
2
2
2
2
2
2
2
2
2
4
4
3
3
2
2
2
2
2
2
2
2
2
2
2
2
2
2
2
2
2
2
2
2
2
2
2
2
2
2
2
2
2
2
2
2
2
2
2
2
2
2
2
2
4
4
3
3
2
2
2
2
2
2
2
2
2
2
2
2
2
2
2
2
2
2
2
2
2
2
2
2
2
2
2
2
2
2
2
2
2
2
2
2
2
2
2
2
4
4
3
3
2
2
2
2
2
2
2
2
2
2
2
2
2
2
2
2
2
2
2
2
2
2
2
2
2
2
2
2
2
2
2
2
2
2
2
2
2
2
2
2
4
4
3
3
2
2
2
2
2
2
2
2
2
2
2
2
2
2
2
2
2
2
2
2
2
2
2
2
2
2
2
2
2
2
2
2
2
2
2
2
2
2
2
2
4
4
3
3
2
2
2
2
2
2
2
2
2
2
2
2
2
2
2
2
2
2
2
2
2
2
2
2
2
2
2
2
2
2
2
2
2
2
2
2
2
2
2
2
4
4
3
3
3
3
3
3
3
3
3
3
3
3
3
3
3
3
3
3
3
3
3
3
3
3
3
3
3
3
3
3
3
3
3
3
3
3
3
3
3
3
3
3
</DataArray>
<DataArray NumberOfComponents='1' type='Float32' Name='Temperature' format='ascii'>
0.000000
0.000000
0.000000
0.000000
0.000000
0.000000
0.000000
0.000000
0.000000
0.000000
0.000000
0.000000
0.000000
0.000000
0.000000
0.000000
0.000000
0.000000
0.000000
0.000000
0.000000
0.000000
0.000000
0.000000
0.000000
0.000000
0.000000
0.000000
0.000000
0.000000
0.000000
0.000000
0.000000
0.000000
0.000000
0.000000
0.000000
0.000000
0.000000
0.000000
0.000000
0.000000
0.000000
0.000000
0.000000
0.000000
0.000000
0.000000
-0.223401
-0.403384
-0.588247
-0.770987
-0.951919
-1.130546
-1.306471
-1.479304
-1.648679
-1.814250
-1.975697
-2.132723
-2.285060
-2.432464
-2.574722
-2.711649
-2.843085
-2.968900
-3.088990
-3.203278
-3.311709
-3.414252
-3.510899
-3.601659
-3.686558
-3.765639
-3.838956
-3.906574
-3.968565
-4.025008
-4.075983
-4.121573
-4.161858
-4.196916
-4.226819
-4.251631
-4.271410
-4.286201
-4.295977
-4.302092
-3.000000
-3.000000
-3.000000
-3.000000
0.000000
0.000000
0.000000
0.000000
-0.217236
-0.392214
-0.571875
-0.749381
-0.925010
-1.098257
-1.268710
-1.435972
-1.599669
-1.759450
-1.914991
-2.065997
-2.212200
-2.353365
-2.489286
-2.619788
-2.744728
-2.863993
-2.977499
-3.085191
-3.187041
-3.283046
-3.373225
-3.457620
-3.536290
-3.609311
-3.676772
-3.738772
-3.795418
-3.846822
-3.893097
-3.934358
-3.970714
-4.002269
-4.029121
-4.051357
-4.069051
-4.082265
-4.090989
-4.096443
-3.000000
-3.000000
-3.000000
-3.000000
0.000000
0.000000
0.000000
0.000000
-0.213187
-0.384869
-0.561088
-0.735107
-0.907175
-1.076773
-1.243474
-1.406872
-1.566580
-1.722240
-1.873523
-2.020131
-2.161796
-2.298284
-2.429396
-2.554965
-2.674860
-2.788982
-2.897263
-2.999670
-3.096196
-3.186864
-3.271721
-3.350837
-3.424304
-3.492228
-3.554732
-3.611950
-3.664021
-3.711090
-3.753306
-3.790811
-3.823747
-3.852245
-3.876426
-3.896400
-3.912262
-3.924088
-3.931886
-3.936756
-3.000000
-3.000000
-3.000000
-3.000000
0.000000
0.000000
0.000000
0.000000
-0.210379
-0.379765
-0.553569
-0.725115
-0.894625
-1.061562
-1.225484
-1.385968
-1.542614
-1.695054
-1.842950
-1.985996
-2.123921
-2.256493
-2.383512
-2.504818
-2.620290
-2.729839
-2.833416
-2.931004
-3.022620
-3.108312
-3.188156
-3.262253
-3.330727
-3.393720
-3.451392
-3.503913
-3.551462
-3.594223
-3.632379
-3.666112
-3.695596
-3.720997
-3.742464
-3.760134
-3.774124
-3.784529
-3.791378
-3.795649
-3.000000
-3.000000
-3.000000
-3.000000
0.000000
0.000000
0.000000
0.000000
-0.208586
-0.376494
-0.548724
-0.718632
-0.886411
-1.051505
-1.213453
-1.371814
-1.526171
-1.676140
-1.821371
-1.961547
-2.096390
-2.225659
-2.349156
-2.466720
-2.578235
-2.683621
-2.782841
-2.875897
-2.962825
-3.043699
-3.118624
-3.187734
-3.251190
-3.309173
-3.361885
-3.409541
-3.452365
-3.490587
-3.524437
-3.554142
-3.579920
-3.601976
-3.620501
-3.635663
-3.647609
-3.656459
-3.662268
-3.665882
-3.000000
-3.000000
-3.000000
-3.000000
0.000000
0.000000
0.000000
0.000000
-0.207651
-0.374777
-0.546157
-0.715152
-0.881933
-1.045924
-1.206643
-1.363627
-1.516444
-1.664689
-1.807992
-1.946022
-2.078485
-2.205128
-2.325741
-2.440158
-2.548257
-2.649961
-2.745239
-2.834101
-2.916601
-2.992833
-3.062929
-3.127057
-3.185416
-3.238231
-3.285752
-3.328247
-3.365995
-3.399286
-3.428407
-3.453647
-3.475281
-3.493572
-3.508761
-3.521064
-3.530671
-3.537735
-3.542345
-3.545200
-3.000000
-3.000000
-3.000000
-3.000000
0.000000
0.000000
0.000000
0.000000
-0.207326
-0.374174
-0.545237
-0.713873
-0.880236
-1.043733
-1.203868
-1.360158
-1.512151
-1.659421
-1.801578
-1.938266
-2.069169
-2.194011
-2.312561
-2.424631
-2.530082
-2.628822
-2.720809
-2.806048
-2.884595
-2.956551
-3.022066
-3.081331
-3.134581
-3.182085
-3.224144
-3.261088
-3.293266
-3.321042
-3.344785
-3.364867
-3.381647
-3.395471
-3.406661
-3.415508
-3.422264
-3.427138
-3.430274
-3.432193
-3.000000
-3.000000
-3.000000
-3.000000
0.000000
0.000000
0.000000
0.000000
-0.207281
-0.374086
-0.545097
-0.713666
-0.879944
-1.043328
-1.203314
-1.359410
-1.511149
-1.658091
-1.799828
-1.935981
-2.066211
-2.190213
-2.307725
-2.418525
-2.522439
-2.619336
-2.709136
-2.791811
-2.867382
-2.935926
-2.997574
-3.052510
-3.100975
-3.143259
-3.179704
-3.210695
-3.236660
-3.258055
-3.275365
-3.289086
-3.299715
-3.307743
-3.313633
-3.317814
-3.320666
-3.322509
-3.323585
-3.324187
-3.000000
-3.000000
-3.000000
-3.000000
0.000000
0.000000
0.000000
0.000000
-0.207280
-0.374085
-0.545095
-0.713663
-0.879937
-1.043318
-1.203298
-1.359384
-1.511108
-1.658027
-1.799729
-1.935830
-2.065983
-2.189872
-2.307220
-2.417787
-2.521371
-2.617809
-2.706980
-2.788801
-2.863233
-2.930279
-2.989986
-3.042449
-3.087815
-3.126283
-3.158117
-3.183647
-3.203276
-3.217488
-3.226848
-3.232002
-3.233671
-3.232632
-3.229698
-3.225684
-3.221364
-3.217434
-3.214488
-3.212463
-3.000000
-3.000000
-3.000000
-3.000000
0.000000
0.000000
0.000000
0.000000
-0.207280
-0.374085
-0.545095
-0.713663
-0.879937
-1.043318
-1.203298
-1.359384
-1.511108
-1.658027
-1.799729
-1.935830
-2.065983
-2.189872
-2.307220
-2.417786
-2.521370
-2.617807
-2.706975
-2.788791
-2.863214
-2.930242
-2.989916
-3.042319
-3.087576
-3.125853
-3.157356
-3.182324
-3.201022
-3.213724
-3.220696
-3.222165
-3.218302
-3.209201
-3.194893
-3.175413
-3.150909
-3.122117
-3.089153
-3.055241
-3.000000
-3.000000
-3.000000
-3.000000
0.000000
0.000000
0.000000
0.000000
-0.209524
-0.378136
-0.551000
-0.721396
-0.889476
-1.054631
-1.216349
-1.374129
-1.527496
-1.676001
-1.819222
-1.956769
-2.088285
-2.213447
-2.331969
-2.443602
-2.548135
-2.645398
-2.735259
-2.817628
-2.892455
-2.959734
-3.019499
-3.071830
-3.116847
-3.154717
-3.185643
-3.209868
-3.227658
-3.239289
-3.245026
-3.245094
-3.239656
-3.228790
-3.212510
-3.190829
-3.163883
-3.132444
-3.096605
-3.059825
0.000000
0.000000
0.000000
0.000000
-0.213639
-0.385568
-0.561841
-0.735613
-0.907038
-1.075499
-1.240473
-1.401450
-1.557941
-1.709485
-1.855646
-1.996019
-2.130231
-2.257940
-2.378843
-2.492672
-2.599197
-2.698228
-2.789615
-2.873247
-2.949059
-3.017026
-3.077168
-3.129552
-3.174289
-3.211538
-3.241500
-3.264415
-3.280551
-3.290185
-3.293581
-3.290956
-3.282454
-3.268125
-3.247940
-3.221875
-3.190041
-3.153283
-3.111653
-3.069084
0.000000
0.000000
0.000000
0.000000
-0.217864
-0.393207
-0.573005
-0.750285
-0.925214
-1.097170
-1.265624
-1.430057
-1.589972
-1.744895
-1.894375
-2.037992
-2.175351
-2.306093
-2.429890
-2.546448
-2.655512
-2.756864
-2.850325
-2.935758
-3.013067
-3.082202
-3.143157
-3.195977
-3.240753
-3.277628
-3.306794
-3.328482
-3.342956
-3.350489
-3.351338
-3.345708
-3.333717
-3.315378
-3.290613
-3.259350
-3.221673
-3.178519
-3.129896
-3.080317
0.000000
0.000000
0.000000
0.000000
-0.221940
-0.400591
-0.583826
-0.764561
-0.942986
-1.118478
-1.290512
-1.458568
-1.622144
-1.780756
-1.933941
-2.081263
-2.222305
-2.356683
-2.484040
-2.604050
-2.716420
-2.820894
-2.917252
-3.005313
-3.084937
-3.156032
-3.218550
-3.272494
-3.317922
-3.354946
-3.383729
-3.404486
-3.417462
-3.422917
-3.421093
-3.412171
-3.396234
-3.373243
-3.343060
-3.305550
-3.260769
-3.209771
-3.152519
-3.094260
0.000000
0.000000
0.000000
0.000000
-0.225456
-0.406981
-0.593239
-0.777065
-0.958681
-1.137483
-1.312958
-1.484596
-1.651900
-1.814387
-1.971587
-2.123048
-2.268338
-2.407044
-2.538774
-2.663164
-2.779874
-2.888593
-2.989043
-3.080979
-3.164196
-3.238531
-3.303868
-3.360142
-3.407346
-3.445533
-3.474813
-3.495355
-3.507366
-3.511070
-3.506670
-3.494306
-3.474004
-3.445652
-3.409026
-3.363914
-3.310336
-3.249506
-3.181342
-3.112048
0.000000
0.000000
0.000000
0.000000
-0.227931
-0.411509
-0.599972
-0.786125
-0.970232
-1.151725
-1.330121
-1.504939
-1.675702
-1.841944
-2.003206
-2.159038
-2.308998
-2.452658
-2.589599
-2.719416
-2.841718
-2.956133
-3.062306
-3.159907
-3.248635
-3.328222
-3.398440
-3.459113
-3.510116
-3.551392
-3.582946
-3.604847
-3.617210
-3.620175
-3.613862
-3.598319
-3.573469
-3.539080
-3.494797
-3.440297
-3.375556
-3.302008
-3.219541
-3.135668
0.000000
0.000000
0.000000
0.000000
-0.229096
-0.413669
-0.603250
-0.790654
-0.976194
-1.159345
-1.339671
-1.516738
-1.690117
-1.859386
-2.024127
-2.183930
-2.338384
-2.487082
-2.629616
-2.765577
-2.894551
-3.016125
-3.129879
-3.235396
-3.332262
-3.420070
-3.498435
-3.566997
-3.625438
-3.673490
-3.710946
-3.737660
-3.753535
-3.758499
-3.752462
-3.735253
-3.706565
-3.665921
-3.612721
-3.546446
-3.466989
-3.376120
-3.273731
-3.169284
0.000000
0.000000
0.000000
0.000000
-0.229317
-0.414092
-0.603924
-0.791642
-0.977586
-1.161264
-1.342277
-1.520235
-1.694764
-1.865502
-2.032107
-2.194245
-2.351599
-2.503856
-2.650708
-2.791845
-2.926947
-3.055677
-3.177675
-3.292550
-3.399872
-3.499171
-3.589938
-3.671626
-3.743661
-3.805449
-3.856391
-3.895886
-3.923328
-3.938084
-3.939457
-3.926625
-3.898597
-3.854191
-3.792135
-3.711366
-3.611510
-3.494847
-3.361388
-3.224006
0.000000
0.000000
0.000000
0.000000
-0.229321
-0.414101
-0.603939
-0.791667
-0.977627
-1.161330
-1.342383
-1.520404
-1.695027
-1.865911
-2.032733
-2.195196
-2.353026
-2.505975
-2.653821
-2.796367
-2.933440
-3.064892
-3.190599
-3.310454
-3.424363
-3.532240
-3.633991
-3.729496
-3.818577
-3.900956
-3.976187
-4.043571
-4.102037
-4.150004
-4.185224
-4.204652
-4.204378
-4.179728
-4.125637
-4.037472
-3.912220
-3.751975
-3.556801
-3.348328
0.000000
0.000000
0.000000
0.000000
-0.229321
-0.414101
-0.603939
-0.791667
-0.977627
-1.161330
-1.342384
-1.520404
-1.695027
-1.865911
-2.032733
-2.195196
-2.353027
-2.505977
-2.653824
-2.796372
-2.933451
-3.064916
-3.190646
-3.310547
-3.424543
-3.532584
-3.634638
-3.730690
-3.820744
-3.904816
-3.982936
-4.055143
-4.121485
-4.182015
-4.236792
-4.285873
-4.329321
-4.367191
-4.399538
-4.426412
-4.447857
-4.463907
-4.474521
-4.481164
0.000000
0.000000
0.000000
0.000000
-0.229321
-0.414101
-0.603939
-0.791667
-0.977627
-1.161330
-1.342384
-1.520404
-1.695027
-1.865911
-2.032733
-2.195196
-2.353027
-2.505977
-2.653824
-2.796372
-2.933451
-3.064916
-3.190646
-3.310547
-3.424543
-3.532584
-3.634638
-3.730690
-3.820744
-3.904816
-3.982936
-4.055143
-4.121485
-4.182015
-4.236792
-4.285873
-4.329321
-4.367191
-4.399538
-4.426412
-4.447857
-4.463907
-4.474521
-4.481164
0.000000
0.000000
0.000000
0.000000
-0.229321
-0.414101
-0.603939
-0.791667
-0.977627
-1.161330
-1.342384
-1.520404
-1.695027
-1.865911
-2.032733
-2.195196
-2.353027
-2.505977
-2.653824
-2.796372
-2.933451
-3.064916
-3.190646
-3.310547
-3.424543
-3.532584
-3.634638
-3.730690
-3.820744
-3.904816
-3.982936
-4.055143
-4.121485
-4.182015
-4.236792
-4.285873
-4.329321
-4.367191
-4.399538
-4.426412
-4.447857
-4.463907
-4.474521
-4.481164
0.000000
0.000000
0.000000
0.000000
-0.229321
-0.414101
-0.603939
-0.791667
-0.977627
-1.161330
-1.342384
-1.520404
-1.695027
-1.865911
-2.032733
-2.195196
-2.353027
-2.505977
-2.653824
-2.796372
-2.933451
-3.064916
-3.190646
-3.310547
-3.424543
-3.532584
-3.634638
-3.730690
-3.820744
-3.904816
-3.982936
-4.055143
-4.121485
-4.182015
-4.236792
-4.285873
-4.329321
-4.367191
-4.399538
-4.426412
-4.447857
-4.463907
-4.474521
-4.481164
0.000000
0.000000
0.000000
0.000000
-0.229321
-0.414101
-0.603939
-0.791667
-0.977627
-1.161330
-1.342384
-1.520404
-1.695027
-1.865911
-2.032733
-2.195196
-2.353027
-2.505977
-2.653824
-2.796372
-2.933451
-3.064916
-3.190646
-3.310547
-3.424543
-3.532584
-3.634638
-3.730690
-3.820744
-3.904816
-3.982936
-4.055143
-4.121485
-4.182015
-4.236792
-4.285873
-4.329321
-4.367191
-4.399538
-4.426412
-4.447857
-4.463907
-4.474521
-4.481164
0.000000
0.000000
0.000000
0.000000
-0.229321
-0.414101
-0.603939
-0.791667
-0.977627
-1.161330
-1.342384
-1.520404
-1.695027
-1.865911
-2.032733
-2.195196
-2.353027
-2.505977
-2.653824
-2.796372
-2.933451
-3.064916
-3.190646
-3.310547
-3.424543
-3.532584
-3.634638
-3.730690
-3.820744
-3.904816
-3.982936
-4.055143
-4.121485
-4.182015
-4.236792
-4.285873
-4.329321
-4.367191
-4.399538
-4.426412
-4.447857
-4.463907
-4.474521
-4.481164
0.000000
0.000000
0.000000
0.000000
-0.229321
-0.414101
-0.603939
-0.791667
-0.977627
-1.161330
-1.342384
-1.520404
-1.695027
-1.865911
-2.032733
-2.195196
-2.353027
-2.505977
-2.653824
-2.796372
-2.933451
-3.064916
-3.190646
-3.310547
-3.424543
-3.532584
-3.634638
-3.730690
-3.820744
-3.904816
-3.982936
-4.055143
-4.121485
-4.182015
-4.236792
-4.285873
-4.329321
-4.367191
-4.399538
-4.426412
-4.447857
-4.463907
-4.474521
-4.481164
0.000000
0.000000
0.000000
0.000000
-0.229321
-0.414101
-0.603939
-0.791667
-0.977627
-1.161330
-1.342384
-1.520404
-1.695027
-1.865911
-2.032733
-2.195196
-2.353027
-2.505977
-2.653824
-2.796372
-2.933451
-3.064916
-3.190646
-3.310547
-3.424543
-3.532584
-3.634638
-3.730690
-3.820744
-3.904816
-3.982936
-4.055143
-4.121485
-4.182015
-4.236792
-4.285873
-4.329321
-4.367191
-4.399538
-4.426412
-4.447857
-4.463907
-4.474521
-4.481164
0.000000
0.000000
0.000000
0.000000
-0.229321
-0.414101
-0.603939
-0.791667
-0.977627
-1.161330
-1.342384
-1.520404
-1.695027
-1.865911
-2.032733
-2.195196
-2.353027
-2.505977
-2.653824
-2.796372
-2.933451
-3.064916
-3.190646
-3.310547
-3.424543
-3.532584
-3.634638
-3.730690
-3.820744
-3.904816
-3.982936
-4.055143
-4.121485
-4.182015
-4.236792
-4.285873
-4.329321
-4.367191
-4.399538
-4.426412
-4.447857
-4.463907
-4.474521
-4.481164
0.000000
0.000000
0.000000
0.000000
-0.229321
-0.414101
-0.603939
-0.791667
-0.977627
-1.161330
-1.342384
-1.520404
-1.695027
-1.865911
-2.032733
-2.195196
-2.353027
-2.505977
-2.653824
-2.796372
-2.933451
-3.064916
-3.190646
-3.310547
-3.424543
-3.532584
-3.634638
-3.730690
-3.820744
-3.904816
-3.982936
-4.055143
-4.121485
-4.182015
-4.236792
-4.285873
-4.329321
-4.367191
-4.399538
-4.426412
-4.447857
-4.463907
-4.474521
-4.481164
0.000000
0.000000
0.000000
0.000000
-0.229321
-0.414101
-0.603939
-0.791667
-0.977627
-1.161330
-1.342384
-1.520404
-1.695027
-1.865911
-2.032733
-2.195196
-2.353027
-2.505977
-2.653824
-2.796372
-2.933451
-3.064916
-3.190646
-3.310547
-3.424543
-3.532584
-3.634638
-3.730690
-3.820744
-3.904816
-3.982936
-4.055143
-4.121485
-4.182015
-4.236792
-4.285873
-4.329321
-4.367191
-4.399538
-4.426412
-4.447857
-4.463907
-4.474521
-4.481164
0.000000
0.000000
0.000000
0.000000
-0.229321
-0.414101
-0.603939
-0.791667
-0.977627
-1.161330
-1.342384
-1.520404
-1.695027
-1.865911
-2.032733
-2.195196
-2.353027
-2.505977
-2.653824
-2.796372
-2.933451
-3.064916
-3.190646
-3.310547
-3.424543
-3.532584
-3.634638
-3.730690
-3.820744
-3.904816
-3.982936
-4.055143
-4.121485
-4.182015
-4.236792
-4.285873
-4.329321
-4.367191
-4.399538
-4.426412
-4.447857
-4.463907
-4.474521
-4.481164
0.000000
0.000000
0.000000
0.000000
-0.229321
-0.414101
-0.603939
-0.791667
-0.977627
-1.161330
-1.342384
-1.520404
-1.695027
-1.865911
-2.032733
-2.195196
-2.353027
-2.505977
-2.653824
-2.796372
-2.933451
-3.064916
-3.190646
-3.310547
-3.424543
-3.532584
-3.634638
-3.730690
-3.820744
-3.904816
-3.982936
-4.055143
-4.121485
-4.182015
-4.236792
-4.285873
-4.329321
-4.367191
-4.399538
-4.426412
-4.447857
-4.463907
-4.474521
-4.481164
0.000000
0.000000
0.000000
0.000000
-0.229321
-0.414101
-0.603939
-0.791667
-0.977627
-1.161330
-1.342384
-1.520404
-1.695027
-1.865911
-2.032733
-2.195196
-2.353027
-2.505977
-2.653824
-2.796372
-2.933451
-3.064916
-3.190646
-3.310547
-3.424543
-3.532584
-3.634638
-3.730690
-3.820744
-3.904816
-3.982936
-4.055143
-4.121485
-4.182015
-4.236792
-4.285873
-4.329321
-4.367191
-4.399538
-4.426412
-4.447857
-4.463907
-4.474521
-4.481164
0.000000
0.000000
0.000000
0.000000
-0.229321
-0.414101
-0.603939
-0.791667
-0.977627
-1.161330
-1.342384
-1.520404
-1.695027
-1.865911
-2.032733
-2.195196
-2.353027
-2.505977
-2.653824
-2.796372
-2.933451
-3.064916
-3.190646
-3.310547
-3.424543
-3.532584
-3.634638
-3.730690
-3.820744
-3.904816
-3.982936
-4.055143
-4.121485
-4.182015
-4.236792
-4.285873
-4.329321
-4.367191
-4.399538
-4.426412
-4.447857
-4.463907
-4.474521
-4.481164
0.000000
0.000000
0.000000
0.000000
-0.229321
-0.414101
-0.603939
-0.791667
-0.977627
-1.161330
-1.342384
-1.520404
-1.695027
-1.865911
-2.032733
-2.195196
-2.353027
-2.505977
-2.653824
-2.796372
-2.933451
-3.064916
-3.190646
-3.310547
-3.424543
-3.532584
-3.634638
-3.730690
-3.820744
-3.904816
-3.982936
-4.055143
-4.121485
-4.182015
-4.236792
-4.285873
-4.329321
-4.367191
-4.399538
-4.426412
-4.447857