<?xml version='1.0' encoding='UTF-8'?>
<VTKFile xmlns='VTK' byte_order='LittleEndian' version='0.1' type='UnstructuredGrid'>
<UnstructuredGrid>
<Piece NumberOfCells='1816' NumberOfPoints='1816'>
<Points>
<DataArray NumberOfComponents='3' type='Float32' Name='Position' format='ascii'>
2.230000 0.400000 0.000000
2.230000 0.412500 0.000000
2.230000 0.425000 0.000000
2.230000 0.437500 0.000000
2.230000 0.450000 0.000000
2.230000 0.462500 0.000000
2.230000 0.475000 0.000000
2.230000 0.487500 0.000000
2.267500 0.400000 0.000000
2.267500 0.412500 0.000000
2.267500 0.425000 0.000000
2.267500 0.437500 0.000000
2.267500 0.450000 0.000000
2.267500 0.462500 0.000000
2.267500 0.475000 0.000000
2.267500 0.487500 0.000000
0.025000 0.000000 0.000000
0.025000 0.012500 0.000000
0.025000 0.025000 0.000000
0.025000 0.037500 0.000000
0.025000 0.050000 0.000000
0.025000 0.062500 0.000000
0.025000 0.075000 0.000000
0.025000 0.087500 0.000000
0.025000 0.100000 0.000000
0.025000 0.112500 0.000000
0.025000 0.125000 0.000000
0.025000 0.137500 0.000000
0.025000 0.150000 0.000000
0.025000 0.162500 0.000000
0.025000 0.175000 0.000000
0.025000 0.187500 0.000000
0.025000 0.200000 0.000000
0.025000 0.212500 0.000000
0.025000 0.225000 0.000000
0.025000 0.237500 0.000000
0.025000 0.250000 0.000000
0.025000 0.262500 0.000000
0.025000 0.275000 0.000000
0.025000 0.287500 0.000000
0.025000 0.300000 0.000000
0.025000 0.312500 0.000000
0.025000 0.325000 0.000000
0.025000 0.337500 0.000000
0.025000 0.350000 0.000000
0.025000 0.362500 0.000000
0.025000 0.375000 0.000000
0.025000 0.387500 0.000000
2.305000 0.400000 0.000000
2.305000 0.412500 0.000000
2.305000 0.425000 0.000000
2.305000 0.437500 0.000000
2.305000 0.450000 0.000000
2.305000 0.462500 0.000000
2.305000 0.475000 0.000000
2.305000 0.487500 0.000000
0.062500 0.000000 0.000000
0.062500 0.012500 0.000000
0.062500 0.025000 0.000000
0.062500 0.037500 0.000000
0.062500 0.050000 0.000000
0.062500 0.062500 0.000000
0.062500 0.075000 0.000000
0.062500 0.087500 0.000000
0.062500 0.100000 0.000000
0.062500 0.112500 0.000000
0.062500 0.125000 0.000000
0.062500 0.137500 0.000000
0.062500 0.150000 0.000000
0.062500 0.162500 0.000000
0.062500 0.175000 0.000000
0.062500 0.187500 0.000000
0.062500 0.200000 0.000000
0.062500 0.212500 0.000000
0.062500 0.225000 0.000000
0.062500 0.237500 0.000000
0.062500 0.250000 0.000000
0.062500 0.262500 0.000000
0.062500 0.275000 0.000000
0.062500 0.287500 0.000000
0.062500 0.300000 0.000000
0.062500 0.312500 0.000000
0.062500 0.325000 0.000000
0.062500 0.337500 0.000000
0.062500 0.350000 0.000000
0.062500 0.362500 0.000000
0.062500 0.375000 0.000000
0.062500 0.387500 0.000000
2.342500 0.400000 0.000000
2.342500 0.412500 0.000000
2.342500 0.425000 0.000000
2.342500 0.437500 0.000000
2.342500 0.450000 0.000000
2.342500 0.462500 0.000000
2.342500 0.475000 0.000000
2.342500 0.487500 0.000000
0.100000 0.000000 0.000000
0.100000 0.012500 0.000000
0.100000 0.025000 0.000000
0.100000 0.037500 0.000000
0.100000 0.050000 0.000000
0.100000 0.062500 0.000000
0.100000 0.075000 0.000000
0.100000 0.087500 0.000000
0.100000 0.100000 0.000000
0.100000 0.112500 0.000000
0.100000 0.125000 0.000000
0.100000 0.137500 0.000000
0.100000 0.150000 0.000000
0.100000 0.162500 0.000000
0.100000 0.175000 0.000000
0.100000 0.187500 0.000000
0.100000 0.200000 0.000000
0.100000 0.212500 0.000000
0.100000 0.225000 0.000000
0.100000 0.237500 0.000000
0.100000 0.250000 0.000000
0.100000 0.262500 0.000000
0.100000 0.275000 0.000000
0.100000 0.287500 0.000000
0.100000 0.300000 0.000000
0.100000 0.312500 0.000000
0.100000 0.325000 0.000000
0.100000 0.337500 0.000000
0.100000 0.350000 0.000000
0.100000 0.362500 0.000000
0.100000 0.375000 0.000000
0.100000 0.387500 0.000000
2.380000 0.400000 0.000000
2.380000 0.412500 0.000000
2.380000 0.425000 0.000000
2.380000 0.437500 0.000000
2.380000 0.450000 0.000000
2.380000 0.462500 0.000000
2.380000 0.475000 0.000000
2.380000 0.487500 0.000000
0.137500 0.000000 0.000000
0.137500 0.012500 0.000000
0.137500 0.025000 0.000000
0.137500 0.037500 0.000000
0.137500 0.050000 0.000000
0.137500 0.062500 0.000000
0.137500 0.075000 0.000000
0.137500 0.087500 0.000000
0.137500 0.100000 0.000000
0.137500 0.112500 0.000000
0.137500 0.125000 0.000000
0.137500 0.137500 0.000000
0.137500 0.150000 0.000000
0.137500 0.162500 0.000000
0.137500 0.175000 0.000000
0.137500 0.187500 0.000000
0.137500 0.200000 0.000000
0.137500 0.212500 0.000000
0.137500 0.225000 0.000000
0.137500 0.237500 0.000000
0.137500 0.250000 0.000000
0.137500 0.262500 0.000000
0.137500 0.275000 0.000000
0.137500 0.287500 0.000000
0.137500 0.300000 0.000000
0.137500 0.312500 0.000000
0.137500 0.325000 0.000000
0.137500 0.337500 0.000000
0.137500 0.350000 0.000000
0.137500 0.362500 0.000000
0.137500 0.375000 0.000000
0.137500 0.387500 0.000000
2.417500 0.400000 0.000000
2.417500 0.412500 0.000000
2.417500 0.425000 0.000000
2.417500 0.437500 0.000000
2.417500 0.450000 0.000000
2.417500 0.462500 0.000000
2.417500 0.475000 0.000000
2.417500 0.487500 0.000000
0.175000 0.000000 0.000000
0.175000 0.012500 0.000000
0.175000 0.025000 0.000000
0.175000 0.037500 0.000000
0.175000 0.050000 0.000000
0.175000 0.062500 0.000000
0.175000 0.075000 0.000000
0.175000 0.087500 0.000000
0.175000 0.100000 0.000000
0.175000 0.112500 0.000000
0.175000 0.125000 0.000000
0.175000 0.137500 0.000000
0.175000 0.150000 0.000000
0.175000 0.162500 0.000000
0.175000 0.175000 0.000000
0.175000 0.187500 0.000000
0.175000 0.200000 0.000000
0.175000 0.212500 0.000000
0.175000 0.225000 0.000000
0.175000 0.237500 0.000000
0.175000 0.250000 0.000000
0.175000 0.262500 0.000000
0.175000 0.275000 0.000000
0.175000 0.287500 0.000000
0.175000 0.300000 0.000000
0.175000 0.312500 0.000000
0.175000 0.325000 0.000000
0.175000 0.337500 0.000000
0.175000 0.350000 0.000000
0.175000 0.362500 0.000000
0.175000 0.375000 0.000000
0.175000 0.387500 0.000000
2.455000 0.400000 0.000000
2.455000 0.412500 0.000000
2.455000 0.425000 0.000000
2.455000 0.437500 0.000000
2.455000 0.450000 0.000000
2.455000 0.462500 0.000000
2.455000 0.475000 0.000000
2.455000 0.487500 0.000000
0.212500 0.000000 0.000000
0.212500 0.012500 0.000000
0.212500 0.025000 0.000000
0.212500 0.037500 0.000000
0.212500 0.050000 0.000000
0.212500 0.062500 0.000000
0.212500 0.075000 0.000000
0.212500 0.087500 0.000000
0.212500 0.100000 0.000000
0.212500 0.112500 0.000000
0.212500 0.125000 0.000000
0.212500 0.137500 0.000000
0.212500 0.150000 0.000000
0.212500 0.162500 0.000000
0.212500 0.175000 0.000000
0.212500 0.187500 0.000000
0.212500 0.200000 0.000000
0.212500 0.212500 0.000000
0.212500 0.225000 0.000000
0.212500 0.237500 0.000000
0.212500 0.250000 0.000000
0.212500 0.262500 0.000000
0.212500 0.275000 0.000000
0.212500 0.287500 0.000000
0.212500 0.300000 0.000000
0.212500 0.312500 0.000000
0.212500 0.325000 0.000000
0.212500 0.337500 0.000000
0.212500 0.350000 0.000000
0.212500 0.362500 0.000000
0.212500 0.375000 0.000000
0.212500 0.387500 0.000000
2.492500 0.400000 0.000000
2.492500 0.412500 0.000000
2.492500 0.425000 0.000000
2.492500 0.437500 0.000000
2.492500 0.450000 0.000000
2.492500 0.462500 0.000000
2.492500 0.475000 0.000000
2.492500 0.487500 0.000000
0.250000 0.000000 0.000000
0.250000 0.012500 0.000000
0.250000 0.025000 0.000000
0.250000 0.037500 0.000000
0.250000 0.050000 0.000000
0.250000 0.062500 0.000000
0.250000 0.075000 0.000000
0.250000 0.087500 0.000000
0.250000 0.100000 0.000000
0.250000 0.112500 0.000000
0.250000 0.125000 0.000000
0.250000 0.137500 0.000000
0.250000 0.150000 0.000000
0.250000 0.162500 0.000000
0.250000 0.175000 0.000000
0.250000 0.187500 0.000000
0.250000 0.200000 0.000000
0.250000 0.212500 0.000000
0.250000 0.225000 0.000000
0.250000 0.237500 0.000000
0.250000 0.250000 0.000000
0.250000 0.262500 0.000000
0.250000 0.275000 0.000000
0.250000 0.287500 0.000000
0.250000 0.300000 0.000000
0.250000 0.312500 0.000000
0.250000 0.325000 0.000000
0.250000 0.337500 0.000000
0.250000 0.350000 0.000000
0.250000 0.362500 0.000000
0.250000 0.375000 0.000000
0.250000 0.387500 0.000000
2.530000 0.400000 0.000000
2.530000 0.412500 0.000000
2.530000 0.425000 0.000000
2.530000 0.437500 0.000000
2.530000 0.450000 0.000000
2.530000 0.462500 0.000000
2.530000 0.475000 0.000000
2.530000 0.487500 0.000000
0.287500 0.000000 0.000000
0.287500 0.012500 0.000000
0.287500 0.025000 0.000000
0.287500 0.037500 0.000000
0.287500 0.050000 0.000000
0.287500 0.062500 0.000000
0.287500 0.075000 0.000000
0.287500 0.087500 0.000000
0.287500 0.100000 0.000000
0.287500 0.112500 0.000000
0.287500 0.125000 0.000000
0.287500 0.137500 0.000000
0.287500 0.150000 0.000000
0.287500 0.162500 0.000000
0.287500 0.175000 0.000000
0.287500 0.187500 0.000000
0.287500 0.200000 0.000000
0.287500 0.212500 0.000000
0.287500 0.225000 0.000000
0.287500 0.237500 0.000000
0.287500 0.250000 0.000000
0.287500 0.262500 0.000000
0.287500 0.275000 0.000000
0.287500 0.287500 0.000000
0.287500 0.300000 0.000000
0.287500 0.312500 0.000000
0.287500 0.325000 0.000000
0.287500 0.337500 0.000000
0.287500 0.350000 0.000000
0.287500 0.362500 0.000000
0.287500 0.375000 0.000000
0.287500 0.387500 0.000000
2.567500 0.400000 0.000000
2.567500 0.412500 0.000000
2.567500 0.425000 0.000000
2.567500 0.437500 0.000000
2.567500 0.450000 0.000000
2.567500 0.462500 0.000000
2.567500 0.475000 0.000000
2.567500 0.487500 0.000000
0.325000 0.000000 0.000000
0.325000 0.012500 0.000000
0.325000 0.025000 0.000000
0.325000 0.037500 0.000000
0.325000 0.050000 0.000000
0.325000 0.062500 0.000000
0.325000 0.075000 0.000000
0.325000 0.087500 0.000000
0.325000 0.100000 0.000000
0.325000 0.112500 0.000000
0.325000 0.125000 0.000000
0.325000 0.137500 0.000000
0.325000 0.150000 0.000000
0.325000 0.162500 0.000000
0.325000 0.175000 0.000000
0.325000 0.187500 0.000000
0.325000 0.200000 0.000000
0.325000 0.212500 0.000000
0.325000 0.225000 0.000000
0.325000 0.237500 0.000000
0.325000 0.250000 0.000000
0.325000 0.262500 0.000000
0.325000 0.275000 0.000000
[...]
<PointData>
<DataArray NumberOfComponents='1' type='Int32' Name='ParticleType' format='ascii'>
5
5
5
5
5
5
5
5
5
5
5
5
5
5
5
5
2
2
2
2
2
2
2
2
2
2
2
2
2
2
2
2
2
2
2
2
2
2
2
2
1
1
0
0
0
0
0
0
5
5
5
5
5
5
5
5
2
2
2
2
2
2
2
2
2
2
2
2
2
2
2
2
2
2
2
2
2
2
2
1
1
0
0
0
0
0
0
0
5
5
5
5
5
5
5
5
2
2
2
2
2
2
2
2
2
2
2
2
2
2
2
2
2
2
2
2
2
2
2
1
1
0
0
0
0
0
0
0
5
5
5
5
5
5
5
5
2
2
2
2
2
2
2
2
2
2
2
2
2
2
2
2
2
2
2
2
2
2
2
1
0
0
0
0
0
0
0
0
5
5
5
5
5
5
5
5
2
2
2
2
2
2
2
2
2
2
2
2
2
2
2
2
2
2
2
2
2
2
1
1
0
0
0
0
0
0
0
0
5
5
5
5
5
5
5
5
2
2
2
2
2
2
2
2
2
2
2
2
2
2
2
2
2
2
2
2
2
2
1
1
0
0
0
0
0
0
0
0
5
5
5
5
5
5
5
5
2
2
2
2
2
2
2
2
2
2
2
2
2
2
2
2
2
2
2
2
2
2
1
1
0
0
0
0
0
0
0
0
5
5
5
5
5
5
5
5
2
2
2
2
2
2
2
2
2
2
2
2
2
2
2
2
2
2
2
2
2
2
1
1
0
0
0
0
0
0
0
0
5
5
5
5
5
5
5
5
2
2
2
2
2
2
2
2
2
2
2
2
2
2
2
2
2
2
2
2
2
2
1
1
0
0
0
0
0
0
0
0
5
5
5
5
5
5
5
5
2
2
2
2
2
2
2
2
2
2
2
2
2
2
2
2
2
2
2
2
2
2
1
1
0
0
0
0
0
0
0
0
5
5
5
5
5
5
5
5
2
2
2
2
2
2
2
2
2
2
2
2
2
2
2
2
2
2
2
2
2
1
1
0
0
0
0
0
0
0
0
0
5
5
5
5
5
5
5
5
2
2
2
2
2
2
2
2
2
2
2
2
2
2
2
2
2
2
2
2
2
1
1
0
0
0
0
0
0
0
0
0
5
5
5
5
5
5
5
5
2
2
2
2
2
2
2
2
2
2
2
2
2
2
2
2
2
2
2
2
2
1
1
0
0
0
0
0
0
0
0
0
5
5
5
5
5
5
5
5
2
2
2
2
2
2
2
2
2
2
2
2
2
2
2
2
2
2
2
2
2
1
1
0
0
0
0
0
0
0
0
0
2
2
2
2
2
2
2
2
2
2
2
2
2
2
2
2
2
2
2
2
2
1
1
0
0
0
0
0
0
0
0
0
2
2
2
2
2
2
2
2
2
2
2
2
2
2
2
2
2
2
2
2
2
1
1
0
0
0
0
0
0
0
0
0
2
2
2
2
2
2
2
2
2
2
2
2
2
2
2
2
2
2
2
2
2
1
1
0
0
0
0
0
0
0
0
0
2
2
2
2
2
2
2
2
2
2
2
2
2
2
2
2
2
2
2
2
2
2
1
0
0
0
0
0
0
0
0
0
2
2
2
2
2
2
2
2
2
2
2
2
2
2
2
2
2
2
2
2
2
2
1
0
0
0
0
0
0
0
0
0
2
2
2
2
2
2
2
2
2
2
2
2
2
2
2
2
2
2
2
2
2
2
1
1
0
0
0
0
0
0
0
0
2
2
2
2
2
2
2
2
2
2
2
2
2
2
2
2
2
2
2
2
2
2
1
1
0
0
0
0
0
0
0
0
2
2
2
2
2
2
2
2
2
2
2
2
2
2
2
2
2
2
2
2
2
2
1
1
0
0
0
0
0
0
0
0
2
2
2
2
2
2
2
2
2
2
2
2
2
2
2
2
2
2
2
2
2
2
1
1
0
0
0
0
0
0
0
0
2
2
2
2
2
2
2
2
2
2
2
2
2
2
2
2
2
2
2
2
2
2
1
1
0
0
0
0
0
0
0
0
2
2
2
2
2
2
2
2
2
2
2
2
2
2
2
2
2
2
2
2
2
2
1
1
0
0
0
0
0
0
0
0
2
2
2
2
2
2
2
2
2
2
2
2
2
2
2
2
2
2
2
2
2
2
1
1
0
0
0
0
0
0
0
0
2
2
2
2
2
2
2
2
2
2
2
2
2
2
2
2
2
2
2
2
2
2
1
1
0
0
0
0
0
0
0
0
2
2
2
2
2
2
2
2
2
2
2
2
2
2
2
2
2
2
2
2
2
2
1
1
0
0
0
0
0
0
0
0
2
2
2
2
2
2
2
2
2
2
2
2
2
2
2
2
2
2
2
2
2
2
2
1
0
0
0
0
0
0
0
0
2
2
2
2
2
2
2
2
2
2
2
2
2
2
2
2
2
2
2
2
2
2
1
1
0
0
0
0
0
0
0
0
2
2
2
2
2
2
2
2
2
2
2
2
2
2
2
2
2
2
2
2
2
2
2
1
1
0
0
0
0
0
0
0
2
2
2
2
2
2
2
2
2
2
2
2
2
2
2
2
2
2
2
2
2
2
1
1
0
0
0
0
0
0
0
0
2
2
2
2
2
2
2
2
2
2
2
2
2
2
2
2
2
2
2
2
2
2
2
1
1
0
0
0
0
0
0
0
2
2
2
2
2
2
2
2
2
2
2
2
2
2
2
2
2
2
2
2
2
2
2
1
0
0
0
0
0
0
0
0
2
2
2
2
2
2
2
2
2
2
2
2
2
2
2
2
2
2
2
2
2
2
2
1
1
0
0
0
0
0
0
0
2
2
2
2
2
2
2
2
2
2
2
2
2
2
2
2
2
2
2
2
2
2
2
1
1
0
0
0
0
0
0
0
2
2
2
2
2
2
2
2
2
2
2
2
2
2
2
2
2
2
2
2
2
2
2
1
1
0
0
0
0
0
0
0
2
2
2
2
2
2
2
2
2
2
2
2
2
2
2
2
2
2
2
2
2
2
2
1
1
0
0
0
0
0
0
0
2
2
2
2
2
2
2
2
2
2
2
2
2
2
2
2
2
2
2
2
2
2
2
1
1
0
0
0
0
0
0
0
2
2
2
2
2
2
2
2
2
2
2
2
2
2
2
2
2
2
2
2
2
2
2
1
1
0
0
0
0
0
0
0
2
2
2
2
2
2
2
2
2
2
2
2
2
2
2
2
2
2
2
2
2
2
2
1
1
0
0
0
0
0
0
0
2
2
2
2
2
2
2
2
2
2
2
2
2
2
2
2
2
2
2
2
2
2
2
1
1
0
0
0
0
0
0
0
2
2
2
2
2
2
2
2
2
2
2
2
2
2
2
2
2
2
2
2
2
2
2
2
1
0
0
0
0
0
0
0
2
2
2
2
2
2
2
2
2
2
2
2
2
2
2
2
2
2
2
2
2
2
2
2
1
1
0
0
0
0
0
0
2
2
2
2
2
2
2
2
2
2
2
2
2
2
2
2
2
2
2
2
2
2
2
2
1
1
0
0
0
0
0
0
2
2
2
2
2
2
2
2
2
2
2
2
2
2
2
2
2
2
2
2
2
2
2
2
1
1
0
0
0
0
0
0
2
2
2
2
2
2
2
2
2
2
2
2
2
2
2
2
2
2
2
2
2
2
2
2
1
1
0
0
0
0
0
0
2
2
2
2
2
2
2
2
2
2
2
2
2
2
2
2
2
2
2
2
2
2
2
2
1
1
0
0
0
0
0
0
2
2
2
2
2
2
2
2
2
2
2
2
2
2
2
2
2
2
2
2
2
2
2
2
1
1
0
0
0
0
0
0
2
2
2
2
2
2
2
2
2
2
2
2
2
2
2
2
2
2
2
2
2
2
2
2
1
1
0
0
0
0
0
0
2
2
2
2
2
2
2
2
2
2
2
2
2
2
2
2
2
2
2
2
2
2
2
2
1
1
0
0
0
0
0
0
2
2
2
2
2
2
2
2
2
2
2
2
2
2
2
2
2
2
2
2
2
2
2
2
1
1
0
0
0
0
0
0
2
2
2
2
2
2
2
2
2
2
2
2
2
2
2
2
2
2
2
2
2
2
2
2
2
1
1
0
0
0
0
0
</DataArray>
<DataArray NumberOfComponents='1' type='Float32' Name='Temperature' format='ascii'>
-3.000000
-3.000000
-3.000000
-3.000000
-3.000000
-3.000000
-3.000000
-3.000000
-3.000000
-3.000000
-3.000000
-3.000000
-3.000000
-3.000000
-3.000000
-3.000000
-4.806237
-4.793852
-4.773957
-4.743436
-4.701746
-4.648029
-4.581243
-4.500192
-4.403556
-4.289919
-4.157811
-4.005755
-3.832315
-3.636162
-3.416141
-3.171358
-2.901270
-2.605799
-2.285442
-1.941390
-1.575662
-1.190803
-0.793212
-0.368983
-0.004970
0.005681
12.814845
25.272819
39.323450
53.010520
63.994226
72.079956
-3.000000
-3.000000
-3.000000
-3.000000
-3.000000
-3.000000
-3.000000
-3.000000
-4.799369
-4.786475
-4.765755
-4.733959
-4.690510
-4.634503
-4.564839
-4.480261
-4.379383
-4.260721
-4.122732
-3.963844
-3.782488
-3.577117
-3.346223
-3.088364
-2.802204
-2.486620
-2.140894
-1.765038
-1.359980
-0.929604
-0.470197
-0.006387
0.002383
9.809609
23.969804
41.706367
61.429368
80.576794
95.932176
107.255839
-3.000000
-3.000000
-3.000000
-3.000000
-3.000000
-3.000000
-3.000000
-3.000000
-4.795047
-4.781841
-4.760620
-4.728051
-4.683541
-4.626154
-4.554757
-4.468048
-4.364586
-4.242824
-4.101142
-3.937892
-3.751436
-3.540197
-3.302720
-3.037757
-2.744369
-2.422075
-2.071027
-1.692246
-1.287373
-0.862633
-0.401006
-0.004035
0.002769
14.726242
32.699917
55.428072
80.818677
105.638311
125.627117
140.416743
-3.000000
-3.000000
-3.000000
-3.000000
-3.000000
-3.000000
-3.000000
-3.000000
-4.789648
-4.775970
-4.753980
-4.720213
-4.674032
-4.614441
-4.540228
-4.450005
-4.342236
-4.215285
-4.067462
-3.897091
-3.702575
-3.482482
-3.235633
-2.961200
-2.658789
-2.328449
-1.970450
-1.584510
-1.166219
-0.714701
-0.098011
-0.005280
3.124304
22.711476
45.093743
72.572775
102.970523
132.777875
156.883194
174.797894
-3.000000
-3.000000
-3.000000
-3.000000
-3.000000
-3.000000
-3.000000
-3.000000
-4.785981
-4.771957
-4.749403
-4.714755
-4.667345
-4.606130
-4.529846
-4.437043
-4.326119
-4.195355
-4.042959
-3.867095
-3.665919
-3.437599
-3.180342
-2.892445
-2.572398
-2.219089
-1.832166
-1.412207
-0.963586
-0.478109
-0.006389
-0.000016
12.155148
30.916081
56.305981
87.763178
122.898527
157.558049
185.712013
206.717590
-3.000000
-3.000000
-3.000000
-3.000000
-3.000000
-3.000000
-3.000000
-3.000000
-4.784876
-4.770782
-4.748114
-4.713292
-4.665639
-4.604109
-4.527430
-4.434147
-4.322657
-4.191249
-4.038150
-3.861565
-3.659708
-3.430829
-3.173224
-2.885259
-2.565438
-2.212572
-1.826132
-1.406436
-0.957905
-0.470453
-0.005962
0.001736
12.949271
34.728879
63.952150
100.221197
140.807930
180.933319
213.581591
237.977240
-3.000000
-3.000000
-3.000000
-3.000000
-3.000000
-3.000000
-3.000000
-3.000000
-4.783141
-4.768930
-4.746078
-4.710975
-4.662946
-4.600942
-4.523686
-4.429716
-4.317418
-4.185062
-4.030842
-3.852921
-3.649458
-3.418648
-3.158759
-2.868190
-2.545589
-2.190046
-1.801440
-1.380412
-0.932513
-0.440993
-0.004787
0.001376
15.504766
39.604227
72.337477
113.030563
158.624088
203.736797
240.481178
267.977347
-3.000000
-3.000000
-3.000000
-3.000000
-3.000000
-3.000000
-3.000000
-3.000000
-4.781285
-4.766930
-4.743844
-4.708382
-4.659860
-4.597212
-4.519141
-4.424155
-4.310595
-4.176671
-4.020505
-3.840172
-3.633753
-3.399398
-3.135409
-2.840353
-2.513226
-2.153651
-1.762184
-1.339952
-0.894254
-0.398318
-0.008230
0.003387
19.188897
45.241076
81.162565
126.031591
176.527985
226.626396
267.514697
298.175372
-3.000000
-3.000000
-3.000000
-3.000000
-3.000000
-3.000000
-3.000000
-3.000000
-4.779746
-4.765221
-4.741853
-4.705939
-4.656760
-4.593199
-4.513889
-4.417246
-4.301502
-4.164745
-4.004970
-3.820152
-3.608329
-3.367709
-3.096797
-2.794548
-2.460525
-2.095057
-1.699472
-1.275338
-0.832238
-0.329213
-0.002842
0.007615
24.494913
52.252772
90.552899
138.714273
193.440317
248.081886
292.859399
326.546105
-3.000000
-3.000000
-3.000000
-3.000000
-3.000000
-3.000000
-3.000000
-3.000000
-4.778257
-4.763588
-4.739991
-4.703730
-4.654088
-4.589954
-4.509969
-4.412570
-4.296018
-4.158440
-3.997885
-3.812382
-3.600026
-3.359072
-3.088054
-2.785924
-2.452201
-2.087120
-1.691861
-1.267721
-0.824525
-0.317321
-0.005141
0.007435
25.927423
56.468160
98.347372
150.780795
210.259310
269.711541
318.525909
355.340321
-3.000000
-3.000000
-3.000000
-3.000000
-3.000000
-3.000000
-3.000000
-3.000000
-4.776659
-4.761813
-4.737928
-4.701216
-4.650945
-4.585977
-4.504928
-4.406205
-4.288041
-4.148546
-3.985761
-3.797732
-3.582598
-3.338687
-3.064614
-2.759355
-2.422173
-2.052162
-1.646962
-1.197806
-0.701167
-0.008490
-0.001686
4.548444
29.444247
62.076026
106.683549
162.605017
226.271346
290.152310
342.769008
382.573000
-3.000000
-3.000000
-3.000000
-3.000000
-3.000000
-3.000000
-3.000000
-3.000000
-4.775621
-4.760696
-4.736679
-4.699758
-4.649185
-4.583803
-4.502202
-4.402761
-4.283683
-4.143047
-3.978872
-3.789199
-3.572177
-3.326172
-3.049874
-2.742378
-2.403157
-2.031707
-1.626447
-1.179915
-0.689990
-0.009370
-0.001923
4.443478
32.026492
66.497163
113.652837
173.110724
241.242065
309.935605
366.706152
409.779021
-3.000000
-3.000000
-3.000000
-3.000000
-3.000000
-3.000000
-3.000000
-3.000000
-4.770986
-4.755859
-4.731526
-4.694141
-4.642970
-4.576876
-4.494471
-4.394160
-4.274174
-4.132613
-3.967498
-3.776812
-3.558534
-3.310633
-3.031013
-2.717404
-2.367268
-1.977896
-1.546835
-1.074418
-0.557952
-0.008857
-0.003541
10.541835
34.777795
70.652476
120.478586
183.589798
255.939096
328.961090
389.407149
435.376376
-3.000000
-3.000000
-3.000000
-3.000000
-3.000000
-3.000000
-3.000000
-3.000000
-4.767640
-4.752353
-4.727761
-4.689971
-4.638239
-4.571407
-4.488063
-4.386584
-4.265163
-4.121860
-3.954636
-3.761393
-3.539995
-3.288269
-3.003992
-2.684902
-2.328808
-1.933951
-1.499385
-1.028428
-0.512089
-0.005211
-0.000760
13.280948
38.775613
76.222108
128.176746
194.209694
270.189329
347.094228
410.890845
459.516818
-4.777208
-4.762325
-4.738377
-4.701563
-4.651140
-4.585954
-4.504598
-4.405447
-4.286689
-4.146371
-3.982436
-3.792773
-3.575238
-3.327652
-3.047749
-2.733089
-2.381008
-1.988785
-1.554093
-1.077746
-0.555954
-0.008099
0.000954
11.113669
36.047577
73.378698
125.757624
192.770181
270.271349
349.103145
414.777679
465.061893
-4.794556
-4.780369
-4.757520
-4.722358
-4.674129
-4.611674
-4.533575
-4.438189
-4.323680
-4.188057
-4.029228
-3.845061
-3.633462
-3.392471
-3.120355
-2.815701
-2.477388
-2.104227
-1.693791
-1.237360
-0.731361
-0.004347
-0.004833
4.537532
30.623042
67.456589
119.813979
187.530602
266.562839
347.578477
415.477286
467.763731
-4.803746
-4.789771
-4.767240
-4.732528
-4.684840
-4.622969
-4.545433
-4.450512
-4.336278
-4.200643
-4.041414
-3.856369
-3.643352
-3.400377
-3.125753
-2.818175
-2.476704
-2.100364
-1.686905
-1.227655
-0.719393
-0.006016
-0.004102
4.735671
32.724252
69.819316
122.291028
190.299457
270.110331
352.395511
421.708380
475.376823
-4.818820
-4.805392
-4.783715
-4.750257
-4.704187
-4.644246
-4.568887
-4.476307
-4.364478
-4.231192
-4.074124
-3.890908
-3.679246
-3.437023
-3.162464
-2.854295
-2.511913
-2.135541
-1.726464
-1.285926
-0.825336
-0.283466
-0.004977
0.515906
31.201037
67.118885
118.579568
186.373798
267.116122
351.325901
422.843394
478.627986
-4.827793
-4.814696
-4.793539
-4.760866
-4.715842
-4.657212
-4.583432
-4.492698
-4.382979
-4.252052
-4.097557
-3.917069
-3.708188
-3.468654
-3.196485
-2.890133
-2.548604
-2.171404
-1.758006
-1.304196
-0.810385
-0.126750
-0.005846
3.377058
29.982294
66.089687
118.335593
187.323205
269.567628
355.582517
428.897693
486.367437
-4.842155
-4.829663
-4.809456
-4.778193
-4.735006
-4.678602
-4.607383
-4.519475
-4.412752
-4.284875
-4.133342
-3.955565
-3.748959
-3.511071
-3.239734
-2.933254
-2.590621
-2.211712
-1.797581
-1.349578
-0.878566
-0.335045
-0.005672
0.008556
28.547567
63.260306
114.332505
183.041190
266.274328
354.396021
430.160285
490.021007
-4.850378
-4.838208
-4.818508
-4.788009
-4.745843
-4.690722
-4.621055
-4.534978
-4.430376
-4.304916
-4.156094
-3.981291
-3.777854
-3.543203
-3.274968
-2.971173
-2.630454
-2.252296
-1.837369
-1.386811
-0.910708
-0.364523
-0.006796
0.009518
26.890234
62.030127
113.999296
183.928322
268.673014
358.669212
436.368103
498.113020
-4.863819
-4.852283
-4.833581
-4.804568
-4.764349
-4.711604
-4.644694
-4.561689
-4.460383
-4.338328
-4.192872
-4.021219
-3.820509
-3.587937
-3.320896
-3.017189
-2.675263
-2.294487
-1.875511
-1.419634
-0.936745
-0.386128
-0.006452
0.006763
25.676372
59.156638
109.747498
179.299355
265.072443
357.361373
437.776076
502.227637
-4.871299
-4.860074
-4.841860
-4.813582
-4.774343
-4.722825
-4.657398
-4.576146
-4.476884
-4.357190
-4.214441
-4.045860
-3.848577
-3.619714
-3.356500
-3.056449
-2.717582
-2.338730
-1.919949
-1.462105
-0.973968
-0.420670
-0.007558
0.008020
23.619688
57.765637
109.346140
180.129600
267.404949
361.633521
444.135784
510.710027
-4.883765
-4.873198
-4.856022
-4.829296
-4.792103
-4.743099
-4.680617
-4.602682
-4.507024
-4.391111
-4.252169
-4.087235
-3.893214
-3.666965
-3.405436
-3.105849
-2.765969
-2.384433
-1.961220
-1.497331
-1.001423
-0.442200
-0.007159
0.004799
22.554215
54.816876
104.820521
175.117185
263.458781
360.181214
445.697842
515.347765
-4.890531
-4.880264
-4.863559
-4.837541
-4.801286
-4.753453
-4.692377
-4.616092
-4.522352
-4.408657
-4.272290
-4.110356
-3.919828
-3.697605
-3.440582
-3.145770
-2.810486
-2.432666
-2.011365
-1.546754
-1.045787
-0.484325
-0.008226
0.006430
19.976873
53.280568
104.376082
175.896796
265.707952
364.429041
452.204797
524.265514
-4.901986
-4.892395
-4.876761
-4.852351
-4.818228
-4.773037
-4.715084
-4.642357
-4.552537
-4.443020
-4.310946
-4.153229
-3.966603
-3.747674
-3.493000
-3.199226
-2.863308
-2.482874
-2.056790
-1.585275
-1.075249
-0.505723
-0.007812
0.002723
19.136347
50.259447
99.551199
170.461209
261.373394
362.804484
453.928271
529.498646
-4.908182
-4.898890
-4.883726
-4.860022
-4.826835
-4.782807
-4.726244
-4.655139
-4.567186
-4.459812
-4.330215
-4.175412
-3.992292
-3.777660
-3.528268
-3.240837
-2.912090
-2.538875
-2.118567
-1.649487
-1.135128
-0.563432
-0.008681
0.004840
15.664489
48.528170
99.061886
171.187992
263.517854
367.000077
460.575668
538.906912
-4.919353
-4.910819
-4.896863
-4.874989
-4.844262
-4.803334
-4.750520
-4.683811
-4.600886
-4.499136
-4.375707
-4.227545
-4.051467
-3.844223
-3.602550
-3.323161
-3.002646
-2.637274
-2.222841
-1.754884
-1.231134
-0.649013
-0.009397
0.001364
11.411719
42.930006
92.505243
164.693655
258.592452
365.171330
462.501304
544.852870
-4.927095
-4.919052
-4.905870
-4.885162
-4.855980
-4.816967
-4.766418
-4.702288
-4.622204
-4.523483
-4.403173
-4.258110
-4.085002
-3.880544
-3.641567
-3.365222
-3.049174
-2.691793
-2.292170
-1.849716
-1.360036
-0.826247
-0.061463
-0.003221
3.991127
41.034893
90.284290
162.419539
257.331314
366.452559
467.155136
553.380855
-4.931397
-4.923565
-4.910715
-4.890499
-4.861964
-4.823744
-4.774123
-4.711047
-4.632127
-4.534665
-4.415688
-4.272004
-4.100284
-3.897170
-3.659425
-3.384102
-3.068737
-2.711467
-2.310875
-1.865062
-1.366183
-0.812890
-0.001957
-0.002497
4.926994
40.800975
90.339594
163.083550
259.169762
370.441242
473.989152
563.698825
-4.940029
-4.932880
-4.921123
-4.902577
-4.876306
-4.840971
-4.794885
-4.736016
-4.661985
-4.570084
-4.457296
-4.320343
-4.155741
-3.959903
-3.729264
-3.460458
-3.150550
-2.797303
-2.399474
-1.957235
-1.471136
-0.953878
-0.341614
-0.005625
0.008445
35.454909
83.183117
155.538305
253.214557
368.021800
476.036386
570.786233
-4.944478
-4.937583
-4.926222
-4.908262
-4.882748
-4.848325
-4.803277
-4.745534
-4.672671
-4.581924
-4.470209
-4.334168
-4.170238
-3.974742
-3.744016
-3.474564
-3.163188
-2.806973
-2.402775
-1.945696
-1.423339
-0.830564
-0.002692
-0.003119
6.044457
36.808692
84.620417
157.085206
255.400433
372.094342
483.054802
581.803739
-4.952134
-4.945915
-4.935639
-4.919342
-4.896096
-4.864582
-4.823123
-4.769687
-4.701876
-4.616935
-4.511768
-4.382964
-4.226847
-4.039549
-3.817114
-3.555652
-3.251556
-2.901802
-2.504310
-2.058470
-1.564535
-1.033362
-0.415069
-0.003238
0.006135
30.782145
76.924795
148.978744
248.912908
369.379604
485.272505
589.864696
-4.956035
-4.950067
-4.940184
-4.924468
-4.901978
-4.871377
-4.830961
-4.778662
-4.712034
-4.628265
-4.524184
-4.396301
-4.240849
-4.053871
-3.831327
-3.569260
-3.264023
-2.912587
-2.512906
-2.064457
-1.567583
-1.033604
-0.410015
-0.004307
0.100372
31.914547
78.324547
150.421797
250.818352
373.181615
492.323481
601.664275
-4.962607
-4.957289
-4.948455
-4.934358
-4.914088
-4.886358
-4.849518
-4.801550
-4.740053
-4.662247
-4.564976
-4.444737
-4.297713
-4.119827
-3.906819
-3.654346
-3.358149
-3.014302
-2.619608
-2.172229
-1.671629
-1.126177
-0.501249
-0.003957
0.003525
25.592464
70.239607
141.753068
243.746904
370.107946
494.690163
610.853500
-4.965971
-4.960899
-4.952450
-4.938925
-4.919403
-4.892580
-4.856781
-4.809953
-4.749649
-4.673025
-4.576850
-4.457527
-4.311137
-4.133492
-3.920225
-3.666905
-3.369221
-3.023259
-2.625898
-2.175447
-1.671485
-1.122973
-0.491916
-0.005103
0.008316
26.904355
71.743274
143.116040
245.327087
373.557782
501.720766
623.572589
-4.971492
-4.967035
-4.959585
-4.947609
-4.930232
-4.906211
-4.873938
-4.831428
-4.776293
-4.705739
-4.616562
-4.505178
-4.367653
-4.199766
-3.997066
-3.754940
-3.468679
-3.133575
-2.745133
-2.299604
-1.794461
-1.233985
-0.599730
-0.004541
0.000792
19.797992
63.189877
133.857921
237.608425
370.043051
504.194739
634.074604
-4.974347
-4.970128
-4.963053
-4.951637
-4.934997
-4.911873
-4.880639
-4.839274
-4.785344
-4.715990
-4.627931
-4.517481
-4.380593
-4.212914
-4.009851
-3.766646
-3.478474
-3.140588
-2.748595
-2.299055
-1.789859
-1.226329
-0.586127
-0.005765
0.006505
21.344196
64.832608
135.153953
238.809828
373.038746
511.128347
647.884339
-4.978872
-4.975222
-4.969078
-4.959118
-4.944514
-4.924083
-4.896282
-4.859179
-4.810423
-4.747220
-4.666330
-4.564077
-4.436389
-4.278875
-4.086914
-3.855775
-3.580691
-3.256852
-2.879236
-2.442358
-1.940224
-1.368690
-0.723299
-0.004922
-0.001834
13.254155
55.871440
125.300277
230.374936
368.981499
513.642000
659.924206
-4.981247
-4.977826
-4.972043
-4.962627
-4.948741
-4.929194
-4.902424
-4.866468
-4.818925
-4.756938
-4.677178
-4.575866
-4.448806
-4.291462
-4.099048
-3.866625
-3.589164
-3.261537
-2.878450
-2.434482
-1.924457
-1.347111
-0.695464
-0.002236
0.004816
15.135949
57.701008
126.556481
231.141827
371.398845
520.369767
675.039793
-4.984833
-4.981923
-4.976982
-4.968893
-4.956884
-4.939851
-4.916333
-4.884471
-4.841971
-4.786058
-4.713445
-4.620315
-4.502312
-4.354531
-4.171525
-3.947298
-3.675326
-3.348654
-2.960233
-2.503762
-1.974934
-1.376416
-0.701430
-0.009244
-0.001972
16.647950
50.791804
117.055286
222.193182
366.774506
522.860483
688.916008
-4.986655
-4.983936
-4.979296
-4.971658
-4.960242
-4.943928
-4.921230
-4.890249
-4.848634
-4.793533
-4.721581
-4.628889
-4.511086
-4.363387
-4.180730
-3.957956
-3.690055
-3.372430
-3.001052
-2.572172
-2.081071
-1.516409
-0.875478
-0.000955
-0.000264
7.216770
50.682345
117.577329
222.359521
368.468432
529.247560
705.625041
-4.988840
-4.986431
-4.982298
-4.975452
-4.965140
-4.950276
-4.929408
-4.900665
-4.861703
-4.809661
-4.741126
-4.652123
-4.538149
-4.394244
-4.215130
-3.995423
-3.729919
-3.413958
-3.043823
-2.617100
-2.132846
-1.588438
-0.992554
-0.171546
0.002851
3.495637
48.643398
113.866058
218.065291
366.822521
533.910144
723.163056
-4.990870
-4.988782
-4.985179
-4.979171
-4.970048
-4.956782
-4.937985
-4.911855
-4.876116
-4.827962
-4.764018
-4.680318
-4.572317
-4.434957
-4.262776
-4.050108
-3.791352
-3.481346
-3.115815
-2.691871
-2.208665
-1.666236
-1.080211
-0.370085
-0.005662
0.009783
44.417578
108.328126
212.241849
363.827178
537.316878
740.281105
-4.992649
-4.990863
-4.987760
-4.982548
-4.974562
-4.962829
-4.946028
-4.922420
-4.889785
-4.845353
-4.785753
-4.706975
-4.604369
-4.472692
-4.306213
-4.098900
-3.844708
-3.537962
-3.173863
-2.749049
-2.262333
-1.713756
-1.118259
-0.402808
0.002906
0.008501
42.086079
103.906349
206.827076
360.950440
541.273216
760.188081
-4.994153
-4.992643
-4.990002
-4.985528
-4.978607
-4.968333
-4.953459
-4.932330
-4.902813
-4.862218
-4.807240
-4.733911
-4.637590
-4.512984
-4.354239
-4.155086
-3.909098
-3.610043
-3.252381
-2.831878
-2.346441
-1.795582
-1.192265
-0.476115
-0.006873
0.007209
37.478455
98.006826
200.212641
356.874178
543.942939
779.847692
-4.995431
-4.994173
-4.991956
-4.988168
-4.982244
-4.973345