<?xml version='1.0' encoding='UTF-8'?>
<VTKFile xmlns='VTK' byte_order='LittleEndian' version='0.1' type='UnstructuredGrid'>
<UnstructuredGrid>
<Piece NumberOfCells='1888' NumberOfPoints='1888'>
<Points>
<DataArray NumberOfComponents='3' type='Float32' Name='Position' format='ascii'>
-0.040000 -0.030000 0.000000
-0.040000 -0.020000 0.000000
-0.040000 -0.010000 0.000000
-0.040000 0.000000 0.000000
-0.040000 0.010000 0.000000
-0.040000 0.020000 0.000000
-0.040000 0.030000 0.000000
-0.040000 0.040000 0.000000
-0.040000 0.050000 0.000000
-0.040000 0.060000 0.000000
-0.040000 0.070000 0.000000
-0.040000 0.080000 0.000000
-0.040000 0.090000 0.000000
-0.040000 0.100000 0.000000
-0.040000 0.110000 0.000000
-0.040000 0.120000 0.000000
-0.040000 0.130000 0.000000
-0.040000 0.140000 0.000000
-0.040000 0.150000 0.000000
-0.040000 0.160000 0.000000
-0.040000 0.170000 0.000000
-0.040000 0.180000 0.000000
-0.040000 0.190000 0.000000
-0.040000 0.200000 0.000000
-0.040000 0.210000 0.000000
-0.040000 0.220000 0.000000
-0.040000 0.230000 0.000000
-0.040000 0.240000 0.000000
-0.040000 0.250000 0.000000
-0.040000 0.260000 0.000000
-0.040000 0.270000 0.000000
-0.040000 0.280000 0.000000
-0.040000 0.290000 0.000000
-0.040000 0.300000 0.000000
-0.040000 0.310000 0.000000
-0.040000 0.320000 0.000000
-0.040000 0.330000 0.000000
-0.040000 0.340000 0.000000
-0.040000 0.350000 0.000000
-0.040000 0.360000 0.000000
-0.040000 0.370000 0.000000
-0.040000 0.380000 0.000000
-0.040000 0.390000 0.000000
-0.040000 0.400000 0.000000
0.010000 -0.030000 0.000000
0.010000 -0.020000 0.000000
0.010000 -0.010000 0.000000
0.010000 0.000000 0.000000
0.010000 0.010000 0.000000
0.010000 0.020000 0.000000
0.010000 0.030000 0.000000
0.010000 0.040000 0.000000
0.010000 0.050000 0.000000
0.010000 0.060000 0.000000
0.010000 0.070000 0.000000
0.010000 0.080000 0.000000
0.010000 0.090000 0.000000
0.010000 0.100000 0.000000
0.010000 0.110000 0.000000
0.010000 0.120000 0.000000
0.010000 0.130000 0.000000
0.010000 0.140000 0.000000
0.010000 0.150000 0.000000
0.010000 0.160000 0.000000
0.010000 0.170000 0.000000
0.010000 0.180000 0.000000
0.010000 0.190000 0.000000
0.010000 0.200000 0.000000
0.010000 0.210000 0.000000
0.010000 0.220000 0.000000
0.010000 0.230000 0.000000
0.010000 0.240000 0.000000
0.010000 0.250000 0.000000
0.010000 0.260000 0.000000
0.010000 0.270000 0.000000
0.010000 0.280000 0.000000
0.010000 0.290000 0.000000
0.010000 0.300000 0.000000
0.010000 0.310000 0.000000
0.010000 0.320000 0.000000
0.010000 0.330000 0.000000
0.010000 0.340000 0.000000
0.010000 0.350000 0.000000
0.010000 0.360000 0.000000
0.010000 0.370000 0.000000
0.010000 0.380000 0.000000
0.010000 0.390000 0.000000
0.010000 0.400000 0.000000
0.442000 0.410000 0.000000
0.442000 0.420000 0.000000
0.442000 0.430000 0.000000
0.442000 0.440000 0.000000
0.060000 -0.030000 0.000000
0.060000 -0.020000 0.000000
0.060000 -0.010000 0.000000
0.060000 0.000000 0.000000
0.060000 0.010000 0.000000
0.060000 0.020000 0.000000
0.060000 0.030000 0.000000
0.060000 0.040000 0.000000
0.060000 0.050000 0.000000
0.060000 0.060000 0.000000
0.060000 0.070000 0.000000
0.060000 0.080000 0.000000
0.060000 0.090000 0.000000
0.060000 0.100000 0.000000
0.060000 0.110000 0.000000
0.060000 0.120000 0.000000
0.060000 0.130000 0.000000
0.060000 0.140000 0.000000
0.060000 0.150000 0.000000
0.060000 0.160000 0.000000
0.060000 0.170000 0.000000
0.060000 0.180000 0.000000
0.060000 0.190000 0.000000
0.060000 0.200000 0.000000
0.060000 0.210000 0.000000
0.060000 0.220000 0.000000
0.060000 0.230000 0.000000
0.060000 0.240000 0.000000
0.060000 0.250000 0.000000
0.060000 0.260000 0.000000
0.060000 0.270000 0.000000
0.060000 0.280000 0.000000
0.060000 0.290000 0.000000
0.060000 0.300000 0.000000
0.060000 0.310000 0.000000
0.060000 0.320000 0.000000
0.060000 0.330000 0.000000
0.060000 0.340000 0.000000
0.060000 0.350000 0.000000
0.060000 0.360000 0.000000
0.060000 0.370000 0.000000
0.060000 0.380000 0.000000
0.060000 0.390000 0.000000
0.060000 0.400000 0.000000
0.492000 0.410000 0.000000
0.492000 0.420000 0.000000
0.492000 0.430000 0.000000
0.492000 0.440000 0.000000
0.110000 -0.030000 0.000000
0.110000 -0.020000 0.000000
0.110000 -0.010000 0.000000
0.110000 0.000000 0.000000
0.110000 0.010000 0.000000
0.110000 0.020000 0.000000
0.110000 0.030000 0.000000
0.110000 0.040000 0.000000
0.110000 0.050000 0.000000
0.110000 0.060000 0.000000
0.110000 0.070000 0.000000
0.110000 0.080000 0.000000
0.110000 0.090000 0.000000
0.110000 0.100000 0.000000
0.110000 0.110000 0.000000
0.110000 0.120000 0.000000
0.110000 0.130000 0.000000
0.110000 0.140000 0.000000
0.110000 0.150000 0.000000
0.110000 0.160000 0.000000
0.110000 0.170000 0.000000
0.110000 0.180000 0.000000
0.110000 0.190000 0.000000
0.110000 0.200000 0.000000
0.110000 0.210000 0.000000
0.110000 0.220000 0.000000
0.110000 0.230000 0.000000
0.110000 0.240000 0.000000
0.110000 0.250000 0.000000
0.110000 0.260000 0.000000
0.110000 0.270000 0.000000
0.110000 0.280000 0.000000
0.110000 0.290000 0.000000
0.110000 0.300000 0.000000
0.110000 0.310000 0.000000
0.110000 0.320000 0.000000
0.110000 0.330000 0.000000
0.110000 0.340000 0.000000
0.110000 0.350000 0.000000
0.110000 0.360000 0.000000
0.110000 0.370000 0.000000
0.110000 0.380000 0.000000
0.110000 0.390000 0.000000
0.110000 0.400000 0.000000
0.542000 0.410000 0.000000
0.542000 0.420000 0.000000
0.542000 0.430000 0.000000
0.542000 0.440000 0.000000
0.160000 -0.030000 0.000000
0.160000 -0.020000 0.000000
0.160000 -0.010000 0.000000
0.160000 0.000000 0.000000
0.160000 0.010000 0.000000
0.160000 0.020000 0.000000
0.160000 0.030000 0.000000
0.160000 0.040000 0.000000
0.160000 0.050000 0.000000
0.160000 0.060000 0.000000
0.160000 0.070000 0.000000
0.160000 0.080000 0.000000
0.160000 0.090000 0.000000
0.160000 0.100000 0.000000
0.160000 0.110000 0.000000
0.160000 0.120000 0.000000
0.160000 0.130000 0.000000
0.160000 0.140000 0.000000
0.160000 0.150000 0.000000
0.160000 0.160000 0.000000
0.160000 0.170000 0.000000
0.160000 0.180000 0.000000
0.160000 0.190000 0.000000
0.160000 0.200000 0.000000
0.160000 0.210000 0.000000
0.160000 0.220000 0.000000
0.160000 0.230000 0.000000
0.160000 0.240000 0.000000
0.160000 0.250000 0.000000
0.160000 0.260000 0.000000
0.160000 0.270000 0.000000
0.160000 0.280000 0.000000
0.160000 0.290000 0.000000
0.160000 0.300000 0.000000
0.160000 0.310000 0.000000
0.160000 0.320000 0.000000
0.160000 0.330000 0.000000
0.160000 0.340000 0.000000
0.160000 0.350000 0.000000
0.160000 0.360000 0.000000
0.160000 0.370000 0.000000
0.160000 0.380000 0.000000
0.160000 0.390000 0.000000
0.160000 0.400000 0.000000
0.592000 0.410000 0.000000
0.592000 0.420000 0.000000
0.592000 0.430000 0.000000
0.592000 0.440000 0.000000
0.210000 -0.030000 0.000000
0.210000 -0.020000 0.000000
0.210000 -0.010000 0.000000
0.210000 0.000000 0.000000
0.210000 0.010000 0.000000
0.210000 0.020000 0.000000
0.210000 0.030000 0.000000
0.210000 0.040000 0.000000
0.210000 0.050000 0.000000
0.210000 0.060000 0.000000
0.210000 0.070000 0.000000
0.210000 0.080000 0.000000
0.210000 0.090000 0.000000
0.210000 0.100000 0.000000
0.210000 0.110000 0.000000
0.210000 0.120000 0.000000
0.210000 0.130000 0.000000
0.210000 0.140000 0.000000
0.210000 0.150000 0.000000
0.210000 0.160000 0.000000
0.210000 0.170000 0.000000
0.210000 0.180000 0.000000
0.210000 0.190000 0.000000
0.210000 0.200000 0.000000
0.210000 0.210000 0.000000
0.210000 0.220000 0.000000
0.210000 0.230000 0.000000
0.210000 0.240000 0.000000
0.210000 0.250000 0.000000
0.210000 0.260000 0.000000
0.210000 0.270000 0.000000
0.210000 0.280000 0.000000
0.210000 0.290000 0.000000
0.210000 0.300000 0.000000
0.210000 0.310000 0.000000
0.210000 0.320000 0.000000
0.210000 0.330000 0.000000
0.210000 0.340000 0.000000
0.210000 0.350000 0.000000
0.210000 0.360000 0.000000
0.210000 0.370000 0.000000
0.210000 0.380000 0.000000
0.210000 0.390000 0.000000
0.210000 0.400000 0.000000
0.642000 0.410000 0.000000
0.642000 0.420000 0.000000
0.642000 0.430000 0.000000
0.642000 0.440000 0.000000
0.260000 -0.030000 0.000000
0.260000 -0.020000 0.000000
0.260000 -0.010000 0.000000
0.260000 0.000000 0.000000
0.260000 0.010000 0.000000
0.260000 0.020000 0.000000
0.260000 0.030000 0.000000
0.260000 0.040000 0.000000
0.260000 0.050000 0.000000
0.260000 0.060000 0.000000
0.260000 0.070000 0.000000
0.260000 0.080000 0.000000
0.260000 0.090000 0.000000
0.260000 0.100000 0.000000
0.260000 0.110000 0.000000
0.260000 0.120000 0.000000
0.260000 0.130000 0.000000
0.260000 0.140000 0.000000
0.260000 0.150000 0.000000
0.260000 0.160000 0.000000
0.260000 0.170000 0.000000
0.260000 0.180000 0.000000
0.260000 0.190000 0.000000
0.260000 0.200000 0.000000
0.260000 0.210000 0.000000
0.260000 0.220000 0.000000
0.260000 0.230000 0.000000
0.260000 0.240000 0.000000
0.260000 0.250000 0.000000
0.260000 0.260000 0.000000
0.260000 0.270000 0.000000
0.260000 0.280000 0.000000
0.260000 0.290000 0.000000
0.260000 0.300000 0.000000
0.260000 0.310000 0.000000
0.260000 0.320000 0.000000
0.260000 0.330000 0.000000
0.260000 0.340000 0.000000
0.260000 0.350000 0.000000
0.260000 0.360000 0.000000
0.260000 0.370000 0.000000
0.260000 0.380000 0.000000
0.260000 0.390000 0.000000
0.260000 0.400000 0.000000
0.692000 0.410000 0.000000
0.692000 0.420000 0.000000
0.692000 0.430000 0.000000
0.692000 0.440000 0.000000
0.310000 -0.030000 0.000000
0.310000 -0.020000 0.000000
0.310000 -0.010000 0.000000
0.310000 0.000000 0.000000
0.310000 0.010000 0.000000
0.310000 0.020000 0.000000
0.310000 0.030000 0.000000
0.310000 0.040000 0.000000
0.310000 0.050000 0.000000
0.310000 0.060000 0.000000
0.310000 0.070000 0.000000
0.310000 0.080000 0.000000
0.310000 0.090000 0.000000
0.310000 0.100000 0.000000
0.310000 0.110000 0.000000
0.310000 0.120000 0.000000
0.310000 0.130000 0.000000
0.310000 0.140000 0.000000
0.310000 0.150000 0.000000
0.310000 0.160000 0.000000
0.310000 0.170000 0.000000
0.310000 0.180000 0.000000
0.310000 0.190000 0.000000
0.310000 0.200000 0.000000
0.310000 0.210000 0.000000
[...]
<PointData>
<DataArray NumberOfComponents='1' type='Int32' Name='ParticleType' format='ascii'>
4
4
4
4
4
4
4
4
4
4
4
4
4
4
4
4
4
4
4
4
4
4
4
4
4
4
4
4
4
4
4
4
4
4
4
4
4
4
4
4
4
4
4
4
4
4
3
3
2
2
2
2
2
2
2
2
2
2
2
2
2
2
2
2
2
2
2
2
2
2
2
2
2
2
2
2
2
2
2
2
2
2
2
2
2
2
2
2
5
5
5
5
4
4
3
3
2
2
2
2
2
2
2
2
2
2
2
2
2
2
2
2
2
2
2
2
2
2
2
2
2
2
2
2
2
2
2
2
2
2
2
2
2
2
2
2
5
5
5
5
4
4
3
3
2
2
2
2
2
2
2
2
2
2
2
2
2
2
2
2
2
2
2
2
2
2
2
2
2
2
2
2
2
2
2
2
2
2
2
2
2
2
2
2
5
5
5
5
4
4
3
3
2
2
2
2
2
2
2
2
2
2
2
2
2
2
2
2
2
2
2
2
2
2
2
2
2
2
2
2
2
2
2
2
2
2
2
2
2
2
2
2
5
5
5
5
4
4
3
3
2
2
2
2
2
2
2
2
2
2
2
2
2
2
2
2
2
2
2
2
2
2
2
2
2
2
2
2
2
2
2
2
2
2
2
2
2
2
2
2
5
5
5
5
4
4
3
3
2
2
2
2
2
2
2
2
2
2
2
2
2
2
2
2
2
2
2
2
2
2
2
2
2
2
2
2
2
2
2
2
2
2
2
2
2
2
2
2
5
5
5
5
4
4
3
3
2
2
2
2
2
2
2
2
2
2
2
2
2
2
2
2
2
2
2
2
2
2
2
2
2
2
2
2
2
2
2
2
2
2
2
2
2
2
2
2
5
5
5
5
4
4
3
3
2
2
2
2
2
2
2
2
2
2
2
2
2
2
2
2
2
2
2
2
2
2
2
2
2
2
2
2
2
2
2
2
2
2
2
2
2
2
2
2
5
5
5
5
4
4
3
3
2
2
2
2
2
2
2
2
2
2
2
2
2
2
2
2
2
2
2
2
2
2
2
2
2
2
2
2
2
2
2
2
2
2
2
2
2
2
2
2
5
5
5
5
4
4
3
3
2
2
2
2
2
2
2
2
2
2
2
2
2
2
2
2
2
2
2
2
2
2
2
2
2
2
2
2
2
2
2
2
2
2
2
2
2
2
2
2
5
5
5
5
4
4
3
3
2
2
2
2
2
2
2
2
2
2
2
2
2
2
2
2
2
2
2
2
2
2
2
2
2
2
2
2
2
2
2
2
2
2
2
2
2
2
2
2
4
4
3
3
2
2
2
2
2
2
2
2
2
2
2
2
2
2
2
2
2
2
2
2
2
2
2
2
2
2
2
2
2
2
2
2
2
2
2
2
2
2
2
2
4
4
3
3
2
2
2
2
2
2
2
2
2
2
2
2
2
2
2
2
2
2
2
2
2
2
2
2
2
2
2
2
2
2
2
2
2
2
2
2
2
2
2
2
4
4
3
3
2
2
2
2
2
2
2
2
2
2
2
2
2
2
2
2
2
2
2
2
2
2
2
2
2
2
2
2
2
2
2
2
2
2
2
2
2
2
2
2
4
4
3
3
2
2
2
2
2
2
2
2
2
2
2
2
2
2
2
2
2
2
2
2
2
2
2
2
2
2
2
2
2
2
2
2
2
2
2
2
2
2
2
2
4
4
3
3
2
2
2
2
2
2
2
2
2
2
2
2
2
2
2
2
2
2
2
2
2
2
2
2
2
2
2
2
2
2
2
2
2
2
2
2
2
2
2
2
4
4
3
3
2
2
2
2
2
2
2
2
2
2
2
2
2
2
2
2
2
2
2
2
2
2
2
2
2
2
2
2
2
2
2
2
2
2
2
2
2
2
2
2
4
4
3
3
2
2
2
2
2
2
2
2
2
2
2
2
2
2
2
2
2
2
2
2
2
2
2
2
2
2
2
2
2
2
2
2
2
2
2
2
2
2
2
2
4
4
3
3
2
2
2
2
2
2
2
2
2
2
2
2
2
2
2
2
2
2
2
2
2
2
2
2
2
2
2
2
2
2
2
2
2
2
2
2
2
2
2
2
4
4
3
3
2
2
2
2
2
2
2
2
2
2
2
2
2
2
2
2
2
2
2
2
2
2
2
2
2
2
2
2
2
2
2
2
2
2
2
2
2
2
2
2
4
4
3
3
2
2
2
2
2
2
2
2
2
2
2
2
2
2
2
2
2
2
2
2
2
2
2
2
2
2
2
2
2
2
2
2
2
2
2
2
2
2
2
2
4
4
3
3
2
2
2
2
2
2
2
2
2
2
2
2
2
2
2
2
2
2
2
2
2
2
2
2
2
2
2
2
2
2
2
2
2
2
2
2
2
2
2
2
4
4
3
3
2
2
2
2
2
2
2
2
2
2
2
2
2
2
2
2
2
2
2
2
2
2
2
2
2
2
2
2
2
2
2
2
2
2
2
2
2
2
2
2
4
4
3
3
2
2
2
2
2
2
2
2
2
2
2
2
2
2
2
2
2
2
2
2
2
2
2
2
2
2
2
2
2
2
2
2
2
2
2
2
2
2
2
2
4
4
3
3
2
2
2
2
2
2
2
2
2
2
2
2
2
2
2
2
2
2
2
2
2
2
2
2
2
2
2
2
2
2
2
2
2
2
2
2
2
2
2
2
4
4
3
3
2
2
2
2
2
2
2
2
2
2
2
2
2
2
2
2
2
2
2
2
2
2
2
2
2
2
2
2
2
2
2
2
2
2
2
2
2
2
2
2
4
4
3
3
2
2
2
2
2
2
2
2
2
2
2
2
2
2
2
2
2
2
2
2
2
2
2
2
2
2
2
2
2
2
2
2
2
2
2
2
2
2
2
2
4
4
3
3
2
2
2
2
2
2
2
2
2
2
2
2
2
2
2
2
2
2
2
2
2
2
2
2
2
2
2
2
2
2
2
2
2
2
2
2
2
2
2
2
4
4
3
3
2
2
2
2
2
2
2
2
2
2
2
2
2
2
2
2
2
2
2
2
2
2
2
2
2
2
2
2
2
2
2
2
2
2
2
2
2
2
2
2
4
4
3
3
2
2
2
2
2
2
2
2
2
2
2
2
2
2
2
2
2
2
2
2
2
2
2
2
2
2
2
2
2
2
2
2
2
2
2
2
2
2
2
2
4
4
3
3
2
2
2
2
2
2
2
2
2
2
2
2
2
2
2
2
2
2
2
2
2
2
2
2
2
2
2
2
2
2
2
2
2
2
2
2
2
2
2
2
4
4
3
3
2
2
2
2
2
2
2
2
2
2
2
2
2
2
2
2
2
2
2
2
2
2
2
2
2
2
2
2
2
2
2
2
2
2
2
2
2
2
2
2
4
4
3
3
2
2
2
2
2
2
2
2
2
2
2
2
2
2
2
2
2
2
2
2
2
2
2
2
2
2
2
2
2
2
2
2
2
2
2
2
2
2
2
2
4
4
3
3
2
2
2
2
2
2
2
2
2
2
2
2
2
2
2
2
2
2
2
2
2
2
2
2
2
2
2
2
2
2
2
2
2
2
2
2
2
2
2
2
4
4
3
3
2
2
2
2
2
2
2
2
2
2
2
2
2
2
2
2
2
2
2
2
2
2
2
2
2
2
2
2
2
2
2
2
2
2
2
2
2
2
2
2
4
4
3
3
2
2
2
2
2
2
2
2
2
2
2
2
2
2
2
2
2
2
2
2
2
2
2
2
2
2
2
2
2
2
2
2
2
2
2
2
2
2
2
2
4
4
3
3
2
2
2
2
2
2
2
2
2
2
2
2
2
2
2
2
2
2
2
2
2
2
2
2
2
2
2
2
2
2
2
2
2
2
2
2
2
2
2
2
4
4
3
3
2
2
2
2
2
2
2
2
2
2
2
2
2
2
2
2
2
2
2
2
2
2
2
2
2
2
2
2
2
2
2
2
2
2
2
2
2
2
2
2
4
4
3
3
2
2
2
2
2
2
2
2
2
2
2
2
2
2
2
2
2
2
2
2
2
2
2
2
2
2
2
2
2
2
2
2
2
2
2
2
2
2
2
2
4
4
3
3
2
2
2
2
2
2
2
2
2
2
2
2
2
2
2
2
2
2
2
2
2
2
2
2
2
2
2
2
2
2
2
2
2
2
2
2
2
2
2
2
4
4
3
3
3
3
3
3
3
3
3
3
3
3
3
3
3
3
3
3
3
3
3
3
3
3
3
3
3
3
3
3
3
3
3
3
3
3
3
3
3
3
3
3
</DataArray>
<DataArray NumberOfComponents='1' type='Float32' Name='Temperature' format='ascii'>
0.000000
0.000000
0.000000
0.000000
0.000000
0.000000
0.000000
0.000000
0.000000
0.000000
0.000000
0.000000
0.000000
0.000000
0.000000
0.000000
0.000000
0.000000
0.000000
0.000000
0.000000
0.000000
0.000000
0.000000
0.000000
0.000000
0.000000
0.000000
0.000000
0.000000
0.000000
0.000000
0.000000
0.000000
0.000000
0.000000
0.000000
0.000000
0.000000
0.000000
0.000000
0.000000
0.000000
0.000000
0.000000
0.000000
0.000000
0.000000
-0.230463
-0.416100
-0.606712
-0.795049
-0.981411
-1.165263
-1.346175
-1.523726
-1.697525
-1.867201
-2.032415
-2.192855
-2.348242
-2.498326
-2.642891
-2.781754
-2.914762
-3.041794
-3.162762
-3.277604
-3.386288
-3.488806
-3.585175
-3.675433
-3.759638
-3.837862
-3.910191
-3.976723
-4.037562
-4.092820
-4.142606
-4.187033
-4.226210
-4.260238
-4.289213
-4.313220
-4.332333
-4.346612
-4.356042
-4.361939
-3.000000
-3.000000
-3.000000
-3.000000
0.000000
0.000000
0.000000
0.000000
-0.224573
-0.405422
-0.591047
-0.774351
-0.955594
-1.134229
-1.309808
-1.481900
-1.650101
-1.814034
-1.973355
-2.127749
-2.276939
-2.420680
-2.558764
-2.691019
-2.817309
-2.937530
-3.051617
-3.159533
-3.261273
-3.356863
-3.446351
-3.529813
-3.607341
-3.679049
-3.745062
-3.805517
-3.860559
-3.910338
-3.955004
-3.994705
-4.029584
-4.059777
-4.085406
-4.106584
-4.123407
-4.135951
-4.144225
-4.149393
-3.000000
-3.000000
-3.000000
-3.000000
0.000000
0.000000
0.000000
0.000000
-0.220821
-0.398609
-0.581028
-0.761068
-0.938957
-1.114132
-1.286126
-1.454496
-1.618822
-1.778718
-1.933831
-2.083842
-2.228471
-2.367474
-2.500649
-2.627831
-2.748895
-2.863753
-2.972357
-3.074693
-3.170781
-3.260674
-3.344454
-3.422226
-3.494121
-3.560289
-3.620894
-3.676113
-3.726131
-3.771136
-3.811317
-3.846861
-3.877946
-3.904739
-3.927395
-3.946052
-3.960829
-3.971823
-3.979062
-3.983577
-3.000000
-3.000000
-3.000000
-3.000000
0.000000
0.000000
0.000000
0.000000
-0.218345
-0.394102
-0.574372
-0.752194
-0.927769
-1.100509
-1.269931
-1.435570
-1.596993
-1.753797
-1.905619
-2.052129
-2.193042
-2.328111
-2.457133
-2.579948
-2.696438
-2.806529
-2.910186
-3.007418
-3.098267
-3.182815
-3.261174
-3.333487
-3.399921
-3.460667
-3.515933
-3.565939
-3.610918
-3.651102
-3.686727
-3.718022
-3.745210
-3.768497
-3.788074
-3.804112
-3.816759
-3.826134
-3.832291
-3.836122
-3.000000
-3.000000
-3.000000
-3.000000
0.000000
0.000000
0.000000
0.000000
-0.216895
-0.391450
-0.570427
-0.746885
-0.920996
-1.092150
-1.259843
-1.423587
-1.582929
-1.737449
-1.886765
-2.030534
-2.168456
-2.300276
-2.425784
-2.544816
-2.657258
-2.763040
-2.862140
-2.954578
-3.040422
-3.119777
-3.192788
-3.259634
-3.320524
-3.375694
-3.425402
-3.469923
-3.509542
-3.544551
-3.575241
-3.601901
-3.624805
-3.644214
-3.660369
-3.673483
-3.683742
-3.691297
-3.696234
-3.699295
-3.000000
-3.000000
-3.000000
-3.000000
0.000000
0.000000
0.000000
0.000000
-0.216254
-0.390267
-0.568644
-0.744441
-0.917809
-1.088118
-1.254840
-1.417469
-1.575528
-1.728573
-1.876201
-2.018047
-2.153788
-2.283152
-2.405908
-2.521881
-2.630942
-2.733016
-2.828079
-2.916156
-2.997324
-3.071708
-3.139478
-3.200846
-3.256065
-3.305419
-3.349222
-3.387814
-3.421549
-3.450792
-3.475912
-3.497273
-3.515230
-3.530119
-3.542249
-3.551901
-3.559316
-3.564695
-3.568170
-3.570303
-3.000000
-3.000000
-3.000000
-3.000000
0.000000
0.000000
0.000000
0.000000
-0.216099
-0.389974
-0.568189
-0.743793
-0.916925
-1.086942
-1.253302
-1.415479
-1.572980
-1.725338
-1.872124
-2.012949
-2.147461
-2.275354
-2.396371
-2.510299
-2.616981
-2.716312
-2.808239
-2.892769
-2.969963
-3.039938
-3.102868
-3.158981
-3.208557
-3.251922
-3.289449
-3.321545
-3.348651
-3.371228
-3.389755
-3.404711
-3.416571
-3.425792
-3.432803
-3.437995
-3.441711
-3.444235
-3.445780
-3.446684
-3.000000
-3.000000
-3.000000
-3.000000
0.000000
0.000000
0.000000
0.000000
-0.216090
-0.389957
-0.568159
-0.743748
-0.916856
-1.086840
-1.253152
-1.415262
-1.572668
-1.724895
-1.871500
-2.012077
-2.146256
-2.273704
-2.394132
-2.507293
-2.612984
-2.711050
-2.801385
-2.883932
-2.958689
-3.025712
-3.085112
-3.137064
-3.181808
-3.219648
-3.250960
-3.276182
-3.295823
-3.310447
-3.320675
-3.327165
-3.330605
-3.331686
-3.331090
-3.329460
-3.327379
-3.325344
-3.323765
-3.322658
-3.000000
-3.000000
-3.000000
-3.000000
0.000000
0.000000
0.000000
0.000000
-0.216090
-0.389957
-0.568159
-0.743747
-0.916856
-1.086839
-1.253151
-1.415262
-1.572667
-1.724892
-1.871496
-2.012069
-2.146241
-2.273679
-2.394090
-2.507221
-2.612864
-2.710851
-2.801062
-2.883414
-2.957871
-3.024437
-3.083155
-3.134105
-3.177403
-3.213196
-3.241664
-3.263019
-3.277514
-3.285450
-3.287203
-3.283247
-3.274203
-3.260882
-3.244337
-3.225912
-3.207249
-3.190253
-3.177154
-3.167609
-3.000000
-3.000000
-3.000000
-3.000000
0.000000
0.000000
0.000000
0.000000
-0.216090
-0.389957
-0.568159
-0.743747
-0.916856
-1.086839
-1.253151
-1.415262
-1.572667
-1.724892
-1.871496
-2.012069
-2.146241
-2.273679
-2.394090
-2.507221
-2.612864
-2.710851
-2.801062
-2.883414
-2.957871
-3.024437
-3.083155
-3.134105
-3.177403
-3.213196
-3.241664
-3.263019
-3.277513
-3.285447
-3.287192
-3.283219
-3.274130
-3.260697
-3.243883
-3.224826
-3.204722
-3.184663
-3.164644
-3.141782
-3.000000
-3.000000
-3.000000
-3.000000
0.000000
0.000000
0.000000
0.000000
-0.218411
-0.394148
-0.574272
-0.751758
-0.926745
-1.098581
-1.266713
-1.430604
-1.589745
-1.743652
-1.891877
-2.034002
-2.169647
-2.298470
-2.420168
-2.534479
-2.641185
-2.740109
-2.831118
-2.914124
-2.989079
-3.055979
-3.114861
-3.165796
-3.208895
-3.244299
-3.272184
-3.292759
-3.306273
-3.313032
-3.313412
-3.307897
-3.297112
-3.281864
-3.263164
-3.242211
-3.220269
-3.198488
-3.176846
-3.152220
0.000000
0.000000
0.000000
0.000000
-0.222607
-0.401730
-0.585341
-0.766289
-0.944718
-1.119971
-1.291485
-1.458714
-1.621138
-1.778262
-1.929621
-2.074781
-2.213347
-2.344955
-2.469282
-2.586046
-2.695005
-2.795960
-2.888754
-2.973276
-3.049457
-3.117270
-3.176730
-3.227891
-3.270844
-3.305716
-3.332669
-3.351900
-3.363654
-3.368236
-3.366033
-3.357554
-3.343467
-3.324651
-3.302215
-3.277485
-3.251861
-3.226616
-3.201696
-3.173490
0.000000
0.000000
0.000000
0.000000
-0.226802
-0.409321
-0.596449
-0.780913
-0.962875
-1.141674
-1.316746
-1.487541
-1.653529
-1.814206
-1.969092
-2.117737
-2.259725
-2.394669
-2.522220
-2.642067
-2.753937
-2.857598
-2.952860
-3.039575
-3.117640
-3.186992
-3.247613
-3.299524
-3.342783
-3.377490
-3.403778
-3.421826
-3.431861
-3.434183
-3.429185
-3.417401
-3.399554
-3.376603
-3.349782
-3.320572
-3.290543
-3.261128
-3.232229
-3.199651
0.000000
0.000000
0.000000
0.000000
-0.230668
-0.416336
-0.606752
-0.794547
-0.979911
-1.162190
-1.340829
-1.515282
-1.685017
-1.849526
-2.008318
-2.160928
-2.306918
-2.445874
-2.577417
-2.701197
-2.816900
-2.924246
-3.022997
-3.112952
-3.193952
-3.265879
-3.328658
-3.382252
-3.426668
-3.461949
-3.488183
-3.505504
-3.514107
-3.514268
-3.506380
-3.490999
-3.468906
-3.441163
-3.409156
-3.374566
-3.339185
-3.304646
-3.270810
-3.232753
0.000000
0.000000
0.000000
0.000000
-0.233737
-0.421930
-0.615026
-0.805601
-0.993881
-1.179240
-1.361147
-1.539072
-1.712499
-1.880924
-2.043857
-2.200827
-2.351378
-2.495075
-2.631502
-2.760270
-2.881012
-2.993390
-3.097096
-3.191853
-3.277419
-3.353590
-3.420196
-3.477108
-3.524234
-3.561524
-3.588973
-3.606633
-3.614623
-3.613166
-3.602626
-3.583569
-3.556835
-3.523609
-3.485472
-3.444367
-3.402377
-3.361412
-3.321285
-3.276148
0.000000
0.000000
0.000000
0.000000
-0.235569
-0.425299
-0.620081
-0.812479
-1.002771
-1.190373
-1.374794
-1.555543
-1.732140
-1.904112
-2.070994
-2.232331
-2.387677
-2.536596
-2.678657
-2.813443
-2.940543
-3.059561
-3.170112
-3.271825
-3.364348
-3.447347
-3.520510
-3.583551
-3.636211
-3.678266
-3.709534
-3.729892
-3.739300
-3.737845
-3.725791
-3.703664
-3.672340
-3.633141
-3.587890
-3.538881
-3.488604
-3.439359
-3.390917
-3.336198
0.000000
0.000000
0.000000
0.000000
-0.236166
-0.426422
-0.621817
-0.814938
-1.006103
-1.194772
-1.380501
-1.562853
-1.741403
-1.915740
-2.085465
-2.250187
-2.409526
-2.563105
-2.710550
-2.851484
-2.985525
-3.112279
-3.231339
-3.342282
-3.444664
-3.538017
-3.621854
-3.695665
-3.758921
-3.811089
-3.851639
-3.880078
-3.895990
-3.899101
-3.889365
-3.867082
-3.833028
-3.788596
-3.735877
-3.677629
-3.616927
-3.556665
-3.496565
-3.427811
0.000000
0.000000
0.000000
0.000000
-0.236212
-0.426511
-0.621966
-0.815170
-1.006451
-1.195284
-1.381247
-1.563928
-1.742937
-1.917908
-2.088500
-2.254395
-2.415305
-2.570962
-2.721125
-2.865568
-3.004084
-3.136467
-3.262508
-3.381979
-3.494610
-3.600072
-3.697947
-3.787704
-3.868667
-3.939999
-4.000697
-4.049609
-4.085487
-4.107087
-4.113324
-4.103489
-4.077503
-4.036193
-3.981496
-3.916477
-3.844890
-3.770477
-3.692763
-3.600102
0.000000
0.000000
0.000000
0.000000
-0.236212
-0.426511
-0.621967
-0.815170
-1.006452
-1.195286
-1.381250
-1.563934
-1.742947
-1.917927
-2.088532
-2.254453
-2.415404
-2.571133
-2.721415
-2.866054
-3.004887
-3.137777
-3.264618
-3.385328
-3.499853
-3.608162
-3.710247
-3.806119
-3.895807
-3.979355
-4.056821
-4.128271
-4.193776
-4.253406
-4.307216
-4.355214
-4.397300
-4.433129
-4.461813
-4.481345
-4.487393
-4.472143
-4.416231
-4.292542
0.000000
0.000000
0.000000
0.000000
-0.236212
-0.426511
-0.621967
-0.815170
-1.006452
-1.195286
-1.381250
-1.563934
-1.742947
-1.917927
-2.088532
-2.254453
-2.415404
-2.571133
-2.721415
-2.866054
-3.004887
-3.137777
-3.264618
-3.385328
-3.499853
-3.608162
-3.710247
-3.806119
-3.895807
-3.979356
-4.056823
-4.128277
-4.193793
-4.253453
-4.307341
-4.355543
-4.398142
-4.435219
-4.466847
-4.493094
-4.514018
-4.529667
-4.540010
-4.546481
0.000000
0.000000
0.000000
0.000000
-0.236212
-0.426511
-0.621967
-0.815170
-1.006452
-1.195286
-1.381250
-1.563934
-1.742947
-1.917927
-2.088532
-2.254453
-2.415404
-2.571133
-2.721415
-2.866054
-3.004887
-3.137777
-3.264618
-3.385328
-3.499853
-3.608162
-3.710247
-3.806119
-3.895807
-3.979356
-4.056823
-4.128277
-4.193793
-4.253453
-4.307341
-4.355543
-4.398142
-4.435219
-4.466847
-4.493094
-4.514018
-4.529667
-4.540010
-4.546481
0.000000
0.000000
0.000000
0.000000
-0.236212
-0.426511
-0.621967
-0.815170
-1.006452
-1.195286
-1.381250
-1.563934
-1.742947
-1.917927
-2.088532
-2.254453
-2.415404
-2.571133
-2.721415
-2.866054
-3.004887
-3.137777
-3.264618
-3.385328
-3.499853
-3.608162
-3.710247
-3.806119
-3.895807
-3.979356
-4.056823
-4.128277
-4.193793
-4.253453
-4.307341
-4.355543
-4.398142
-4.435219
-4.466847
-4.493094
-4.514018
-4.529667
-4.540010
-4.546481
0.000000
0.000000
0.000000
0.000000
-0.236212
-0.426511
-0.621967
-0.815170
-1.006452
-1.195286
-1.381250
-1.563934
-1.742947
-1.917927
-2.088532
-2.254453
-2.415404
-2.571133
-2.721415
-2.866054
-3.004887
-3.137777
-3.264618
-3.385328
-3.499853
-3.608162
-3.710247
-3.806119
-3.895807
-3.979356
-4.056823
-4.128277
-4.193793
-4.253453
-4.307341
-4.355543
-4.398142
-4.435219
-4.466847
-4.493094
-4.514018
-4.529667
-4.540010
-4.546481
0.000000
0.000000
0.000000
0.000000
-0.236212
-0.426511
-0.621967
-0.815170
-1.006452
-1.195286
-1.381250
-1.563934
-1.742947
-1.917927
-2.088532
-2.254453
-2.415404
-2.571133
-2.721415
-2.866054
-3.004887
-3.137777
-3.264618
-3.385328
-3.499853
-3.608162
-3.710247
-3.806119
-3.895807
-3.979356
-4.056823
-4.128277
-4.193793
-4.253453
-4.307341
-4.355543
-4.398142
-4.435219
-4.466847
-4.493094
-4.514018
-4.529667
-4.540010
-4.546481
0.000000
0.000000
0.000000
0.000000
-0.236212
-0.426511
-0.621967
-0.815170
-1.006452
-1.195286
-1.381250
-1.563934
-1.742947
-1.917927
-2.088532
-2.254453
-2.415404
-2.571133
-2.721415
-2.866054
-3.004887
-3.137777
-3.264618
-3.385328
-3.499853
-3.608162
-3.710247
-3.806119
-3.895807
-3.979356
-4.056823
-4.128277
-4.193793
-4.253453
-4.307341
-4.355543
-4.398142
-4.435219
-4.466847
-4.493094
-4.514018
-4.529667
-4.540010
-4.546481
0.000000
0.000000
0.000000
0.000000
-0.236212
-0.426511
-0.621967
-0.815170
-1.006452
-1.195286
-1.381250
-1.563934
-1.742947
-1.917927
-2.088532
-2.254453
-2.415404
-2.571133
-2.721415
-2.866054
-3.004887
-3.137777
-3.264618
-3.385328
-3.499853
-3.608162
-3.710247
-3.806119
-3.895807
-3.979356
-4.056823
-4.128277
-4.193793
-4.253453
-4.307341
-4.355543
-4.398142
-4.435219
-4.466847
-4.493094
-4.514018
-4.529667
-4.540010
-4.546481
0.000000
0.000000
0.000000
0.000000
-0.236212
-0.426511
-0.621967
-0.815170
-1.006452
-1.195286
-1.381250
-1.563934
-1.742947
-1.917927
-2.088532
-2.254453
-2.415404
-2.571133
-2.721415
-2.866054
-3.004887
-3.137777
-3.264618
-3.385328
-3.499853
-3.608162
-3.710247
-3.806119
-3.895807
-3.979356
-4.056823
-4.128277
-4.193793
-4.253453
-4.307341
-4.355543
-4.398142
-4.435219
-4.466847
-4.493094
-4.514018
-4.529667
-4.540010
-4.546481
0.000000
0.000000
0.000000
0.000000
-0.236212
-0.426511
-0.621967
-0.815170
-1.006452
-1.195286
-1.381250
-1.563934
-1.742947
-1.917927
-2.088532
-2.254453
-2.415404
-2.571133
-2.721415
-2.866054
-3.004887
-3.137777
-3.264618
-3.385328
-3.499853
-3.608162
-3.710247
-3.806119
-3.895807
-3.979356
-4.056823
-4.128277
-4.193793
-4.253453
-4.307341
-4.355543
-4.398142
-4.435219
-4.466847
-4.493094
-4.514018
-4.529667
-4.540010
-4.546481
0.000000
0.000000
0.000000
0.000000
-0.236212
-0.426511
-0.621967
-0.815170
-1.006452
-1.195286
-1.381250
-1.563934
-1.742947
-1.917927
-2.088532
-2.254453
-2.415404
-2.571133
-2.721415
-2.866054
-3.004887
-3.137777
-3.264618
-3.385328
-3.499853
-3.608162
-3.710247
-3.806119
-3.895807
-3.979356
-4.056823
-4.128277
-4.193793
-4.253453
-4.307341
-4.355543
-4.398142
-4.435219
-4.466847
-4.493094
-4.514018
-4.529667
-4.540010
-4.546481
0.000000
0.000000
0.000000
0.000000
-0.236212
-0.426511
-0.621967
-0.815170
-1.006452
-1.195286
-1.381250
-1.563934
-1.742947
-1.917927
-2.088532
-2.254453
-2.415404
-2.571133
-2.721415
-2.866054
-3.004887
-3.137777
-3.264618
-3.385328
-3.499853
-3.608162
-3.710247
-3.806119
-3.895807
-3.979356
-4.056823
-4.128277
-4.193793
-4.253453
-4.307341
-4.355543
-4.398142
-4.435219
-4.466847
-4.493094
-4.514018
-4.529667
-4.540010
-4.546481
0.000000
0.000000
0.000000
0.000000
-0.236212
-0.426511
-0.621967
-0.815170
-1.006452
-1.195286
-1.381250
-1.563934
-1.742947
-1.917927
-2.088532
-2.254453
-2.415404
-2.571133
-2.721415
-2.866054
-3.004887
-3.137777
-3.264618
-3.385328
-3.499853
-3.608162
-3.710247
-3.806119
-3.895807
-3.979356
-4.056823
-4.128277
-4.193793
-4.253453
-4.307341
-4.355543
-4.398142
-4.435219
-4.466847
-4.493094
-4.514018
-4.529667
-4.540010
-4.546481
0.000000
0.000000
0.000000
0.000000
-0.236212
-0.426511
-0.621967
-0.815170
-1.006452
-1.195286
-1.381250
-1.563934
-1.742947
-1.917927
-2.088532
-2.254453
-2.415404
-2.571133
-2.721415
-2.866054
-3.004887
-3.137777
-3.264618
-3.385328
-3.499853
-3.608162
-3.710247
-3.806119
-3.895807
-3.979356
-4.056823
-4.128277
-4.193793
-4.253453
-4.307341
-4.355543
-4.398142
-4.435219
-4.466847
-4.493094
-4.514018
-4.529667
-4.540010
-4.546481
0.000000
0.000000
0.000000
0.000000
-0.236212
-0.426511
-0.621967
-0.815170
-1.006452
-1.195286
-1.381250
-1.563934
-1.742947
-1.917927
-2.088532
-2.254453
-2.415404
-2.571133
-2.721415
-2.866054
-3.004887
-3.137777
-3.264618
-3.385328
-3.499853
-3.608162
-3.710247
-3.806119
-3.895807
-3.979356
-4.056823
-4.128277
-4.193793
-4.253453
-4.307341
-4.355543
-4.398142
-4.435219
-4.466847
-4.493094
-4.514018
-4.529667
-4.540010
-4.546481
0.000000
0.000000
0.000000
0.000000
-0.236212
-0.426511
-0.621967
-0.815170
-1.006452
-1.195286
-1.381250
-1.563934
-1.742947
-1.917927
-2.088532
-2.254453
-2.415404
-2.571133
-2.721415
-2.866054
-3.004887
-3.137777
-3.264618
-3.385328
-3.499853
-3.608162
-3.710247
-3.806119
-3.895807
-3.979356
-4.056823
-4.128277
-4.193793
-4.253453
-4.307341
-4.355543
-4.398142
-4.435219
-4.466847
-4.493094
-4.514018
-4.529667
-4.540010
-4.546481
0.000000
0.000000
0.000000
0.000000
-0.236212
-0.426511
-0.621967
-0.815170
-1.006452
-1.195286
-1.381250
-1.563934
-1.742947
-1.917927
-2.088532
-2.254453
-2.415404
-2.571133
-2.721415
-2.866054
-3.004887
-3.137777
-3.264618
-3.385328
-3.499853
-3.608162
-3.710247
-3.806119
-3.895807
-3.979356
-4.056823
-4.128277
-4.193793
-4.253453
-4.307341
-4.355543
-4.398142
-4.435219
-4.466847
-4.493094
-4.514018