<?xml version='1.0' encoding='UTF-8'?>
<VTKFile xmlns='VTK' byte_order='LittleEndian' version='0.1' type='UnstructuredGrid'>
<UnstructuredGrid>
<Piece NumberOfCells='1888' NumberOfPoints='1888'>
<Points>
<DataArray NumberOfComponents='3' type='Float32' Name='Position' format='ascii'>
-0.040000 -0.030000 0.000000
-0.040000 -0.020000 0.000000
-0.040000 -0.010000 0.000000
-0.040000 0.000000 0.000000
-0.040000 0.010000 0.000000
-0.040000 0.020000 0.000000
-0.040000 0.030000 0.000000
-0.040000 0.040000 0.000000
-0.040000 0.050000 0.000000
-0.040000 0.060000 0.000000
-0.040000 0.070000 0.000000
-0.040000 0.080000 0.000000
-0.040000 0.090000 0.000000
-0.040000 0.100000 0.000000
-0.040000 0.110000 0.000000
-0.040000 0.120000 0.000000
-0.040000 0.130000 0.000000
-0.040000 0.140000 0.000000
-0.040000 0.150000 0.000000
-0.040000 0.160000 0.000000
-0.040000 0.170000 0.000000
-0.040000 0.180000 0.000000
-0.040000 0.190000 0.000000
-0.040000 0.200000 0.000000
-0.040000 0.210000 0.000000
-0.040000 0.220000 0.000000
-0.040000 0.230000 0.000000
-0.040000 0.240000 0.000000
-0.040000 0.250000 0.000000
-0.040000 0.260000 0.000000
-0.040000 0.270000 0.000000
-0.040000 0.280000 0.000000
-0.040000 0.290000 0.000000
-0.040000 0.300000 0.000000
-0.040000 0.310000 0.000000
-0.040000 0.320000 0.000000
-0.040000 0.330000 0.000000
-0.040000 0.340000 0.000000
-0.040000 0.350000 0.000000
-0.040000 0.360000 0.000000
-0.040000 0.370000 0.000000
-0.040000 0.380000 0.000000
-0.040000 0.390000 0.000000
-0.040000 0.400000 0.000000
0.010000 -0.030000 0.000000
0.010000 -0.020000 0.000000
0.010000 -0.010000 0.000000
0.010000 0.000000 0.000000
0.010000 0.010000 0.000000
0.010000 0.020000 0.000000
0.010000 0.030000 0.000000
0.010000 0.040000 0.000000
0.010000 0.050000 0.000000
0.010000 0.060000 0.000000
0.010000 0.070000 0.000000
0.010000 0.080000 0.000000
0.010000 0.090000 0.000000
0.010000 0.100000 0.000000
0.010000 0.110000 0.000000
0.010000 0.120000 0.000000
0.010000 0.130000 0.000000
0.010000 0.140000 0.000000
0.010000 0.150000 0.000000
0.010000 0.160000 0.000000
0.010000 0.170000 0.000000
0.010000 0.180000 0.000000
0.010000 0.190000 0.000000
0.010000 0.200000 0.000000
0.010000 0.210000 0.000000
0.010000 0.220000 0.000000
0.010000 0.230000 0.000000
0.010000 0.240000 0.000000
0.010000 0.250000 0.000000
0.010000 0.260000 0.000000
0.010000 0.270000 0.000000
0.010000 0.280000 0.000000
0.010000 0.290000 0.000000
0.010000 0.300000 0.000000
0.010000 0.310000 0.000000
0.010000 0.320000 0.000000
0.010000 0.330000 0.000000
0.010000 0.340000 0.000000
0.010000 0.350000 0.000000
0.010000 0.360000 0.000000
0.010000 0.370000 0.000000
0.010000 0.380000 0.000000
0.010000 0.390000 0.000000
0.010000 0.400000 0.000000
0.290000 0.410000 0.000000
0.290000 0.420000 0.000000
0.290000 0.430000 0.000000
0.290000 0.440000 0.000000
0.060000 -0.030000 0.000000
0.060000 -0.020000 0.000000
0.060000 -0.010000 0.000000
0.060000 0.000000 0.000000
0.060000 0.010000 0.000000
0.060000 0.020000 0.000000
0.060000 0.030000 0.000000
0.060000 0.040000 0.000000
0.060000 0.050000 0.000000
0.060000 0.060000 0.000000
0.060000 0.070000 0.000000
0.060000 0.080000 0.000000
0.060000 0.090000 0.000000
0.060000 0.100000 0.000000
0.060000 0.110000 0.000000
0.060000 0.120000 0.000000
0.060000 0.130000 0.000000
0.060000 0.140000 0.000000
0.060000 0.150000 0.000000
0.060000 0.160000 0.000000
0.060000 0.170000 0.000000
0.060000 0.180000 0.000000
0.060000 0.190000 0.000000
0.060000 0.200000 0.000000
0.060000 0.210000 0.000000
0.060000 0.220000 0.000000
0.060000 0.230000 0.000000
0.060000 0.240000 0.000000
0.060000 0.250000 0.000000
0.060000 0.260000 0.000000
0.060000 0.270000 0.000000
0.060000 0.280000 0.000000
0.060000 0.290000 0.000000
0.060000 0.300000 0.000000
0.060000 0.310000 0.000000
0.060000 0.320000 0.000000
0.060000 0.330000 0.000000
0.060000 0.340000 0.000000
0.060000 0.350000 0.000000
0.060000 0.360000 0.000000
0.060000 0.370000 0.000000
0.060000 0.380000 0.000000
0.060000 0.390000 0.000000
0.060000 0.400000 0.000000
0.340000 0.410000 0.000000
0.340000 0.420000 0.000000
0.340000 0.430000 0.000000
0.340000 0.440000 0.000000
0.110000 -0.030000 0.000000
0.110000 -0.020000 0.000000
0.110000 -0.010000 0.000000
0.110000 0.000000 0.000000
0.110000 0.010000 0.000000
0.110000 0.020000 0.000000
0.110000 0.030000 0.000000
0.110000 0.040000 0.000000
0.110000 0.050000 0.000000
0.110000 0.060000 0.000000
0.110000 0.070000 0.000000
0.110000 0.080000 0.000000
0.110000 0.090000 0.000000
0.110000 0.100000 0.000000
0.110000 0.110000 0.000000
0.110000 0.120000 0.000000
0.110000 0.130000 0.000000
0.110000 0.140000 0.000000
0.110000 0.150000 0.000000
0.110000 0.160000 0.000000
0.110000 0.170000 0.000000
0.110000 0.180000 0.000000
0.110000 0.190000 0.000000
0.110000 0.200000 0.000000
0.110000 0.210000 0.000000
0.110000 0.220000 0.000000
0.110000 0.230000 0.000000
0.110000 0.240000 0.000000
0.110000 0.250000 0.000000
0.110000 0.260000 0.000000
0.110000 0.270000 0.000000
0.110000 0.280000 0.000000
0.110000 0.290000 0.000000
0.110000 0.300000 0.000000
0.110000 0.310000 0.000000
0.110000 0.320000 0.000000
0.110000 0.330000 0.000000
0.110000 0.340000 0.000000
0.110000 0.350000 0.000000
0.110000 0.360000 0.000000
0.110000 0.370000 0.000000
0.110000 0.380000 0.000000
0.110000 0.390000 0.000000
0.110000 0.400000 0.000000
0.390000 0.410000 0.000000
0.390000 0.420000 0.000000
0.390000 0.430000 0.000000
0.390000 0.440000 0.000000
0.160000 -0.030000 0.000000
0.160000 -0.020000 0.000000
0.160000 -0.010000 0.000000
0.160000 0.000000 0.000000
0.160000 0.010000 0.000000
0.160000 0.020000 0.000000
0.160000 0.030000 0.000000
0.160000 0.040000 0.000000
0.160000 0.050000 0.000000
0.160000 0.060000 0.000000
0.160000 0.070000 0.000000
0.160000 0.080000 0.000000
0.160000 0.090000 0.000000
0.160000 0.100000 0.000000
0.160000 0.110000 0.000000
0.160000 0.120000 0.000000
0.160000 0.130000 0.000000
0.160000 0.140000 0.000000
0.160000 0.150000 0.000000
0.160000 0.160000 0.000000
0.160000 0.170000 0.000000
0.160000 0.180000 0.000000
0.160000 0.190000 0.000000
0.160000 0.200000 0.000000
0.160000 0.210000 0.000000
0.160000 0.220000 0.000000
0.160000 0.230000 0.000000
0.160000 0.240000 0.000000
0.160000 0.250000 0.000000
0.160000 0.260000 0.000000
0.160000 0.270000 0.000000
0.160000 0.280000 0.000000
0.160000 0.290000 0.000000
0.160000 0.300000 0.000000
0.160000 0.310000 0.000000
0.160000 0.320000 0.000000
0.160000 0.330000 0.000000
0.160000 0.340000 0.000000
0.160000 0.350000 0.000000
0.160000 0.360000 0.000000
0.160000 0.370000 0.000000
0.160000 0.380000 0.000000
0.160000 0.390000 0.000000
0.160000 0.400000 0.000000
0.440000 0.410000 0.000000
0.440000 0.420000 0.000000
0.440000 0.430000 0.000000
0.440000 0.440000 0.000000
0.210000 -0.030000 0.000000
0.210000 -0.020000 0.000000
0.210000 -0.010000 0.000000
0.210000 0.000000 0.000000
0.210000 0.010000 0.000000
0.210000 0.020000 0.000000
0.210000 0.030000 0.000000
0.210000 0.040000 0.000000
0.210000 0.050000 0.000000
0.210000 0.060000 0.000000
0.210000 0.070000 0.000000
0.210000 0.080000 0.000000
0.210000 0.090000 0.000000
0.210000 0.100000 0.000000
0.210000 0.110000 0.000000
0.210000 0.120000 0.000000
0.210000 0.130000 0.000000
0.210000 0.140000 0.000000
0.210000 0.150000 0.000000
0.210000 0.160000 0.000000
0.210000 0.170000 0.000000
0.210000 0.180000 0.000000
0.210000 0.190000 0.000000
0.210000 0.200000 0.000000
0.210000 0.210000 0.000000
0.210000 0.220000 0.000000
0.210000 0.230000 0.000000
0.210000 0.240000 0.000000
0.210000 0.250000 0.000000
0.210000 0.260000 0.000000
0.210000 0.270000 0.000000
0.210000 0.280000 0.000000
0.210000 0.290000 0.000000
0.210000 0.300000 0.000000
0.210000 0.310000 0.000000
0.210000 0.320000 0.000000
0.210000 0.330000 0.000000
0.210000 0.340000 0.000000
0.210000 0.350000 0.000000
0.210000 0.360000 0.000000
0.210000 0.370000 0.000000
0.210000 0.380000 0.000000
0.210000 0.390000 0.000000
0.210000 0.400000 0.000000
0.490000 0.410000 0.000000
0.490000 0.420000 0.000000
0.490000 0.430000 0.000000
0.490000 0.440000 0.000000
0.260000 -0.030000 0.000000
0.260000 -0.020000 0.000000
0.260000 -0.010000 0.000000
0.260000 0.000000 0.000000
0.260000 0.010000 0.000000
0.260000 0.020000 0.000000
0.260000 0.030000 0.000000
0.260000 0.040000 0.000000
0.260000 0.050000 0.000000
0.260000 0.060000 0.000000
0.260000 0.070000 0.000000
0.260000 0.080000 0.000000
0.260000 0.090000 0.000000
0.260000 0.100000 0.000000
0.260000 0.110000 0.000000
0.260000 0.120000 0.000000
0.260000 0.130000 0.000000
0.260000 0.140000 0.000000
0.260000 0.150000 0.000000
0.260000 0.160000 0.000000
0.260000 0.170000 0.000000
0.260000 0.180000 0.000000
0.260000 0.190000 0.000000
0.260000 0.200000 0.000000
0.260000 0.210000 0.000000
0.260000 0.220000 0.000000
0.260000 0.230000 0.000000
0.260000 0.240000 0.000000
0.260000 0.250000 0.000000
0.260000 0.260000 0.000000
0.260000 0.270000 0.000000
0.260000 0.280000 0.000000
0.260000 0.290000 0.000000
0.260000 0.300000 0.000000
0.260000 0.310000 0.000000
0.260000 0.320000 0.000000
0.260000 0.330000 0.000000
0.260000 0.340000 0.000000
0.260000 0.350000 0.000000
0.260000 0.360000 0.000000
0.260000 0.370000 0.000000
0.260000 0.380000 0.000000
0.260000 0.390000 0.000000
0.260000 0.400000 0.000000
0.540000 0.410000 0.000000
0.540000 0.420000 0.000000
0.540000 0.430000 0.000000
0.540000 0.440000 0.000000
0.310000 -0.030000 0.000000
0.310000 -0.020000 0.000000
0.310000 -0.010000 0.000000
0.310000 0.000000 0.000000
0.310000 0.010000 0.000000
0.310000 0.020000 0.000000
0.310000 0.030000 0.000000
0.310000 0.040000 0.000000
0.310000 0.050000 0.000000
0.310000 0.060000 0.000000
0.310000 0.070000 0.000000
0.310000 0.080000 0.000000
0.310000 0.090000 0.000000
0.310000 0.100000 0.000000
0.310000 0.110000 0.000000
0.310000 0.120000 0.000000
0.310000 0.130000 0.000000
0.310000 0.140000 0.000000
0.310000 0.150000 0.000000
0.310000 0.160000 0.000000
0.310000 0.170000 0.000000
0.310000 0.180000 0.000000
0.310000 0.190000 0.000000
0.310000 0.200000 0.000000
0.310000 0.210000 0.000000
[...]
<PointData>
<DataArray NumberOfComponents='1' type='Int32' Name='ParticleType' format='ascii'>
4
4
4
4
4
4
4
4
4
4
4
4
4
4
4
4
4
4
4
4
4
4
4
4
4
4
4
4
4
4
4
4
4
4
4
4
4
4
4
4
4
4
4
4
4
4
3
3
2
2
2
2
2
2
2
2
2
2
2
2
2
2
2
2
2
2
2
2
2
2
2
2
2
2
2
2
2
2
2
2
2
2
2
2
2
2
2
2
5
5
5
5
4
4
3
3
2
2
2
2
2
2
2
2
2
2
2
2
2
2
2
2
2
2
2
2
2
2
2
2
2
2
2
2
2
2
2
2
2
2
2
2
2
2
2
2
5
5
5
5
4
4
3
3
2
2
2
2
2
2
2
2
2
2
2
2
2
2
2
2
2
2
2
2
2
2
2
2
2
2
2
2
2
2
2
2
2
2
2
2
2
2
2
2
5
5
5
5
4
4
3
3
2
2
2
2
2
2
2
2
2
2
2
2
2
2
2
2
2
2
2
2
2
2
2
2
2
2
2
2
2
2
2
2
2
2
2
2
2
2
2
2
5
5
5
5
4
4
3
3
2
2
2
2
2
2
2
2
2
2
2
2
2
2
2
2
2
2
2
2
2
2
2
2
2
2
2
2
2
2
2
2
2
2
2
2
2
2
2
2
5
5
5
5
4
4
3
3
2
2
2
2
2
2
2
2
2
2
2
2
2
2
2
2
2
2
2
2
2
2
2
2
2
2
2
2
2
2
2
2
2
2
2
2
2
2
2
2
5
5
5
5
4
4
3
3
2
2
2
2
2
2
2
2
2
2
2
2
2
2
2
2
2
2
2
2
2
2
2
2
2
2
2
2
2
2
2
2
2
2
2
2
2
2
2
2
5
5
5
5
4
4
3
3
2
2
2
2
2
2
2
2
2
2
2
2
2
2
2
2
2
2
2
2
2
2
2
2
2
2
2
2
2
2
2
2
2
2
2
2
2
2
2
2
5
5
5
5
4
4
3
3
2
2
2
2
2
2
2
2
2
2
2
2
2
2
2
2
2
2
2
2
2
2
2
2
2
2
2
2
2
2
2
2
2
2
2
2
2
2
2
2
5
5
5
5
4
4
3
3
2
2
2
2
2
2
2
2
2
2
2
2
2
2
2
2
2
2
2
2
2
2
2
2
2
2
2
2
2
2
2
2
2
2
2
2
2
2
2
2
5
5
5
5
4
4
3
3
2
2
2
2
2
2
2
2
2
2
2
2
2
2
2
2
2
2
2
2
2
2
2
2
2
2
2
2
2
2
2
2
2
2
2
2
2
2
2
2
4
4
3
3
2
2
2
2
2
2
2
2
2
2
2
2
2
2
2
2
2
2
2
2
2
2
2
2
2
2
2
2
2
2
2
2
2
2
2
2
2
2
2
2
4
4
3
3
2
2
2
2
2
2
2
2
2
2
2
2
2
2
2
2
2
2
2
2
2
2
2
2
2
2
2
2
2
2
2
2
2
2
2
2
2
2
2
2
4
4
3
3
2
2
2
2
2
2
2
2
2
2
2
2
2
2
2
2
2
2
2
2
2
2
2
2
2
2
2
2
2
2
2
2
2
2
2
2
2
2
2
2
4
4
3
3
2
2
2
2
2
2
2
2
2
2
2
2
2
2
2
2
2
2
2
2
2
2
2
2
2
2
2
2
2
2
2
2
2
2
2
2
2
2
2
2
4
4
3
3
2
2
2
2
2
2
2
2
2
2
2
2
2
2
2
2
2
2
2
2
2
2
2
2
2
2
2
2
2
2
2
2
2
2
2
2
2
2
2
2
4
4
3
3
2
2
2
2
2
2
2
2
2
2
2
2
2
2
2
2
2
2
2
2
2
2
2
2
2
2
2
2
2
2
2
2
2
2
2
2
2
2
2
2
4
4
3
3
2
2
2
2
2
2
2
2
2
2
2
2
2
2
2
2
2
2
2
2
2
2
2
2
2
2
2
2
2
2
2
2
2
2
2
2
2
2
2
2
4
4
3
3
2
2
2
2
2
2
2
2
2
2
2
2
2
2
2
2
2
2
2
2
2
2
2
2
2
2
2
2
2
2
2
2
2
2
2
2
2
2
2
2
4
4
3
3
2
2
2
2
2
2
2
2
2
2
2
2
2
2
2
2
2
2
2
2
2
2
2
2
2
2
2
2
2
2
2
2
2
2
2
2
2
2
2
2
4
4
3
3
2
2
2
2
2
2
2
2
2
2
2
2
2
2
2
2
2
2
2
2
2
2
2
2
2
2
2
2
2
2
2
2
2
2
2
2
2
2
2
2
4
4
3
3
2
2
2
2
2
2
2
2
2
2
2
2
2
2
2
2
2
2
2
2
2
2
2
2
2
2
2
2
2
2
2
2
2
2
2
2
2
2
2
2
4
4
3
3
2
2
2
2
2
2
2
2
2
2
2
2
2
2
2
2
2
2
2
2
2
2
2
2
2
2
2
2
2
2
2
2
2
2
2
2
2
2
2
2
4
4
3
3
2
2
2
2
2
2
2
2
2
2
2
2
2
2
2
2
2
2
2
2
2
2
2
2
2
2
2
2
2
2
2
2
2
2
2
2
2
2
2
2
4
4
3
3
2
2
2
2
2
2
2
2
2
2
2
2
2
2
2
2
2
2
2
2
2
2
2
2
2
2
2
2
2
2
2
2
2
2
2
2
2
2
2
2
4
4
3
3
2
2
2
2
2
2
2
2
2
2
2
2
2
2
2
2
2
2
2
2
2
2
2
2
2
2
2
2
2
2
2
2
2
2
2
2
2
2
2
2
4
4
3
3
2
2
2
2
2
2
2
2
2
2
2
2
2
2
2
2
2
2
2
2
2
2
2
2
2
2
2
2
2
2
2
2
2
2
2
2
2
2
2
2
4
4
3
3
2
2
2
2
2
2
2
2
2
2
2
2
2
2
2
2
2
2
2
2
2
2
2
2
2
2
2
2
2
2
2
2
2
2
2
2
2
2
2
2
4
4
3
3
2
2
2
2
2
2
2
2
2
2
2
2
2
2
2
2
2
2
2
2
2
2
2
2
2
2
2
2
2
2
2
2
2
2
2
2
2
2
2
2
4
4
3
3
2
2
2
2
2
2
2
2
2
2
2
2
2
2
2
2
2
2
2
2
2
2
2
2
2
2
2
2
2
2
2
2
2
2
2
2
2
2
2
2
4
4
3
3
2
2
2
2
2
2
2
2
2
2
2
2
2
2
2
2
2
2
2
2
2
2
2
2
2
2
2
2
2
2
2
2
2
2
2
2
2
2
2
2
4
4
3
3
2
2
2
2
2
2
2
2
2
2
2
2
2
2
2
2
2
2
2
2
2
2
2
2
2
2
2
2
2
2
2
2
2
2
2
2
2
2
2
2
4
4
3
3
2
2
2
2
2
2
2
2
2
2
2
2
2
2
2
2
2
2
2
2
2
2
2
2
2
2
2
2
2
2
2
2
2
2
2
2
2
2
2
2
4
4
3
3
2
2
2
2
2
2
2
2
2
2
2
2
2
2
2
2
2
2
2
2
2
2
2
2
2
2
2
2
2
2
2
2
2
2
2
2
2
2
2
2
4
4
3
3
2
2
2
2
2
2
2
2
2
2
2
2
2
2
2
2
2
2
2
2
2
2
2
2
2
2
2
2
2
2
2
2
2
2
2
2
2
2
2
2
4
4
3
3
2
2
2
2
2
2
2
2
2
2
2
2
2
2
2
2
2
2
2
2
2
2
2
2
2
2
2
2
2
2
2
2
2
2
2
2
2
2
2
2
4
4
3
3
2
2
2
2
2
2
2
2
2
2
2
2
2
2
2
2
2
2
2
2
2
2
2
2
2
2
2
2
2
2
2
2
2
2
2
2
2
2
2
2
4
4
3
3
2
2
2
2
2
2
2
2
2
2
2
2
2
2
2
2
2
2
2
2
2
2
2
2
2
2
2
2
2
2
2
2
2
2
2
2
2
2
2
2
4
4
3
3
2
2
2
2
2
2
2
2
2
2
2
2
2
2
2
2
2
2
2
2
2
2
2
2
2
2
2
2
2
2
2
2
2
2
2
2
2
2
2
2
4
4
3
3
2
2
2
2
2
2
2
2
2
2
2
2
2
2
2
2
2
2
2
2
2
2
2
2
2
2
2
2
2
2
2
2
2
2
2
2
2
2
2
2
4
4
3
3
3
3
3
3
3
3
3
3
3
3
3
3
3
3
3
3
3
3
3
3
3
3
3
3
3
3
3
3
3
3
3
3
3
3
3
3
3
3
3
3
</DataArray>
<DataArray NumberOfComponents='1' type='Float32' Name='Temperature' format='ascii'>
0.000000
0.000000
0.000000
0.000000
0.000000
0.000000
0.000000
0.000000
0.000000
0.000000
0.000000
0.000000
0.000000
0.000000
0.000000
0.000000
0.000000
0.000000
0.000000
0.000000
0.000000
0.000000
0.000000
0.000000
0.000000
0.000000
0.000000
0.000000
0.000000
0.000000
0.000000
0.000000
0.000000
0.000000
0.000000
0.000000
0.000000
0.000000
0.000000
0.000000
0.000000
0.000000
0.000000
0.000000
0.000000
0.000000
0.000000
0.000000
-0.290033
-0.523229
-0.761968
-0.996809
-1.227838
-1.454120
-1.674871
-1.889363
-2.096932
-2.296985
-2.489008
-2.672564
-2.847299
-3.012940
-3.169295
-3.316254
-3.453783
-3.581923
-3.700782
-3.810534
-3.911409
-4.003690
-4.087703
-4.163812
-4.232411
-4.293917
-4.348759
-4.397378
-4.440212
-4.477695
-4.510249
-4.538275
-4.562153
-4.582230
-4.598824
-4.612211
-4.622629
-4.630269
-4.635246
-4.638324
-3.000000
-3.000000
-3.000000
-3.000000
0.000000
0.000000
0.000000
0.000000
-0.287178
-0.518005
-0.754196
-0.986345
-1.214485
-1.437631
-1.654961
-1.865699
-2.069143
-2.264662
-2.451708
-2.629812
-2.798595
-2.957764
-3.107115
-3.246530
-3.375979
-3.495513
-3.605262
-3.705430
-3.796289
-3.878175
-3.951476
-4.016631
-4.074115
-4.124438
-4.168130
-4.205738
-4.237812
-4.264901
-4.287542
-4.306252
-4.321521
-4.333804
-4.343516
-4.351022
-4.356638
-4.360617
-4.363142
-4.364669
-3.000000
-3.000000
-3.000000
-3.000000
0.000000
0.000000
0.000000
0.000000
-0.286102
-0.516018
-0.751198
-0.982232
-1.209114
-1.430827
-1.646508
-1.855347
-2.056599
-2.249596
-2.433747
-2.608548
-2.773579
-2.928514
-3.073115
-3.207239
-3.330833
-3.443936
-3.546674
-3.639257
-3.721976
-3.795196
-3.859351
-3.914936
-3.962502
-4.002643
-4.035991
-4.063202
-4.084950
-4.101913
-4.114764
-4.124159
-4.130724
-4.135049
-4.137675
-4.139083
-4.139689
-4.139833
-4.139779
-4.139671
-3.000000
-3.000000
-3.000000
-3.000000
0.000000
0.000000
0.000000
0.000000
-0.285850
-0.515544
-0.750459
-0.981177
-1.207671
-1.428902
-1.643980
-1.852067
-2.052384
-2.244226
-2.426960
-2.600033
-2.762976
-2.915407
-3.057034
-3.187655
-3.307159
-3.415532
-3.512850
-3.599284
-3.675095
-3.740633
-3.796335
-3.842722
-3.880389
-3.910003
-3.932295
-3.948046
-3.958078
-3.963245
-3.964410
-3.962437
-3.958169
-3.952415
-3.945928
-3.939392
-3.933402
-3.928455
-3.924958
-3.922657
-3.000000
-3.000000
-3.000000
-3.000000
0.000000
0.000000
0.000000
0.000000
-0.285837
-0.515516
-0.750413
-0.981105
-1.207562
-1.428738
-1.643739
-1.851715
-2.051875
-2.243497
-2.425926
-2.598580
-2.760953
-2.912619
-3.053227
-3.182508
-3.300272
-3.406410
-3.500894
-3.583778
-3.655199
-3.715385
-3.764649
-3.803405
-3.832161
-3.851534
-3.862244
-3.865125
-3.861115
-3.851257
-3.836682
-3.818593
-3.798242
-3.776896
-3.755798
-3.736128
-3.718957
-3.705204
-3.695668
-3.689475
-3.000000
-3.000000
-3.000000
-3.000000
0.000000
0.000000
0.000000
0.000000
-0.285837
-0.515516
-0.750413
-0.981105
-1.207562
-1.428738
-1.643739
-1.851714
-2.051873
-2.243494
-2.425919
-2.598568
-2.760932
-2.912582
-3.053163
-3.182397
-3.300085
-3.406096
-3.500376
-3.582934
-3.653847
-3.713245
-3.761316
-3.798290
-3.824435
-3.840049
-3.845458
-3.841010
-3.827089
-3.804134
-3.772682
-3.733429
-3.687328
-3.635707
-3.580405
-3.523915
-3.469486
-3.421082
-3.383912
-3.355714
-3.000000
-3.000000
-3.000000
-3.000000
0.000000
0.000000
0.000000
0.000000
-0.285837
-0.515516
-0.750413
-0.981105
-1.207562
-1.428738
-1.643739
-1.851714
-2.051873
-2.243494
-2.425919
-2.598568
-2.760932
-2.912582
-3.053163
-3.182397
-3.300085
-3.406096
-3.500376
-3.582934
-3.653847
-3.713245
-3.761316
-3.798290
-3.824435
-3.840049
-3.845458
-3.841010
-3.827088
-3.804132
-3.772675
-3.733409
-3.687272
-3.635552
-3.579996
-3.522869
-3.466869
-3.414805
-3.368880
-3.320081
-3.000000
-3.000000
-3.000000
-3.000000
0.000000
0.000000
0.000000
0.000000
-0.285837
-0.515516
-0.750413
-0.981105
-1.207562
-1.428738
-1.643739
-1.851714
-2.051873
-2.243494
-2.425919
-2.598568
-2.760932
-2.912582
-3.053163
-3.182397
-3.300085
-3.406096
-3.500376
-3.582934
-3.653847
-3.713245
-3.761316
-3.798290
-3.824435
-3.840049
-3.845458
-3.841010
-3.827088
-3.804132
-3.772675
-3.733409
-3.687272
-3.635552
-3.579996
-3.522869
-3.466869
-3.414805
-3.368880
-3.320081
-3.000000
-3.000000
-3.000000
-3.000000
0.000000
0.000000
0.000000
0.000000
-0.285837
-0.515516
-0.750413
-0.981105
-1.207562
-1.428738
-1.643739
-1.851714
-2.051873
-2.243494
-2.425919
-2.598568
-2.760932
-2.912582
-3.053163
-3.182397
-3.300085
-3.406096
-3.500376
-3.582934
-3.653847
-3.713245
-3.761316
-3.798290
-3.824435
-3.840049
-3.845458
-3.841010
-3.827088
-3.804132
-3.772675
-3.733409
-3.687272
-3.635552
-3.579996
-3.522869
-3.466869
-3.414805
-3.368880
-3.320081
-3.000000
-3.000000
-3.000000
-3.000000
0.000000
0.000000
0.000000
0.000000
-0.285837
-0.515516
-0.750413
-0.981105
-1.207562
-1.428738
-1.643739
-1.851714
-2.051873
-2.243494
-2.425919
-2.598568
-2.760932
-2.912582
-3.053163
-3.182397
-3.300085
-3.406096
-3.500376
-3.582934
-3.653847
-3.713245
-3.761316
-3.798290
-3.824435
-3.840049
-3.845458
-3.841010
-3.827088
-3.804132
-3.772675
-3.733409
-3.687272
-3.635552
-3.579996
-3.522869
-3.466869
-3.414805
-3.368880
-3.320081
-3.000000
-3.000000
-3.000000
-3.000000
0.000000
0.000000
0.000000
0.000000
-0.287999
-0.519443
-0.756186
-0.988756
-1.217139
-1.440297
-1.657339
-1.867421
-2.069753
-2.263609
-2.448328
-2.623319
-2.788064
-2.942116
-3.085101
-3.216721
-3.336748
-3.445026
-3.541467
-3.626050
-3.698814
-3.759857
-3.809329
-3.847424
-3.874376
-3.890449
-3.895935
-3.891156
-3.876470
-3.852297
-3.819164
-3.777771
-3.729084
-3.674448
-3.615700
-3.555235
-3.495917
-3.440726
-3.392008
-3.340196
0.000000
0.000000
0.000000
0.000000
-0.291084
-0.525067
-0.764509
-0.999880
-1.231207
-1.457480
-1.677832
-1.891438
-2.097523
-2.295368
-2.484313
-2.663760
-2.833176
-2.992088
-3.140092
-3.276844
-3.402065
-3.515536
-3.617101
-3.706657
-3.784162
-3.849620
-3.903086
-3.944657
-3.974465
-3.992677
-3.999487
-3.995127
-3.979875
-3.954086
-3.918249
-3.873059
-3.819529
-3.759119
-3.693865
-3.626450
-3.560107
-3.498213
-3.443435
-3.385001
0.000000
0.000000
0.000000
0.000000
-0.292946
-0.528494
-0.769653
-1.006888
-1.240277
-1.468854
-1.691799
-1.908325
-2.117697
-2.319229
-2.512289
-2.696300
-2.870738
-3.035132
-3.189063
-3.332160
-3.464100
-3.584603
-3.693433
-3.790389
-3.875309
-3.948066
-4.008562
-4.056725
-4.092512
-4.115898
-4.126890
-4.125526
-4.111906
-4.086229
-4.048860
-4.000430
-3.941969
-3.875061
-3.801996
-3.725858
-3.650408
-3.579601
-3.516588
-3.448937
0.000000
0.000000
0.000000
0.000000
-0.293553
-0.529636
-0.771424
-1.009402
-1.243694
-1.473379
-1.697689
-1.915896
-2.127325
-2.331359
-2.527439
-2.715060
-2.893772
-3.063175
-3.222913
-3.372667
-3.512148
-3.641086
-3.759228
-3.866320
-3.962105
-4.046316
-4.118663
-4.178832
-4.226483
-4.261249
-4.282743
-4.290587
-4.284444
-4.264089
-4.229508
-4.181041
-4.119563
-4.046697
-3.965015
-3.878160
-3.790690
-3.707486
-3.632496
-3.550814
0.000000
0.000000
0.000000
0.000000
-0.293597
-0.529722
-0.771568
-1.009627
-1.244034
-1.473885
-1.698431
-1.916972
-2.128871
-2.333559
-2.530540
-2.719389
-2.899757
-3.071367
-3.234011
-3.387546
-3.531883
-3.666974
-3.792801
-3.909351
-4.016590
-4.114432
-4.202704
-4.281102
-4.349151
-4.406170
-4.451248
-4.483248
-4.500855
-4.502670
-4.487393
-4.454077
-4.402465
-4.333390
-4.249161
-4.153816
-4.052982
-3.953055
-3.859443
-3.752927
0.000000
0.000000
0.000000
0.000000
-0.293597
-0.529722
-0.771569
-1.009628
-1.244035
-1.473886
-1.698433
-1.916976
-2.128879
-2.333575
-2.530567
-2.719438
-2.899843
-3.071517
-3.234271
-3.387987
-3.532622
-3.668199
-3.794801
-3.912572
-4.021705
-4.122436
-4.215043
-4.299831
-4.377134
-4.447300
-4.510689
-4.567667
-4.618596
-4.663829
-4.703698
-4.738495
-4.768433
-4.793555
-4.813534
-4.827229
-4.831714
-4.820618
-4.779240
-4.667499
0.000000
0.000000
0.000000
0.000000
-0.293597
-0.529722
-0.771569
-1.009628
-1.244035
-1.473886
-1.698433
-1.916976
-2.128879
-2.333575
-2.530567
-2.719438
-2.899843
-3.071517
-3.234271
-3.387987
-3.532622
-3.668199
-3.794801
-3.912572
-4.021705
-4.122436
-4.215043
-4.299831
-4.377134
-4.447300
-4.510690
-4.567669
-4.618601
-4.663845
-4.703745
-4.738630
-4.768807
-4.794559
-4.816139
-4.833772
-4.847645
-4.857912
-4.864646
-4.868833
0.000000
0.000000
0.000000
0.000000
-0.293597
-0.529722
-0.771569
-1.009628
-1.244035
-1.473886
-1.698433
-1.916976
-2.128879
-2.333575
-2.530567
-2.719438
-2.899843
-3.071517
-3.234271
-3.387987
-3.532622
-3.668199
-3.794801
-3.912572
-4.021705
-4.122436
-4.215043
-4.299831
-4.377134
-4.447300
-4.510690
-4.567669
-4.618601
-4.663845
-4.703745
-4.738630
-4.768807
-4.794559
-4.816139
-4.833772
-4.847645
-4.857912
-4.864646
-4.868833
0.000000
0.000000
0.000000
0.000000
-0.293597
-0.529722
-0.771569
-1.009628
-1.244035
-1.473886
-1.698433
-1.916976
-2.128879
-2.333575
-2.530567
-2.719438
-2.899843
-3.071517
-3.234271
-3.387987
-3.532622
-3.668199
-3.794801
-3.912572
-4.021705
-4.122436
-4.215043
-4.299831
-4.377134
-4.447300
-4.510690
-4.567669
-4.618601
-4.663845
-4.703745
-4.738630
-4.768807
-4.794559
-4.816139
-4.833772
-4.847645
-4.857912
-4.864646
-4.868833
0.000000
0.000000
0.000000
0.000000
-0.293597
-0.529722
-0.771569
-1.009628
-1.244035
-1.473886
-1.698433
-1.916976
-2.128879
-2.333575
-2.530567
-2.719438
-2.899843
-3.071517
-3.234271
-3.387987
-3.532622
-3.668199
-3.794801
-3.912572
-4.021705
-4.122436
-4.215043
-4.299831
-4.377134
-4.447300
-4.510690
-4.567669
-4.618601
-4.663845
-4.703745
-4.738630
-4.768807
-4.794559
-4.816139
-4.833772
-4.847645
-4.857912
-4.864646
-4.868833
0.000000
0.000000
0.000000
0.000000
-0.293597
-0.529722
-0.771569
-1.009628
-1.244035
-1.473886
-1.698433
-1.916976
-2.128879
-2.333575
-2.530567
-2.719438
-2.899843
-3.071517
-3.234271
-3.387987
-3.532622
-3.668199
-3.794801
-3.912572
-4.021705
-4.122436
-4.215043
-4.299831
-4.377134
-4.447300
-4.510690
-4.567669
-4.618601
-4.663845
-4.703745
-4.738630
-4.768807
-4.794559
-4.816139
-4.833772
-4.847645
-4.857912
-4.864646
-4.868833
0.000000
0.000000
0.000000
0.000000
-0.293597
-0.529722
-0.771569
-1.009628
-1.244035
-1.473886
-1.698433
-1.916976
-2.128879
-2.333575
-2.530567
-2.719438
-2.899843
-3.071517
-3.234271
-3.387987
-3.532622
-3.668199
-3.794801
-3.912572
-4.021705
-4.122436
-4.215043
-4.299831
-4.377134
-4.447300
-4.510690
-4.567669
-4.618601
-4.663845
-4.703745
-4.738630
-4.768807
-4.794559
-4.816139
-4.833772
-4.847645
-4.857912
-4.864646
-4.868833
0.000000
0.000000
0.000000
0.000000
-0.293597
-0.529722
-0.771569
-1.009628
-1.244035
-1.473886
-1.698433
-1.916976
-2.128879
-2.333575
-2.530567
-2.719438
-2.899843
-3.071517
-3.234271
-3.387987
-3.532622
-3.668199
-3.794801
-3.912572
-4.021705
-4.122436
-4.215043
-4.299831
-4.377134
-4.447300
-4.510690
-4.567669
-4.618601
-4.663845
-4.703745
-4.738630
-4.768807
-4.794559
-4.816139
-4.833772
-4.847645
-4.857912
-4.864646
-4.868833
0.000000
0.000000
0.000000
0.000000
-0.293597
-0.529722
-0.771569
-1.009628
-1.244035
-1.473886
-1.698433
-1.916976
-2.128879
-2.333575
-2.530567
-2.719438
-2.899843
-3.071517
-3.234271
-3.387987
-3.532622
-3.668199
-3.794801
-3.912572
-4.021705
-4.122436
-4.215043
-4.299831
-4.377134
-4.447300
-4.510690
-4.567669
-4.618601
-4.663845
-4.703745
-4.738630
-4.768807
-4.794559
-4.816139
-4.833772
-4.847645
-4.857912
-4.864646
-4.868833
0.000000
0.000000
0.000000
0.000000
-0.293597
-0.529722
-0.771569
-1.009628
-1.244035
-1.473886
-1.698433
-1.916976
-2.128879
-2.333575
-2.530567
-2.719438
-2.899843
-3.071517
-3.234271
-3.387987
-3.532622
-3.668199
-3.794801
-3.912572
-4.021705
-4.122436
-4.215043
-4.299831
-4.377134
-4.447300
-4.510690
-4.567669
-4.618601
-4.663845
-4.703745
-4.738630
-4.768807
-4.794559
-4.816139
-4.833772
-4.847645
-4.857912
-4.864646
-4.868833
0.000000
0.000000
0.000000
0.000000
-0.293597
-0.529722
-0.771569
-1.009628
-1.244035
-1.473886
-1.698433
-1.916976
-2.128879
-2.333575
-2.530567
-2.719438
-2.899843
-3.071517
-3.234271
-3.387987
-3.532622
-3.668199
-3.794801
-3.912572
-4.021705
-4.122436
-4.215043
-4.299831
-4.377134
-4.447300
-4.510690
-4.567669
-4.618601
-4.663845
-4.703745
-4.738630
-4.768807
-4.794559
-4.816139
-4.833772
-4.847645
-4.857912
-4.864646
-4.868833
0.000000
0.000000
0.000000
0.000000
-0.293597
-0.529722
-0.771569
-1.009628
-1.244035
-1.473886
-1.698433
-1.916976
-2.128879
-2.333575
-2.530567
-2.719438
-2.899843
-3.071517
-3.234271
-3.387987
-3.532622
-3.668199
-3.794801
-3.912572
-4.021705
-4.122436
-4.215043
-4.299831
-4.377134
-4.447300
-4.510690
-4.567669
-4.618601
-4.663845
-4.703745
-4.738630
-4.768807
-4.794559
-4.816139
-4.833772
-4.847645
-4.857912
-4.864646
-4.868833
0.000000
0.000000
0.000000
0.000000
-0.293597
-0.529722
-0.771569
-1.009628
-1.244035
-1.473886
-1.698433
-1.916976
-2.128879
-2.333575
-2.530567
-2.719438
-2.899843
-3.071517
-3.234271
-3.387987
-3.532622
-3.668199
-3.794801
-3.912572
-4.021705
-4.122436
-4.215043
-4.299831
-4.377134
-4.447300
-4.510690
-4.567669
-4.618601
-4.663845
-4.703745
-4.738630
-4.768807
-4.794559
-4.816139
-4.833772
-4.847645
-4.857912
-4.864646
-4.868833
0.000000
0.000000
0.000000
0.000000
-0.293597
-0.529722
-0.771569
-1.009628
-1.244035
-1.473886
-1.698433
-1.916976
-2.128879
-2.333575
-2.530567
-2.719438
-2.899843
-3.071517
-3.234271
-3.387987
-3.532622
-3.668199
-3.794801
-3.912572
-4.021705
-4.122436
-4.215043
-4.299831
-4.377134
-4.447300
-4.510690
-4.567669
-4.618601
-4.663845
-4.703745
-4.738630
-4.768807
-4.794559
-4.816139
-4.833772
-4.847645
-4.857912
-4.864646
-4.868833
0.000000
0.000000
0.000000
0.000000
-0.293597
-0.529722
-0.771569
-1.009628
-1.244035
-1.473886
-1.698433
-1.916976
-2.128879
-2.333575
-2.530567
-2.719438
-2.899843
-3.071517
-3.234271
-3.387987
-3.532622
-3.668199
-3.794801
-3.912572
-4.021705
-4.122436
-4.215043
-4.299831
-4.377134
-4.447300
-4.510690
-4.567669
-4.618601
-4.663845
-4.703745
-4.738630
-4.768807
-4.794559
-4.816139
-4.833772
-4.847645
-4.857912
-4.864646
-4.868833
0.000000
0.000000
0.000000
0.000000
-0.293597
-0.529722
-0.771569
-1.009628
-1.244035
-1.473886
-1.698433
-1.916976
-2.128879
-2.333575
-2.530567
-2.719438
-2.899843
-3.071517
-3.234271
-3.387987
-3.532622
-3.668199
-3.794801
-3.912572
-4.021705
-4.122436
-4.215043
-4.299831
-4.377134
-4.447300
-4.510690
-4.567669
-4.618601
-4.663845
-4.703745
-4.738630
-4.768807
-4.794559
-4.816139
-4.833772
-4.847645
-4.857912
-4.864646
-4.868833
0.000000
0.000000
0.000000
0.000000
-0.293597
-0.529722
-0.771569
-1.009628
-1.244035
-1.473886
-1.698433
-1.916976
-2.128879
-2.333575
-2.530567
-2.719438
-2.899843
-3.071517
-3.234271
-3.387987
-3.532622
-3.668199
-3.794801
-3.912572
-4.021705
-4.122436
-4.215043
-4.299831
-4.377134
-4.447300
-4.510690
-4.567669
-4.618601
-4.663845
-4.703745
-4.738630
-4.768807
-4.794559
-4.816139
-4.833772
-4.847645
-4.857912
-4.864646
-4.868833
0.000000
0.000000
0.000000
0.000000
-0.293597
-0.529722
-0.771569
-1.009628
-1.244035
-1.473886
-1.698433
-1.916976
-2.128879
-2.333575
-2.530567
-2.719438
-2.899843
-3.071517
-3.234271
-3.387987
-3.532622
-3.668199
-3.794801
-3.912572
-4.021705
-4.122436
-4.215043
-4.299831
-4.377134
-4.447300
-4.510690
-4.567669
-4.618601
-4.663845
-4.703745
-4.738630
-4.768807
-4.794559
-4.816139
-4.833772
-4.847645
-4.857912
-4.864646
-4.868833
0.000000
0.000000
0.000000
0.000000
-0.293597
-0.529722
-0.771569
-1.009628
-1.244035
-1.473886
-1.698433
-1.916976
-2.128879
-2.333575
-2.530567
-2.719438
-2.899843
-3.071517
-3.234271
-3.387987
-3.532622
-3.668199
-3.794801
-3.912572
-4.021705
-4.122436
-4.215043
-4.299831
-4.377134
-4.447300
-4.510690
-4.567669
-4.618601
-4.663845
-4.703745
-4.738630
-4.768807
-4.794559
-4.816139
-4.833772
-4.847645
-4.857912
-4.864646
-4.868833
0.000000
0.000000
0.000000
0.000000
-0.293597
-0.529722
-0.771569
-1.009628
-1.244035
-1.473886
-1.698433
-1.916976
-2.128879
-2.333575
-2.530567
-2.719438
-2.899843
-3.071517
-3.234271
-3.387987
-3.532622
-3.668199
-3.794801
-3.912572
-4.021705
-4.122436
-4.215043
-4.299831
-4.377134
-4.447300
-4.510690
-4.567669
-4.618601
-4.663845
-4.703745
-4.738630
-4.768807
-4.794559
-4.816139
-4.833772
-4.847645