<?xml version='1.0' encoding='UTF-8'?>
<VTKFile xmlns='VTK' byte_order='LittleEndian' version='0.1' type='UnstructuredGrid'>
<UnstructuredGrid>
<Piece NumberOfCells='1888' NumberOfPoints='1888'>
<Points>
<DataArray NumberOfComponents='3' type='Float32' Name='Position' format='ascii'>
-0.040000 -0.030000 0.000000
-0.040000 -0.020000 0.000000
-0.040000 -0.010000 0.000000
-0.040000 0.000000 0.000000
-0.040000 0.010000 0.000000
-0.040000 0.020000 0.000000
-0.040000 0.030000 0.000000
-0.040000 0.040000 0.000000
-0.040000 0.050000 0.000000
-0.040000 0.060000 0.000000
-0.040000 0.070000 0.000000
-0.040000 0.080000 0.000000
-0.040000 0.090000 0.000000
-0.040000 0.100000 0.000000
-0.040000 0.110000 0.000000
-0.040000 0.120000 0.000000
-0.040000 0.130000 0.000000
-0.040000 0.140000 0.000000
-0.040000 0.150000 0.000000
-0.040000 0.160000 0.000000
-0.040000 0.170000 0.000000
-0.040000 0.180000 0.000000
-0.040000 0.190000 0.000000
-0.040000 0.200000 0.000000
-0.040000 0.210000 0.000000
-0.040000 0.220000 0.000000
-0.040000 0.230000 0.000000
-0.040000 0.240000 0.000000
-0.040000 0.250000 0.000000
-0.040000 0.260000 0.000000
-0.040000 0.270000 0.000000
-0.040000 0.280000 0.000000
-0.040000 0.290000 0.000000
-0.040000 0.300000 0.000000
-0.040000 0.310000 0.000000
-0.040000 0.320000 0.000000
-0.040000 0.330000 0.000000
-0.040000 0.340000 0.000000
-0.040000 0.350000 0.000000
-0.040000 0.360000 0.000000
-0.040000 0.370000 0.000000
-0.040000 0.380000 0.000000
-0.040000 0.390000 0.000000
-0.040000 0.400000 0.000000
0.010000 -0.030000 0.000000
0.010000 -0.020000 0.000000
0.010000 -0.010000 0.000000
0.010000 0.000000 0.000000
0.010000 0.010000 0.000000
0.010000 0.020000 0.000000
0.010000 0.030000 0.000000
0.010000 0.040000 0.000000
0.010000 0.050000 0.000000
0.010000 0.060000 0.000000
0.010000 0.070000 0.000000
0.010000 0.080000 0.000000
0.010000 0.090000 0.000000
0.010000 0.100000 0.000000
0.010000 0.110000 0.000000
0.010000 0.120000 0.000000
0.010000 0.130000 0.000000
0.010000 0.140000 0.000000
0.010000 0.150000 0.000000
0.010000 0.160000 0.000000
0.010000 0.170000 0.000000
0.010000 0.180000 0.000000
0.010000 0.190000 0.000000
0.010000 0.200000 0.000000
0.010000 0.210000 0.000000
0.010000 0.220000 0.000000
0.010000 0.230000 0.000000
0.010000 0.240000 0.000000
0.010000 0.250000 0.000000
0.010000 0.260000 0.000000
0.010000 0.270000 0.000000
0.010000 0.280000 0.000000
0.010000 0.290000 0.000000
0.010000 0.300000 0.000000
0.010000 0.310000 0.000000
0.010000 0.320000 0.000000
0.010000 0.330000 0.000000
0.010000 0.340000 0.000000
0.010000 0.350000 0.000000
0.010000 0.360000 0.000000
0.010000 0.370000 0.000000
0.010000 0.380000 0.000000
0.010000 0.390000 0.000000
0.010000 0.400000 0.000000
0.418000 0.410000 0.000000
0.418000 0.420000 0.000000
0.418000 0.430000 0.000000
0.418000 0.440000 0.000000
0.060000 -0.030000 0.000000
0.060000 -0.020000 0.000000
0.060000 -0.010000 0.000000
0.060000 0.000000 0.000000
0.060000 0.010000 0.000000
0.060000 0.020000 0.000000
0.060000 0.030000 0.000000
0.060000 0.040000 0.000000
0.060000 0.050000 0.000000
0.060000 0.060000 0.000000
0.060000 0.070000 0.000000
0.060000 0.080000 0.000000
0.060000 0.090000 0.000000
0.060000 0.100000 0.000000
0.060000 0.110000 0.000000
0.060000 0.120000 0.000000
0.060000 0.130000 0.000000
0.060000 0.140000 0.000000
0.060000 0.150000 0.000000
0.060000 0.160000 0.000000
0.060000 0.170000 0.000000
0.060000 0.180000 0.000000
0.060000 0.190000 0.000000
0.060000 0.200000 0.000000
0.060000 0.210000 0.000000
0.060000 0.220000 0.000000
0.060000 0.230000 0.000000
0.060000 0.240000 0.000000
0.060000 0.250000 0.000000
0.060000 0.260000 0.000000
0.060000 0.270000 0.000000
0.060000 0.280000 0.000000
0.060000 0.290000 0.000000
0.060000 0.300000 0.000000
0.060000 0.310000 0.000000
0.060000 0.320000 0.000000
0.060000 0.330000 0.000000
0.060000 0.340000 0.000000
0.060000 0.350000 0.000000
0.060000 0.360000 0.000000
0.060000 0.370000 0.000000
0.060000 0.380000 0.000000
0.060000 0.390000 0.000000
0.060000 0.400000 0.000000
0.468000 0.410000 0.000000
0.468000 0.420000 0.000000
0.468000 0.430000 0.000000
0.468000 0.440000 0.000000
0.110000 -0.030000 0.000000
0.110000 -0.020000 0.000000
0.110000 -0.010000 0.000000
0.110000 0.000000 0.000000
0.110000 0.010000 0.000000
0.110000 0.020000 0.000000
0.110000 0.030000 0.000000
0.110000 0.040000 0.000000
0.110000 0.050000 0.000000
0.110000 0.060000 0.000000
0.110000 0.070000 0.000000
0.110000 0.080000 0.000000
0.110000 0.090000 0.000000
0.110000 0.100000 0.000000
0.110000 0.110000 0.000000
0.110000 0.120000 0.000000
0.110000 0.130000 0.000000
0.110000 0.140000 0.000000
0.110000 0.150000 0.000000
0.110000 0.160000 0.000000
0.110000 0.170000 0.000000
0.110000 0.180000 0.000000
0.110000 0.190000 0.000000
0.110000 0.200000 0.000000
0.110000 0.210000 0.000000
0.110000 0.220000 0.000000
0.110000 0.230000 0.000000
0.110000 0.240000 0.000000
0.110000 0.250000 0.000000
0.110000 0.260000 0.000000
0.110000 0.270000 0.000000
0.110000 0.280000 0.000000
0.110000 0.290000 0.000000
0.110000 0.300000 0.000000
0.110000 0.310000 0.000000
0.110000 0.320000 0.000000
0.110000 0.330000 0.000000
0.110000 0.340000 0.000000
0.110000 0.350000 0.000000
0.110000 0.360000 0.000000
0.110000 0.370000 0.000000
0.110000 0.380000 0.000000
0.110000 0.390000 0.000000
0.110000 0.400000 0.000000
0.518000 0.410000 0.000000
0.518000 0.420000 0.000000
0.518000 0.430000 0.000000
0.518000 0.440000 0.000000
0.160000 -0.030000 0.000000
0.160000 -0.020000 0.000000
0.160000 -0.010000 0.000000
0.160000 0.000000 0.000000
0.160000 0.010000 0.000000
0.160000 0.020000 0.000000
0.160000 0.030000 0.000000
0.160000 0.040000 0.000000
0.160000 0.050000 0.000000
0.160000 0.060000 0.000000
0.160000 0.070000 0.000000
0.160000 0.080000 0.000000
0.160000 0.090000 0.000000
0.160000 0.100000 0.000000
0.160000 0.110000 0.000000
0.160000 0.120000 0.000000
0.160000 0.130000 0.000000
0.160000 0.140000 0.000000
0.160000 0.150000 0.000000
0.160000 0.160000 0.000000
0.160000 0.170000 0.000000
0.160000 0.180000 0.000000
0.160000 0.190000 0.000000
0.160000 0.200000 0.000000
0.160000 0.210000 0.000000
0.160000 0.220000 0.000000
0.160000 0.230000 0.000000
0.160000 0.240000 0.000000
0.160000 0.250000 0.000000
0.160000 0.260000 0.000000
0.160000 0.270000 0.000000
0.160000 0.280000 0.000000
0.160000 0.290000 0.000000
0.160000 0.300000 0.000000
0.160000 0.310000 0.000000
0.160000 0.320000 0.000000
0.160000 0.330000 0.000000
0.160000 0.340000 0.000000
0.160000 0.350000 0.000000
0.160000 0.360000 0.000000
0.160000 0.370000 0.000000
0.160000 0.380000 0.000000
0.160000 0.390000 0.000000
0.160000 0.400000 0.000000
0.568000 0.410000 0.000000
0.568000 0.420000 0.000000
0.568000 0.430000 0.000000
0.568000 0.440000 0.000000
0.210000 -0.030000 0.000000
0.210000 -0.020000 0.000000
0.210000 -0.010000 0.000000
0.210000 0.000000 0.000000
0.210000 0.010000 0.000000
0.210000 0.020000 0.000000
0.210000 0.030000 0.000000
0.210000 0.040000 0.000000
0.210000 0.050000 0.000000
0.210000 0.060000 0.000000
0.210000 0.070000 0.000000
0.210000 0.080000 0.000000
0.210000 0.090000 0.000000
0.210000 0.100000 0.000000
0.210000 0.110000 0.000000
0.210000 0.120000 0.000000
0.210000 0.130000 0.000000
0.210000 0.140000 0.000000
0.210000 0.150000 0.000000
0.210000 0.160000 0.000000
0.210000 0.170000 0.000000
0.210000 0.180000 0.000000
0.210000 0.190000 0.000000
0.210000 0.200000 0.000000
0.210000 0.210000 0.000000
0.210000 0.220000 0.000000
0.210000 0.230000 0.000000
0.210000 0.240000 0.000000
0.210000 0.250000 0.000000
0.210000 0.260000 0.000000
0.210000 0.270000 0.000000
0.210000 0.280000 0.000000
0.210000 0.290000 0.000000
0.210000 0.300000 0.000000
0.210000 0.310000 0.000000
0.210000 0.320000 0.000000
0.210000 0.330000 0.000000
0.210000 0.340000 0.000000
0.210000 0.350000 0.000000
0.210000 0.360000 0.000000
0.210000 0.370000 0.000000
0.210000 0.380000 0.000000
0.210000 0.390000 0.000000
0.210000 0.400000 0.000000
0.618000 0.410000 0.000000
0.618000 0.420000 0.000000
0.618000 0.430000 0.000000
0.618000 0.440000 0.000000
0.260000 -0.030000 0.000000
0.260000 -0.020000 0.000000
0.260000 -0.010000 0.000000
0.260000 0.000000 0.000000
0.260000 0.010000 0.000000
0.260000 0.020000 0.000000
0.260000 0.030000 0.000000
0.260000 0.040000 0.000000
0.260000 0.050000 0.000000
0.260000 0.060000 0.000000
0.260000 0.070000 0.000000
0.260000 0.080000 0.000000
0.260000 0.090000 0.000000
0.260000 0.100000 0.000000
0.260000 0.110000 0.000000
0.260000 0.120000 0.000000
0.260000 0.130000 0.000000
0.260000 0.140000 0.000000
0.260000 0.150000 0.000000
0.260000 0.160000 0.000000
0.260000 0.170000 0.000000
0.260000 0.180000 0.000000
0.260000 0.190000 0.000000
0.260000 0.200000 0.000000
0.260000 0.210000 0.000000
0.260000 0.220000 0.000000
0.260000 0.230000 0.000000
0.260000 0.240000 0.000000
0.260000 0.250000 0.000000
0.260000 0.260000 0.000000
0.260000 0.270000 0.000000
0.260000 0.280000 0.000000
0.260000 0.290000 0.000000
0.260000 0.300000 0.000000
0.260000 0.310000 0.000000
0.260000 0.320000 0.000000
0.260000 0.330000 0.000000
0.260000 0.340000 0.000000
0.260000 0.350000 0.000000
0.260000 0.360000 0.000000
0.260000 0.370000 0.000000
0.260000 0.380000 0.000000
0.260000 0.390000 0.000000
0.260000 0.400000 0.000000
0.668000 0.410000 0.000000
0.668000 0.420000 0.000000
0.668000 0.430000 0.000000
0.668000 0.440000 0.000000
0.310000 -0.030000 0.000000
0.310000 -0.020000 0.000000
0.310000 -0.010000 0.000000
0.310000 0.000000 0.000000
0.310000 0.010000 0.000000
0.310000 0.020000 0.000000
0.310000 0.030000 0.000000
0.310000 0.040000 0.000000
0.310000 0.050000 0.000000
0.310000 0.060000 0.000000
0.310000 0.070000 0.000000
0.310000 0.080000 0.000000
0.310000 0.090000 0.000000
0.310000 0.100000 0.000000
0.310000 0.110000 0.000000
0.310000 0.120000 0.000000
0.310000 0.130000 0.000000
0.310000 0.140000 0.000000
0.310000 0.150000 0.000000
0.310000 0.160000 0.000000
0.310000 0.170000 0.000000
0.310000 0.180000 0.000000
0.310000 0.190000 0.000000
0.310000 0.200000 0.000000
0.310000 0.210000 0.000000
[...]
<PointData>
<DataArray NumberOfComponents='1' type='Int32' Name='ParticleType' format='ascii'>
4
4
4
4
4
4
4
4
4
4
4
4
4
4
4
4
4
4
4
4
4
4
4
4
4
4
4
4
4
4
4
4
4
4
4
4
4
4
4
4
4
4
4
4
4
4
3
3
2
2
2
2
2
2
2
2
2
2
2
2
2
2
2
2
2
2
2
2
2
2
2
2
2
2
2
2
2
2
2
2
2
2
2
2
2
2
2
2
5
5
5
5
4
4
3
3
2
2
2
2
2
2
2
2
2
2
2
2
2
2
2
2
2
2
2
2
2
2
2
2
2
2
2
2
2
2
2
2
2
2
2
2
2
2
2
2
5
5
5
5
4
4
3
3
2
2
2
2
2
2
2
2
2
2
2
2
2
2
2
2
2
2
2
2
2
2
2
2
2
2
2
2
2
2
2
2
2
2
2
2
2
2
2
2
5
5
5
5
4
4
3
3
2
2
2
2
2
2
2
2
2
2
2
2
2
2
2
2
2
2
2
2
2
2
2
2
2
2
2
2
2
2
2
2
2
2
2
2
2
2
2
2
5
5
5
5
4
4
3
3
2
2
2
2
2
2
2
2
2
2
2
2
2
2
2
2
2
2
2
2
2
2
2
2
2
2
2
2
2
2
2
2
2
2
2
2
2
2
2
2
5
5
5
5
4
4
3
3
2
2
2
2
2
2
2
2
2
2
2
2
2
2
2
2
2
2
2
2
2
2
2
2
2
2
2
2
2
2
2
2
2
2
2
2
2
2
2
2
5
5
5
5
4
4
3
3
2
2
2
2
2
2
2
2
2
2
2
2
2
2
2
2
2
2
2
2
2
2
2
2
2
2
2
2
2
2
2
2
2
2
2
2
2
2
2
2
5
5
5
5
4
4
3
3
2
2
2
2
2
2
2
2
2
2
2
2
2
2
2
2
2
2
2
2
2
2
2
2
2
2
2
2
2
2
2
2
2
2
2
2
2
2
2
2
5
5
5
5
4
4
3
3
2
2
2
2
2
2
2
2
2
2
2
2
2
2
2
2
2
2
2
2
2
2
2
2
2
2
2
2
2
2
2
2
2
2
2
2
2
2
2
2
5
5
5
5
4
4
3
3
2
2
2
2
2
2
2
2
2
2
2
2
2
2
2
2
2
2
2
2
2
2
2
2
2
2
2
2
2
2
2
2
2
2
2
2
2
2
2
2
5
5
5
5
4
4
3
3
2
2
2
2
2
2
2
2
2
2
2
2
2
2
2
2
2
2
2
2
2
2
2
2
2
2
2
2
2
2
2
2
2
2
2
2
2
2
2
2
4
4
3
3
2
2
2
2
2
2
2
2
2
2
2
2
2
2
2
2
2
2
2
2
2
2
2
2
2
2
2
2
2
2
2
2
2
2
2
2
2
2
2
2
4
4
3
3
2
2
2
2
2
2
2
2
2
2
2
2
2
2
2
2
2
2
2
2
2
2
2
2
2
2
2
2
2
2
2
2
2
2
2
2
2
2
2
2
4
4
3
3
2
2
2
2
2
2
2
2
2
2
2
2
2
2
2
2
2
2
2
2
2
2
2
2
2
2
2
2
2
2
2
2
2
2
2
2
2
2
2
2
4
4
3
3
2
2
2
2
2
2
2
2
2
2
2
2
2
2
2
2
2
2
2
2
2
2
2
2
2
2
2
2
2
2
2
2
2
2
2
2
2
2
2
2
4
4
3
3
2
2
2
2
2
2
2
2
2
2
2
2
2
2
2
2
2
2
2
2
2
2
2
2
2
2
2
2
2
2
2
2
2
2
2
2
2
2
2
2
4
4
3
3
2
2
2
2
2
2
2
2
2
2
2
2
2
2
2
2
2
2
2
2
2
2
2
2
2
2
2
2
2
2
2
2
2
2
2
2
2
2
2
2
4
4
3
3
2
2
2
2
2
2
2
2
2
2
2
2
2
2
2
2
2
2
2
2
2
2
2
2
2
2
2
2
2
2
2
2
2
2
2
2
2
2
2
2
4
4
3
3
2
2
2
2
2
2
2
2
2
2
2
2
2
2
2
2
2
2
2
2
2
2
2
2
2
2
2
2
2
2
2
2
2
2
2
2
2
2
2
2
4
4
3
3
2
2
2
2
2
2
2
2
2
2
2
2
2
2
2
2
2
2
2
2
2
2
2
2
2
2
2
2
2
2
2
2
2
2
2
2
2
2
2
2
4
4
3
3
2
2
2
2
2
2
2
2
2
2
2
2
2
2
2
2
2
2
2
2
2
2
2
2
2
2
2
2
2
2
2
2
2
2
2
2
2
2
2
2
4
4
3
3
2
2
2
2
2
2
2
2
2
2
2
2
2
2
2
2
2
2
2
2
2
2
2
2
2
2
2
2
2
2
2
2
2
2
2
2
2
2
2
2
4
4
3
3
2
2
2
2
2
2
2
2
2
2
2
2
2
2
2
2
2
2
2
2
2
2
2
2
2
2
2
2
2
2
2
2
2
2
2
2
2
2
2
2
4
4
3
3
2
2
2
2
2
2
2
2
2
2
2
2
2
2
2
2
2
2
2
2
2
2
2
2
2
2
2
2
2
2
2
2
2
2
2
2
2
2
2
2
4
4
3
3
2
2
2
2
2
2
2
2
2
2
2
2
2
2
2
2
2
2
2
2
2
2
2
2
2
2
2
2
2
2
2
2
2
2
2
2
2
2
2
2
4
4
3
3
2
2
2
2
2
2
2
2
2
2
2
2
2
2
2
2
2
2
2
2
2
2
2
2
2
2
2
2
2
2
2
2
2
2
2
2
2
2
2
2
4
4
3
3
2
2
2
2
2
2
2
2
2
2
2
2
2
2
2
2
2
2
2
2
2
2
2
2
2
2
2
2
2
2
2
2
2
2
2
2
2
2
2
2
4
4
3
3
2
2
2
2
2
2
2
2
2
2
2
2
2
2
2
2
2
2
2
2
2
2
2
2
2
2
2
2
2
2
2
2
2
2
2
2
2
2
2
2
4
4
3
3
2
2
2
2
2
2
2
2
2
2
2
2
2
2
2
2
2
2
2
2
2
2
2
2
2
2
2
2
2
2
2
2
2
2
2
2
2
2
2
2
4
4
3
3
2
2
2
2
2
2
2
2
2
2
2
2
2
2
2
2
2
2
2
2
2
2
2
2
2
2
2
2
2
2
2
2
2
2
2
2
2
2
2
2
4
4
3
3
2
2
2
2
2
2
2
2
2
2
2
2
2
2
2
2
2
2
2
2
2
2
2
2
2
2
2
2
2
2
2
2
2
2
2
2
2
2
2
2
4
4
3
3
2
2
2
2
2
2
2
2
2
2
2
2
2
2
2
2
2
2
2
2
2
2
2
2
2
2
2
2
2
2
2
2
2
2
2
2
2
2
2
2
4
4
3
3
2
2
2
2
2
2
2
2
2
2
2
2
2
2
2
2
2
2
2
2
2
2
2
2
2
2
2
2
2
2
2
2
2
2
2
2
2
2
2
2
4
4
3
3
2
2
2
2
2
2
2
2
2
2
2
2
2
2
2
2
2
2
2
2
2
2
2
2
2
2
2
2
2
2
2
2
2
2
2
2
2
2
2
2
4
4
3
3
2
2
2
2
2
2
2
2
2
2
2
2
2
2
2
2
2
2
2
2
2
2
2
2
2
2
2
2
2
2
2
2
2
2
2
2
2
2
2
2
4
4
3
3
2
2
2
2
2
2
2
2
2
2
2
2
2
2
2
2
2
2
2
2
2
2
2
2
2
2
2
2
2
2
2
2
2
2
2
2
2
2
2
2
4
4
3
3
2
2
2
2
2
2
2
2
2
2
2
2
2
2
2
2
2
2
2
2
2
2
2
2
2
2
2
2
2
2
2
2
2
2
2
2
2
2
2
2
4
4
3
3
2
2
2
2
2
2
2
2
2
2
2
2
2
2
2
2
2
2
2
2
2
2
2
2
2
2
2
2
2
2
2
2
2
2
2
2
2
2
2
2
4
4
3
3
2
2
2
2
2
2
2
2
2
2
2
2
2
2
2
2
2
2
2
2
2
2
2
2
2
2
2
2
2
2
2
2
2
2
2
2
2
2
2
2
4
4
3
3
2
2
2
2
2
2
2
2
2
2
2
2
2
2
2
2
2
2
2
2
2
2
2
2
2
2
2
2
2
2
2
2
2
2
2
2
2
2
2
2
4
4
3
3
3
3
3
3
3
3
3
3
3
3
3
3
3
3
3
3
3
3
3
3
3
3
3
3
3
3
3
3
3
3
3
3
3
3
3
3
3
3
3
3
</DataArray>
<DataArray NumberOfComponents='1' type='Float32' Name='Temperature' format='ascii'>
0.000000
0.000000
0.000000
0.000000
0.000000
0.000000
0.000000
0.000000
0.000000
0.000000
0.000000
0.000000
0.000000
0.000000
0.000000
0.000000
0.000000
0.000000
0.000000
0.000000
0.000000
0.000000
0.000000
0.000000
0.000000
0.000000
0.000000
0.000000
0.000000
0.000000
0.000000
0.000000
0.000000
0.000000
0.000000
0.000000
0.000000
0.000000
0.000000
0.000000
0.000000
0.000000
0.000000
0.000000
0.000000
0.000000
0.000000
0.000000
-0.237574
-0.428901
-0.625293
-0.819246
-1.011045
-1.200114
-1.385987
-1.568211
-1.746366
-1.920058
-2.088927
-2.252646
-2.410923
-2.563504
-2.710171
-2.850744
-2.985077
-3.113063
-3.234629
-3.349732
-3.458364
-3.560545
-3.656319
-3.745756
-3.828947
-3.905997
-3.977029
-4.042175
-4.101575
-4.155372
-4.203713
-4.246739
-4.284589
-4.317393
-4.345271
-4.368329
-4.386661
-4.400340
-4.409367
-4.415007
-3.000000
-3.000000
-3.000000
-3.000000
0.000000
0.000000
0.000000
0.000000
-0.231995
-0.418781
-0.610432
-0.799583
-0.986477
-1.170520
-1.351227
-1.528131
-1.700794
-1.868815
-2.031824
-2.189491
-2.341525
-2.487674
-2.627728
-2.761517
-2.888914
-3.009829
-3.124212
-3.232051
-3.333368
-3.428215
-3.516676
-3.598862
-3.674903
-3.744952
-3.809176
-3.867753
-3.920870
-3.968716
-4.011481
-4.049351
-4.082505
-4.111110
-4.135321
-4.155275
-4.171090
-4.182863
-4.190618
-4.195457
-3.000000
-3.000000
-3.000000
-3.000000
0.000000
0.000000
0.000000
0.000000
-0.228567
-0.412549
-0.601251
-0.787384
-0.971155
-1.151951
-1.329265
-1.502611
-1.671539
-1.835629
-1.994504
-2.147825
-2.295296
-2.436665
-2.571726
-2.700314
-2.822314
-2.937652
-3.046296
-3.148257
-3.243584
-3.332362
-3.414709
-3.490772
-3.560724
-3.624759
-3.683089
-3.735939
-3.783541
-3.826132
-3.863947
-3.897216
-3.926161
-3.950989
-3.971891
-3.989035
-4.002568
-4.012608
-4.019206
-4.023314
-3.000000
-3.000000
-3.000000
-3.000000
0.000000
0.000000
0.000000
0.000000
-0.226436
-0.408663
-0.595496
-0.779682
-0.961397
-1.140004
-1.314973
-1.485798
-1.652005
-1.813161
-1.968870
-2.118782
-2.262591
-2.400039
-2.530915
-2.655058
-2.772358
-2.882750
-2.986220
-3.082797
-3.172555
-3.255610
-3.332114
-3.402254
-3.466245
-3.524329
-3.576768
-3.623839
-3.665828
-3.703028
-3.735728
-3.764213
-3.788755
-3.809611
-3.827017
-3.841182
-3.852288
-3.860481
-3.865843
-3.869171
-3.000000
-3.000000
-3.000000
-3.000000
0.000000
0.000000
0.000000
0.000000
-0.225318
-0.406610
-0.592424
-0.775518
-0.956039
-1.133325
-1.306823
-1.476002
-1.640366
-1.799457
-1.952860
-2.100204
-2.241164
-2.375467
-2.502891
-2.623266
-2.736478
-2.842462
-2.941212
-3.032768
-3.117224
-3.194722
-3.265444
-3.329619
-3.387507
-3.439403
-3.485627
-3.526518
-3.562429
-3.593724
-3.620762
-3.643900
-3.663481
-3.679827
-3.693238
-3.703980
-3.712284
-3.718339
-3.722266
-3.724685
-3.000000
-3.000000
-3.000000
-3.000000
0.000000
0.000000
0.000000
0.000000
-0.224921
-0.405872
-0.591299
-0.773954
-0.953963
-1.130647
-1.303430
-1.471759
-1.635115
-1.793013
-1.945013
-2.090714
-2.229765
-2.361864
-2.486762
-2.604264
-2.714234
-2.816589
-2.911308
-2.998428
-3.078043
-3.150303
-3.215414
-3.273633
-3.325263
-3.370652
-3.410185
-3.444275
-3.473362
-3.497900
-3.518348
-3.535165
-3.548798
-3.559672
-3.568183
-3.574689
-3.579499
-3.582871
-3.584991
-3.586262
-3.000000
-3.000000
-3.000000
-3.000000
0.000000
0.000000
0.000000
0.000000
-0.224864
-0.405762
-0.591123
-0.773694
-0.953595
-1.130137
-1.302732
-1.470816
-1.633852
-1.791337
-1.942806
-2.087832
-2.226033
-2.357071
-2.480659
-2.596557
-2.704584
-2.804609
-2.896566
-2.980444
-3.056297
-3.124242
-3.184463
-3.237206
-3.282782
-3.321568
-3.353995
-3.380552
-3.401774
-3.418235
-3.430538
-3.439302
-3.445147
-3.448680
-3.450479
-3.451077
-3.450943
-3.450475
-3.449986
-3.449590
-3.000000
-3.000000
-3.000000
-3.000000
0.000000
0.000000
0.000000
0.000000
-0.224863
-0.405760
-0.591120
-0.773689
-0.953587
-1.130123
-1.302711
-1.470782
-1.633798
-1.791253
-1.942676
-2.087634
-2.225734
-2.356624
-2.479996
-2.595588
-2.703182
-2.802604
-2.893732
-2.976487
-3.050840
-3.116811
-3.174473
-3.223954
-3.265440
-3.299186
-3.325521
-3.344857
-3.357699
-3.364652
-3.366428
-3.363844
-3.357812
-3.349324
-3.339419
-3.329142
-3.319490
-3.311358
-3.305529
-3.301645
-3.000000
-3.000000
-3.000000
-3.000000
0.000000
0.000000
0.000000
0.000000
-0.224863
-0.405760
-0.591120
-0.773689
-0.953587
-1.130123
-1.302711
-1.470782
-1.633798
-1.791253
-1.942676
-2.087634
-2.225734
-2.356624
-2.479996
-2.595588
-2.703180
-2.802601
-2.893726
-2.976474
-3.050814
-3.116761
-3.174378
-3.223775
-3.265111
-3.298592
-3.324468
-3.343027
-3.354577
-3.359435
-3.357890
-3.350174
-3.336425
-3.316667
-3.290830
-3.258833
-3.220748
-3.177476
-3.128983
-3.079691
-3.000000
-3.000000
-3.000000
-3.000000
0.000000
0.000000
0.000000
0.000000
-0.224863
-0.405760
-0.591120
-0.773689
-0.953587
-1.130123
-1.302711
-1.470782
-1.633798
-1.791253
-1.942676
-2.087634
-2.225734
-2.356624
-2.479996
-2.595588
-2.703180
-2.802601
-2.893726
-2.976474
-3.050814
-3.116761
-3.174378
-3.223775
-3.265111
-3.298592
-3.324468
-3.343027
-3.354577
-3.359435
-3.357890
-3.350174
-3.336425
-3.316667
-3.290830
-3.258833
-3.220748
-3.177476
-3.128983
-3.079691
-3.000000
-3.000000
-3.000000
-3.000000
0.000000
0.000000
0.000000
0.000000
-0.227241
-0.410055
-0.597387
-0.781909
-0.963745
-1.142198
-1.316677
-1.486608
-1.651444
-1.810674
-1.963817
-2.110432
-2.250116
-2.382508
-2.507288
-2.624182
-2.732960
-2.833438
-2.925479
-3.008993
-3.083936
-3.150312
-3.208176
-3.257630
-3.298826
-3.331967
-3.357298
-3.375107
-3.385704
-3.389404
-3.386496
-3.377206
-3.361663
-3.339872
-3.311739
-3.277160
-3.236193
-3.189783
-3.137871
-3.085161
0.000000
0.000000
0.000000
0.000000
-0.231467
-0.417697
-0.608554
-0.796586
-0.981928
-1.163877
-1.341837
-1.515225
-1.683487
-1.846096
-2.002560
-2.152420
-2.295254
-2.430679
-2.558353
-2.677977
-2.789295
-2.892095
-2.986212
-3.071526
-3.147967
-3.215511
-3.274189
-3.324078
-3.365314
-3.398081
-3.422617
-3.439198
-3.448132
-3.449730
-3.444274
-3.431978
-3.412944
-3.387143
-3.354428
-3.314649
-3.267838
-3.215028
-3.156120
-3.096398
0.000000
0.000000
0.000000
0.000000
-0.235559
-0.425110
-0.619419
-0.810921
-0.999772
-1.185272
-1.366827
-1.543853
-1.715790
-1.882104
-2.042289
-2.195869
-2.342401
-2.481477
-2.612727
-2.735817
-2.850455
-2.956390
-3.053416
-3.141369
-3.220135
-3.289648
-3.349894
-3.400914
-3.442804
-3.475721
-3.499873
-3.515519
-3.522949
-3.522461
-3.514321
-3.498719
-3.475722
-3.445250
-3.407093
-3.361043
-3.307097
-3.246412
-3.178839
-3.110399
0.000000
0.000000
0.000000
0.000000
-0.239125
-0.431591
-0.628965
-0.823601
-1.015689
-1.204545
-1.389589
-1.570248
-1.745967
-1.916210
-2.080466
-2.238246
-2.389086
-2.532551
-2.668238
-2.795771
-2.914810
-3.025052
-3.126229
-3.218114
-3.300525
-3.373325
-3.436431
-3.489815
-3.533507
-3.567604
-3.592261
-3.607690
-3.614142
-3.611877
-3.601125
-3.582032
-3.554609
-3.518699
-3.474007
-3.420245
-3.357376
-3.286718
-3.208076
-3.128442
0.000000
0.000000
0.000000
0.000000
-0.241669
-0.436244
-0.635886
-0.832913
-1.027562
-1.219185
-1.407233
-1.591160
-1.770436
-1.944541
-2.112974
-2.275246
-2.430889
-2.579449
-2.720494
-2.853608
-2.978400
-3.094499
-3.201562
-3.299274
-3.387353
-3.465555
-3.533683
-3.591591
-3.639192
-3.676468
-3.703464
-3.720292
-3.727108
-3.724085
-3.711366
-3.689005
-3.656905
-3.614787
-3.562221
-3.498804
-3.424454
-3.340715
-3.247363
-3.152736
0.000000
0.000000
0.000000
0.000000
-0.242883
-0.438496
-0.639303
-0.837635
-1.033776
-1.227127
-1.417188
-1.603461
-1.785463
-1.962724
-2.134785
-2.301199
-2.461529
-2.615344
-2.762222
-2.901744
-3.033496
-3.157063
-3.272035
-3.378005
-3.474574
-3.561354
-3.637982
-3.704122
-3.759484
-3.803831
-3.836988
-3.858839
-3.869321
-3.868386
-3.855958
-3.831862
-3.795760
-3.747117
-3.685250
-3.609550
-3.519848
-3.418038
-3.303901
-3.187809
0.000000
0.000000
0.000000
0.000000
-0.243117
-0.438943
-0.640014
-0.838677
-1.035245
-1.229153
-1.419938
-1.607152
-1.790369
-1.969183
-2.143211
-2.312093
-2.475486
-2.633061
-2.784502
-2.929494
-3.067720
-3.198851
-3.322536
-3.438397
-3.546019
-3.644947
-3.734687
-3.814706
-3.884442
-3.943314
-3.990733
-4.026103
-4.048819
-4.058243
-4.053655
-4.034193
-3.998795
-3.946180
-3.874953
-3.783930
-3.672662
-3.543579
-3.396590
-3.245672
0.000000
0.000000
0.000000
0.000000
-0.243121
-0.438952
-0.640030
-0.838704
-1.035289
-1.229224
-1.420052
-1.607332
-1.790650
-1.969619
-2.143880
-2.313108
-2.477009
-2.635323
-2.787825
-2.934322
-3.074655
-3.208695
-3.336343
-3.457527
-3.572191
-3.680291
-3.781777
-3.876574
-3.964545
-4.045448
-4.118859
-4.184078
-4.240005
-4.284985
-4.316642
-4.331730
-4.326065
-4.294624
-4.231948
-4.133030
-3.994591
-3.818862
-3.605806
-3.378778
0.000000
0.000000
0.000000
0.000000
-0.243121
-0.438952
-0.640030
-0.838704
-1.035289
-1.229224
-1.420052
-1.607332
-1.790650
-1.969619
-2.143880
-2.313108
-2.477009
-2.635325
-2.787828
-2.934328
-3.074667
-3.208720
-3.336394
-3.457627
-3.572385
-3.680662
-3.782474
-3.877861
-3.966881
-4.049610
-4.126135
-4.196556
-4.260979
-4.319516
-4.372280
-4.419385
-4.460939
-4.497046
-4.527801
-4.553291
-4.573591
-4.588759
-4.598779
-4.605044
0.000000
0.000000
0.000000
0.000000
-0.243121
-0.438952
-0.640030
-0.838704
-1.035289
-1.229224
-1.420052
-1.607332
-1.790650
-1.969619
-2.143880
-2.313108
-2.477009
-2.635325
-2.787828
-2.934328
-3.074667
-3.208720
-3.336394
-3.457627
-3.572385
-3.680662
-3.782474
-3.877861
-3.966881
-4.049610
-4.126135
-4.196556
-4.260979
-4.319516
-4.372280
-4.419385
-4.460939
-4.497046
-4.527801
-4.553291
-4.573591
-4.588759
-4.598779
-4.605044
0.000000
0.000000
0.000000
0.000000
-0.243121
-0.438952
-0.640030
-0.838704
-1.035289
-1.229224
-1.420052
-1.607332
-1.790650
-1.969619
-2.143880
-2.313108
-2.477009
-2.635325
-2.787828
-2.934328
-3.074667
-3.208720
-3.336394
-3.457627
-3.572385
-3.680662
-3.782474
-3.877861
-3.966881
-4.049610
-4.126135
-4.196556
-4.260979
-4.319516
-4.372280
-4.419385
-4.460939
-4.497046
-4.527801
-4.553291
-4.573591
-4.588759
-4.598779
-4.605044
0.000000
0.000000
0.000000
0.000000
-0.243121
-0.438952
-0.640030
-0.838704
-1.035289
-1.229224
-1.420052
-1.607332
-1.790650
-1.969619
-2.143880
-2.313108
-2.477009
-2.635325
-2.787828
-2.934328
-3.074667
-3.208720
-3.336394
-3.457627
-3.572385
-3.680662
-3.782474
-3.877861
-3.966881
-4.049610
-4.126135
-4.196556
-4.260979
-4.319516
-4.372280
-4.419385
-4.460939
-4.497046
-4.527801
-4.553291
-4.573591
-4.588759
-4.598779
-4.605044
0.000000
0.000000
0.000000
0.000000
-0.243121
-0.438952
-0.640030
-0.838704
-1.035289
-1.229224
-1.420052
-1.607332
-1.790650
-1.969619
-2.143880
-2.313108
-2.477009
-2.635325
-2.787828
-2.934328
-3.074667
-3.208720
-3.336394
-3.457627
-3.572385
-3.680662
-3.782474
-3.877861
-3.966881
-4.049610
-4.126135
-4.196556
-4.260979
-4.319516
-4.372280
-4.419385
-4.460939
-4.497046
-4.527801
-4.553291
-4.573591
-4.588759
-4.598779
-4.605044
0.000000
0.000000
0.000000
0.000000
-0.243121
-0.438952
-0.640030
-0.838704
-1.035289
-1.229224
-1.420052
-1.607332
-1.790650
-1.969619
-2.143880
-2.313108
-2.477009
-2.635325
-2.787828
-2.934328
-3.074667
-3.208720
-3.336394
-3.457627
-3.572385
-3.680662
-3.782474
-3.877861
-3.966881
-4.049610
-4.126135
-4.196556
-4.260979
-4.319516
-4.372280
-4.419385
-4.460939
-4.497046
-4.527801
-4.553291
-4.573591
-4.588759
-4.598779
-4.605044
0.000000
0.000000
0.000000
0.000000
-0.243121
-0.438952
-0.640030
-0.838704
-1.035289
-1.229224
-1.420052
-1.607332
-1.790650
-1.969619
-2.143880
-2.313108
-2.477009
-2.635325
-2.787828
-2.934328
-3.074667
-3.208720
-3.336394
-3.457627
-3.572385
-3.680662
-3.782474
-3.877861
-3.966881
-4.049610
-4.126135
-4.196556
-4.260979
-4.319516
-4.372280
-4.419385
-4.460939
-4.497046
-4.527801
-4.553291
-4.573591
-4.588759
-4.598779
-4.605044
0.000000
0.000000
0.000000
0.000000
-0.243121
-0.438952
-0.640030
-0.838704
-1.035289
-1.229224
-1.420052
-1.607332
-1.790650
-1.969619
-2.143880
-2.313108
-2.477009
-2.635325
-2.787828
-2.934328
-3.074667
-3.208720
-3.336394
-3.457627
-3.572385
-3.680662
-3.782474
-3.877861
-3.966881
-4.049610
-4.126135
-4.196556
-4.260979
-4.319516
-4.372280
-4.419385
-4.460939
-4.497046
-4.527801
-4.553291
-4.573591
-4.588759
-4.598779
-4.605044
0.000000
0.000000
0.000000
0.000000
-0.243121
-0.438952
-0.640030
-0.838704
-1.035289
-1.229224
-1.420052
-1.607332
-1.790650
-1.969619
-2.143880
-2.313108
-2.477009
-2.635325
-2.787828
-2.934328
-3.074667
-3.208720
-3.336394
-3.457627
-3.572385
-3.680662
-3.782474
-3.877861
-3.966881
-4.049610
-4.126135
-4.196556
-4.260979
-4.319516
-4.372280
-4.419385
-4.460939
-4.497046
-4.527801
-4.553291
-4.573591
-4.588759
-4.598779
-4.605044
0.000000
0.000000
0.000000
0.000000
-0.243121
-0.438952
-0.640030
-0.838704
-1.035289
-1.229224
-1.420052
-1.607332
-1.790650
-1.969619
-2.143880
-2.313108
-2.477009
-2.635325
-2.787828
-2.934328
-3.074667
-3.208720
-3.336394
-3.457627
-3.572385
-3.680662
-3.782474
-3.877861
-3.966881
-4.049610
-4.126135
-4.196556
-4.260979
-4.319516
-4.372280
-4.419385
-4.460939
-4.497046
-4.527801
-4.553291
-4.573591
-4.588759
-4.598779
-4.605044
0.000000
0.000000
0.000000
0.000000
-0.243121
-0.438952
-0.640030
-0.838704
-1.035289
-1.229224
-1.420052
-1.607332
-1.790650
-1.969619
-2.143880
-2.313108
-2.477009
-2.635325
-2.787828
-2.934328
-3.074667
-3.208720
-3.336394
-3.457627
-3.572385
-3.680662
-3.782474
-3.877861
-3.966881
-4.049610
-4.126135
-4.196556
-4.260979
-4.319516
-4.372280
-4.419385
-4.460939
-4.497046
-4.527801
-4.553291
-4.573591
-4.588759
-4.598779
-4.605044
0.000000
0.000000
0.000000
0.000000
-0.243121
-0.438952
-0.640030
-0.838704
-1.035289
-1.229224
-1.420052
-1.607332
-1.790650
-1.969619
-2.143880
-2.313108
-2.477009
-2.635325
-2.787828
-2.934328
-3.074667
-3.208720
-3.336394
-3.457627
-3.572385
-3.680662
-3.782474
-3.877861
-3.966881
-4.049610
-4.126135
-4.196556
-4.260979
-4.319516
-4.372280
-4.419385
-4.460939
-4.497046
-4.527801
-4.553291
-4.573591
-4.588759
-4.598779
-4.605044
0.000000
0.000000
0.000000
0.000000
-0.243121
-0.438952
-0.640030
-0.838704
-1.035289
-1.229224
-1.420052
-1.607332
-1.790650
-1.969619
-2.143880
-2.313108
-2.477009
-2.635325
-2.787828
-2.934328
-3.074667
-3.208720
-3.336394
-3.457627
-3.572385
-3.680662
-3.782474
-3.877861
-3.966881
-4.049610
-4.126135
-4.196556
-4.260979
-4.319516
-4.372280
-4.419385
-4.460939
-4.497046
-4.527801
-4.553291
-4.573591
-4.588759
-4.598779
-4.605044
0.000000
0.000000
0.000000
0.000000
-0.243121
-0.438952
-0.640030
-0.838704
-1.035289
-1.229224
-1.420052
-1.607332
-1.790650
-1.969619
-2.143880
-2.313108
-2.477009
-2.635325
-2.787828
-2.934328
-3.074667
-3.208720
-3.336394
-3.457627
-3.572385
-3.680662
-3.782474
-3.877861
-3.966881
-4.049610
-4.126135
-4.196556
-4.260979
-4.319516
-4.372280
-4.419385
-4.460939
-4.497046
-4.527801
-4.553291
-4.573591
-4.588759
-4.598779
-4.605044
0.000000
0.000000
0.000000
0.000000
-0.243121
-0.438952
-0.640030
-0.838704
-1.035289
-1.229224
-1.420052
-1.607332
-1.790650
-1.969619
-2.143880
-2.313108
-2.477009
-2.635325
-2.787828
-2.934328
-3.074667
-3.208720
-3.336394
-3.457627
-3.572385
-3.680662
-3.782474
-3.877861
-3.966881
-4.049610
-4.126135
-4.196556
-4.260979
-4.319516
-4.372280
-4.419385
-4.460939
-4.497046
-4.527801
-4.553291
-4.573591
-4.588759
-4.598779
-4.605044
0.000000
0.000000
0.000000
0.000000
-0.243121
-0.438952
-0.640030
-0.838704
-1.035289
-1.229224
-1.420052
-1.607332
-1.790650
-1.969619
-2.143880
-2.313108
-2.477009
-2.635325
-2.787828
-2.934328
-3.074667
-3.208720
-3.336394
-3.457627
-3.572385
-3.680662
-3.782474
-3.877861
-3.966881
-4.049610
-4.126135
-4.196556
-4.260979
-4.319516
-4.372280
-4.419385
-4.460939
-4.497046
-4.527801
-4.553291
-4.573591
-4.588759
-4.598779
-4.605044
0.000000
0.000000
0.000000
0.000000
-0.243121
-0.438952
-0.640030
-0.838704
-1.035289
-1.229224
-1.420052
-1.607332
-1.790650
-1.969619
-2.143880
-2.313108
-2.477009
-2.635325
-2.787828
-2.934328
-3.074667
-3.208720
-3.336394
-3.457627
-3.572385
-3.680662
-3.782474
-3.877861
-3.966881
-4.049610
-4.126135
-4.196556
-4.260979
-4.319516
-4.372280
-4.419385
-4.460939
-4.497046
-4.527801
-4.553291
-4.573591