<?xml version='1.0' encoding='UTF-8'?>
<VTKFile xmlns='VTK' byte_order='LittleEndian' version='0.1' type='UnstructuredGrid'>
<UnstructuredGrid>
<Piece NumberOfCells='1888' NumberOfPoints='1888'>
<Points>
<DataArray NumberOfComponents='3' type='Float32' Name='Position' format='ascii'>
-0.040000 -0.030000 0.000000
-0.040000 -0.020000 0.000000
-0.040000 -0.010000 0.000000
-0.040000 0.000000 0.000000
-0.040000 0.010000 0.000000
-0.040000 0.020000 0.000000
-0.040000 0.030000 0.000000
-0.040000 0.040000 0.000000
-0.040000 0.050000 0.000000
-0.040000 0.060000 0.000000
-0.040000 0.070000 0.000000
-0.040000 0.080000 0.000000
-0.040000 0.090000 0.000000
-0.040000 0.100000 0.000000
-0.040000 0.110000 0.000000
-0.040000 0.120000 0.000000
-0.040000 0.130000 0.000000
-0.040000 0.140000 0.000000
-0.040000 0.150000 0.000000
-0.040000 0.160000 0.000000
-0.040000 0.170000 0.000000
-0.040000 0.180000 0.000000
-0.040000 0.190000 0.000000
-0.040000 0.200000 0.000000
-0.040000 0.210000 0.000000
-0.040000 0.220000 0.000000
-0.040000 0.230000 0.000000
-0.040000 0.240000 0.000000
-0.040000 0.250000 0.000000
-0.040000 0.260000 0.000000
-0.040000 0.270000 0.000000
-0.040000 0.280000 0.000000
-0.040000 0.290000 0.000000
-0.040000 0.300000 0.000000
-0.040000 0.310000 0.000000
-0.040000 0.320000 0.000000
-0.040000 0.330000 0.000000
-0.040000 0.340000 0.000000
-0.040000 0.350000 0.000000
-0.040000 0.360000 0.000000
-0.040000 0.370000 0.000000
-0.040000 0.380000 0.000000
-0.040000 0.390000 0.000000
-0.040000 0.400000 0.000000
0.010000 -0.030000 0.000000
0.010000 -0.020000 0.000000
0.010000 -0.010000 0.000000
0.010000 0.000000 0.000000
0.010000 0.010000 0.000000
0.010000 0.020000 0.000000
0.010000 0.030000 0.000000
0.010000 0.040000 0.000000
0.010000 0.050000 0.000000
0.010000 0.060000 0.000000
0.010000 0.070000 0.000000
0.010000 0.080000 0.000000
0.010000 0.090000 0.000000
0.010000 0.100000 0.000000
0.010000 0.110000 0.000000
0.010000 0.120000 0.000000
0.010000 0.130000 0.000000
0.010000 0.140000 0.000000
0.010000 0.150000 0.000000
0.010000 0.160000 0.000000
0.010000 0.170000 0.000000
0.010000 0.180000 0.000000
0.010000 0.190000 0.000000
0.010000 0.200000 0.000000
0.010000 0.210000 0.000000
0.010000 0.220000 0.000000
0.010000 0.230000 0.000000
0.010000 0.240000 0.000000
0.010000 0.250000 0.000000
0.010000 0.260000 0.000000
0.010000 0.270000 0.000000
0.010000 0.280000 0.000000
0.010000 0.290000 0.000000
0.010000 0.300000 0.000000
0.010000 0.310000 0.000000
0.010000 0.320000 0.000000
0.010000 0.330000 0.000000
0.010000 0.340000 0.000000
0.010000 0.350000 0.000000
0.010000 0.360000 0.000000
0.010000 0.370000 0.000000
0.010000 0.380000 0.000000
0.010000 0.390000 0.000000
0.010000 0.400000 0.000000
0.330000 0.410000 0.000000
0.330000 0.420000 0.000000
0.330000 0.430000 0.000000
0.330000 0.440000 0.000000
0.060000 -0.030000 0.000000
0.060000 -0.020000 0.000000
0.060000 -0.010000 0.000000
0.060000 0.000000 0.000000
0.060000 0.010000 0.000000
0.060000 0.020000 0.000000
0.060000 0.030000 0.000000
0.060000 0.040000 0.000000
0.060000 0.050000 0.000000
0.060000 0.060000 0.000000
0.060000 0.070000 0.000000
0.060000 0.080000 0.000000
0.060000 0.090000 0.000000
0.060000 0.100000 0.000000
0.060000 0.110000 0.000000
0.060000 0.120000 0.000000
0.060000 0.130000 0.000000
0.060000 0.140000 0.000000
0.060000 0.150000 0.000000
0.060000 0.160000 0.000000
0.060000 0.170000 0.000000
0.060000 0.180000 0.000000
0.060000 0.190000 0.000000
0.060000 0.200000 0.000000
0.060000 0.210000 0.000000
0.060000 0.220000 0.000000
0.060000 0.230000 0.000000
0.060000 0.240000 0.000000
0.060000 0.250000 0.000000
0.060000 0.260000 0.000000
0.060000 0.270000 0.000000
0.060000 0.280000 0.000000
0.060000 0.290000 0.000000
0.060000 0.300000 0.000000
0.060000 0.310000 0.000000
0.060000 0.320000 0.000000
0.060000 0.330000 0.000000
0.060000 0.340000 0.000000
0.060000 0.350000 0.000000
0.060000 0.360000 0.000000
0.060000 0.370000 0.000000
0.060000 0.380000 0.000000
0.060000 0.390000 0.000000
0.060000 0.400000 0.000000
0.380000 0.410000 0.000000
0.380000 0.420000 0.000000
0.380000 0.430000 0.000000
0.380000 0.440000 0.000000
0.110000 -0.030000 0.000000
0.110000 -0.020000 0.000000
0.110000 -0.010000 0.000000
0.110000 0.000000 0.000000
0.110000 0.010000 0.000000
0.110000 0.020000 0.000000
0.110000 0.030000 0.000000
0.110000 0.040000 0.000000
0.110000 0.050000 0.000000
0.110000 0.060000 0.000000
0.110000 0.070000 0.000000
0.110000 0.080000 0.000000
0.110000 0.090000 0.000000
0.110000 0.100000 0.000000
0.110000 0.110000 0.000000
0.110000 0.120000 0.000000
0.110000 0.130000 0.000000
0.110000 0.140000 0.000000
0.110000 0.150000 0.000000
0.110000 0.160000 0.000000
0.110000 0.170000 0.000000
0.110000 0.180000 0.000000
0.110000 0.190000 0.000000
0.110000 0.200000 0.000000
0.110000 0.210000 0.000000
0.110000 0.220000 0.000000
0.110000 0.230000 0.000000
0.110000 0.240000 0.000000
0.110000 0.250000 0.000000
0.110000 0.260000 0.000000
0.110000 0.270000 0.000000
0.110000 0.280000 0.000000
0.110000 0.290000 0.000000
0.110000 0.300000 0.000000
0.110000 0.310000 0.000000
0.110000 0.320000 0.000000
0.110000 0.330000 0.000000
0.110000 0.340000 0.000000
0.110000 0.350000 0.000000
0.110000 0.360000 0.000000
0.110000 0.370000 0.000000
0.110000 0.380000 0.000000
0.110000 0.390000 0.000000
0.110000 0.400000 0.000000
0.430000 0.410000 0.000000
0.430000 0.420000 0.000000
0.430000 0.430000 0.000000
0.430000 0.440000 0.000000
0.160000 -0.030000 0.000000
0.160000 -0.020000 0.000000
0.160000 -0.010000 0.000000
0.160000 0.000000 0.000000
0.160000 0.010000 0.000000
0.160000 0.020000 0.000000
0.160000 0.030000 0.000000
0.160000 0.040000 0.000000
0.160000 0.050000 0.000000
0.160000 0.060000 0.000000
0.160000 0.070000 0.000000
0.160000 0.080000 0.000000
0.160000 0.090000 0.000000
0.160000 0.100000 0.000000
0.160000 0.110000 0.000000
0.160000 0.120000 0.000000
0.160000 0.130000 0.000000
0.160000 0.140000 0.000000
0.160000 0.150000 0.000000
0.160000 0.160000 0.000000
0.160000 0.170000 0.000000
0.160000 0.180000 0.000000
0.160000 0.190000 0.000000
0.160000 0.200000 0.000000
0.160000 0.210000 0.000000
0.160000 0.220000 0.000000
0.160000 0.230000 0.000000
0.160000 0.240000 0.000000
0.160000 0.250000 0.000000
0.160000 0.260000 0.000000
0.160000 0.270000 0.000000
0.160000 0.280000 0.000000
0.160000 0.290000 0.000000
0.160000 0.300000 0.000000
0.160000 0.310000 0.000000
0.160000 0.320000 0.000000
0.160000 0.330000 0.000000
0.160000 0.340000 0.000000
0.160000 0.350000 0.000000
0.160000 0.360000 0.000000
0.160000 0.370000 0.000000
0.160000 0.380000 0.000000
0.160000 0.390000 0.000000
0.160000 0.400000 0.000000
0.480000 0.410000 0.000000
0.480000 0.420000 0.000000
0.480000 0.430000 0.000000
0.480000 0.440000 0.000000
0.210000 -0.030000 0.000000
0.210000 -0.020000 0.000000
0.210000 -0.010000 0.000000
0.210000 0.000000 0.000000
0.210000 0.010000 0.000000
0.210000 0.020000 0.000000
0.210000 0.030000 0.000000
0.210000 0.040000 0.000000
0.210000 0.050000 0.000000
0.210000 0.060000 0.000000
0.210000 0.070000 0.000000
0.210000 0.080000 0.000000
0.210000 0.090000 0.000000
0.210000 0.100000 0.000000
0.210000 0.110000 0.000000
0.210000 0.120000 0.000000
0.210000 0.130000 0.000000
0.210000 0.140000 0.000000
0.210000 0.150000 0.000000
0.210000 0.160000 0.000000
0.210000 0.170000 0.000000
0.210000 0.180000 0.000000
0.210000 0.190000 0.000000
0.210000 0.200000 0.000000
0.210000 0.210000 0.000000
0.210000 0.220000 0.000000
0.210000 0.230000 0.000000
0.210000 0.240000 0.000000
0.210000 0.250000 0.000000
0.210000 0.260000 0.000000
0.210000 0.270000 0.000000
0.210000 0.280000 0.000000
0.210000 0.290000 0.000000
0.210000 0.300000 0.000000
0.210000 0.310000 0.000000
0.210000 0.320000 0.000000
0.210000 0.330000 0.000000
0.210000 0.340000 0.000000
0.210000 0.350000 0.000000
0.210000 0.360000 0.000000
0.210000 0.370000 0.000000
0.210000 0.380000 0.000000
0.210000 0.390000 0.000000
0.210000 0.400000 0.000000
0.530000 0.410000 0.000000
0.530000 0.420000 0.000000
0.530000 0.430000 0.000000
0.530000 0.440000 0.000000
0.260000 -0.030000 0.000000
0.260000 -0.020000 0.000000
0.260000 -0.010000 0.000000
0.260000 0.000000 0.000000
0.260000 0.010000 0.000000
0.260000 0.020000 0.000000
0.260000 0.030000 0.000000
0.260000 0.040000 0.000000
0.260000 0.050000 0.000000
0.260000 0.060000 0.000000
0.260000 0.070000 0.000000
0.260000 0.080000 0.000000
0.260000 0.090000 0.000000
0.260000 0.100000 0.000000
0.260000 0.110000 0.000000
0.260000 0.120000 0.000000
0.260000 0.130000 0.000000
0.260000 0.140000 0.000000
0.260000 0.150000 0.000000
0.260000 0.160000 0.000000
0.260000 0.170000 0.000000
0.260000 0.180000 0.000000
0.260000 0.190000 0.000000
0.260000 0.200000 0.000000
0.260000 0.210000 0.000000
0.260000 0.220000 0.000000
0.260000 0.230000 0.000000
0.260000 0.240000 0.000000
0.260000 0.250000 0.000000
0.260000 0.260000 0.000000
0.260000 0.270000 0.000000
0.260000 0.280000 0.000000
0.260000 0.290000 0.000000
0.260000 0.300000 0.000000
0.260000 0.310000 0.000000
0.260000 0.320000 0.000000
0.260000 0.330000 0.000000
0.260000 0.340000 0.000000
0.260000 0.350000 0.000000
0.260000 0.360000 0.000000
0.260000 0.370000 0.000000
0.260000 0.380000 0.000000
0.260000 0.390000 0.000000
0.260000 0.400000 0.000000
0.580000 0.410000 0.000000
0.580000 0.420000 0.000000
0.580000 0.430000 0.000000
0.580000 0.440000 0.000000
0.310000 -0.030000 0.000000
0.310000 -0.020000 0.000000
0.310000 -0.010000 0.000000
0.310000 0.000000 0.000000
0.310000 0.010000 0.000000
0.310000 0.020000 0.000000
0.310000 0.030000 0.000000
0.310000 0.040000 0.000000
0.310000 0.050000 0.000000
0.310000 0.060000 0.000000
0.310000 0.070000 0.000000
0.310000 0.080000 0.000000
0.310000 0.090000 0.000000
0.310000 0.100000 0.000000
0.310000 0.110000 0.000000
0.310000 0.120000 0.000000
0.310000 0.130000 0.000000
0.310000 0.140000 0.000000
0.310000 0.150000 0.000000
0.310000 0.160000 0.000000
0.310000 0.170000 0.000000
0.310000 0.180000 0.000000
0.310000 0.190000 0.000000
0.310000 0.200000 0.000000
0.310000 0.210000 0.000000
[...]
<PointData>
<DataArray NumberOfComponents='1' type='Int32' Name='ParticleType' format='ascii'>
4
4
4
4
4
4
4
4
4
4
4
4
4
4
4
4
4
4
4
4
4
4
4
4
4
4
4
4
4
4
4
4
4
4
4
4
4
4
4
4
4
4
4
4
4
4
3
3
2
2
2
2
2
2
2
2
2
2
2
2
2
2
2
2
2
2
2
2
2
2
2
2
2
2
2
2
2
2
2
2
2
2
2
2
2
2
2
2
5
5
5
5
4
4
3
3
2
2
2
2
2
2
2
2
2
2
2
2
2
2
2
2
2
2
2
2
2
2
2
2
2
2
2
2
2
2
2
2
2
2
2
2
2
2
2
2
5
5
5
5
4
4
3
3
2
2
2
2
2
2
2
2
2
2
2
2
2
2
2
2
2
2
2
2
2
2
2
2
2
2
2
2
2
2
2
2
2
2
2
2
2
2
2
2
5
5
5
5
4
4
3
3
2
2
2
2
2
2
2
2
2
2
2
2
2
2
2
2
2
2
2
2
2
2
2
2
2
2
2
2
2
2
2
2
2
2
2
2
2
2
2
2
5
5
5
5
4
4
3
3
2
2
2
2
2
2
2
2
2
2
2
2
2
2
2
2
2
2
2
2
2
2
2
2
2
2
2
2
2
2
2
2
2
2
2
2
2
2
2
2
5
5
5
5
4
4
3
3
2
2
2
2
2
2
2
2
2
2
2
2
2
2
2
2
2
2
2
2
2
2
2
2
2
2
2
2
2
2
2
2
2
2
2
2
2
2
2
2
5
5
5
5
4
4
3
3
2
2
2
2
2
2
2
2
2
2
2
2
2
2
2
2
2
2
2
2
2
2
2
2
2
2
2
2
2
2
2
2
2
2
2
2
2
2
2
2
5
5
5
5
4
4
3
3
2
2
2
2
2
2
2
2
2
2
2
2
2
2
2
2
2
2
2
2
2
2
2
2
2
2
2
2
2
2
2
2
2
2
2
2
2
2
2
2
5
5
5
5
4
4
3
3
2
2
2
2
2
2
2
2
2
2
2
2
2
2
2
2
2
2
2
2
2
2
2
2
2
2
2
2
2
2
2
2
2
2
2
2
2
2
2
2
5
5
5
5
4
4
3
3
2
2
2
2
2
2
2
2
2
2
2
2
2
2
2
2
2
2
2
2
2
2
2
2
2
2
2
2
2
2
2
2
2
2
2
2
2
2
2
2
5
5
5
5
4
4
3
3
2
2
2
2
2
2
2
2
2
2
2
2
2
2
2
2
2
2
2
2
2
2
2
2
2
2
2
2
2
2
2
2
2
2
2
2
2
2
2
2
4
4
3
3
2
2
2
2
2
2
2
2
2
2
2
2
2
2
2
2
2
2
2
2
2
2
2
2
2
2
2
2
2
2
2
2
2
2
2
2
2
2
2
2
4
4
3
3
2
2
2
2
2
2
2
2
2
2
2
2
2
2
2
2
2
2
2
2
2
2
2
2
2
2
2
2
2
2
2
2
2
2
2
2
2
2
2
2
4
4
3
3
2
2
2
2
2
2
2
2
2
2
2
2
2
2
2
2
2
2
2
2
2
2
2
2
2
2
2
2
2
2
2
2
2
2
2
2
2
2
2
2
4
4
3
3
2
2
2
2
2
2
2
2
2
2
2
2
2
2
2
2
2
2
2
2
2
2
2
2
2
2
2
2
2
2
2
2
2
2
2
2
2
2
2
2
4
4
3
3
2
2
2
2
2
2
2
2
2
2
2
2
2
2
2
2
2
2
2
2
2
2
2
2
2
2
2
2
2
2
2
2
2
2
2
2
2
2
2
2
4
4
3
3
2
2
2
2
2
2
2
2
2
2
2
2
2
2
2
2
2
2
2
2
2
2
2
2
2
2
2
2
2
2
2
2
2
2
2
2
2
2
2
2
4
4
3
3
2
2
2
2
2
2
2
2
2
2
2
2
2
2
2
2
2
2
2
2
2
2
2
2
2
2
2
2
2
2
2
2
2
2
2
2
2
2
2
2
4
4
3
3
2
2
2
2
2
2
2
2
2
2
2
2
2
2
2
2
2
2
2
2
2
2
2
2
2
2
2
2
2
2
2
2
2
2
2
2
2
2
2
2
4
4
3
3
2
2
2
2
2
2
2
2
2
2
2
2
2
2
2
2
2
2
2
2
2
2
2
2
2
2
2
2
2
2
2
2
2
2
2
2
2
2
2
2
4
4
3
3
2
2
2
2
2
2
2
2
2
2
2
2
2
2
2
2
2
2
2
2
2
2
2
2
2
2
2
2
2
2
2
2
2
2
2
2
2
2
2
2
4
4
3
3
2
2
2
2
2
2
2
2
2
2
2
2
2
2
2
2
2
2
2
2
2
2
2
2
2
2
2
2
2
2
2
2
2
2
2
2
2
2
2
2
4
4
3
3
2
2
2
2
2
2
2
2
2
2
2
2
2
2
2
2
2
2
2
2
2
2
2
2
2
2
2
2
2
2
2
2
2
2
2
2
2
2
2
2
4
4
3
3
2
2
2
2
2
2
2
2
2
2
2
2
2
2
2
2
2
2
2
2
2
2
2
2
2
2
2
2
2
2
2
2
2
2
2
2
2
2
2
2
4
4
3
3
2
2
2
2
2
2
2
2
2
2
2
2
2
2
2
2
2
2
2
2
2
2
2
2
2
2
2
2
2
2
2
2
2
2
2
2
2
2
2
2
4
4
3
3
2
2
2
2
2
2
2
2
2
2
2
2
2
2
2
2
2
2
2
2
2
2
2
2
2
2
2
2
2
2
2
2
2
2
2
2
2
2
2
2
4
4
3
3
2
2
2
2
2
2
2
2
2
2
2
2
2
2
2
2
2
2
2
2
2
2
2
2
2
2
2
2
2
2
2
2
2
2
2
2
2
2
2
2
4
4
3
3
2
2
2
2
2
2
2
2
2
2
2
2
2
2
2
2
2
2
2
2
2
2
2
2
2
2
2
2
2
2
2
2
2
2
2
2
2
2
2
2
4
4
3
3
2
2
2
2
2
2
2
2
2
2
2
2
2
2
2
2
2
2
2
2
2
2
2
2
2
2
2
2
2
2
2
2
2
2
2
2
2
2
2
2
4
4
3
3
2
2
2
2
2
2
2
2
2
2
2
2
2
2
2
2
2
2
2
2
2
2
2
2
2
2
2
2
2
2
2
2
2
2
2
2
2
2
2
2
4
4
3
3
2
2
2
2
2
2
2
2
2
2
2
2
2
2
2
2
2
2
2
2
2
2
2
2
2
2
2
2
2
2
2
2
2
2
2
2
2
2
2
2
4
4
3
3
2
2
2
2
2
2
2
2
2
2
2
2
2
2
2
2
2
2
2
2
2
2
2
2
2
2
2
2
2
2
2
2
2
2
2
2
2
2
2
2
4
4
3
3
2
2
2
2
2
2
2
2
2
2
2
2
2
2
2
2
2
2
2
2
2
2
2
2
2
2
2
2
2
2
2
2
2
2
2
2
2
2
2
2
4
4
3
3
2
2
2
2
2
2
2
2
2
2
2
2
2
2
2
2
2
2
2
2
2
2
2
2
2
2
2
2
2
2
2
2
2
2
2
2
2
2
2
2
4
4
3
3
2
2
2
2
2
2
2
2
2
2
2
2
2
2
2
2
2
2
2
2
2
2
2
2
2
2
2
2
2
2
2
2
2
2
2
2
2
2
2
2
4
4
3
3
2
2
2
2
2
2
2
2
2
2
2
2
2
2
2
2
2
2
2
2
2
2
2
2
2
2
2
2
2
2
2
2
2
2
2
2
2
2
2
2
4
4
3
3
2
2
2
2
2
2
2
2
2
2
2
2
2
2
2
2
2
2
2
2
2
2
2
2
2
2
2
2
2
2
2
2
2
2
2
2
2
2
2
2
4
4
3
3
2
2
2
2
2
2
2
2
2
2
2
2
2
2
2
2
2
2
2
2
2
2
2
2
2
2
2
2
2
2
2
2
2
2
2
2
2
2
2
2
4
4
3
3
2
2
2
2
2
2
2
2
2
2
2
2
2
2
2
2
2
2
2
2
2
2
2
2
2
2
2
2
2
2
2
2
2
2
2
2
2
2
2
2
4
4
3
3
2
2
2
2
2
2
2
2
2
2
2
2
2
2
2
2
2
2
2
2
2
2
2
2
2
2
2
2
2
2
2
2
2
2
2
2
2
2
2
2
4
4
3
3
3
3
3
3
3
3
3
3
3
3
3
3
3
3
3
3
3
3
3
3
3
3
3
3
3
3
3
3
3
3
3
3
3
3
3
3
3
3
3
3
</DataArray>
<DataArray NumberOfComponents='1' type='Float32' Name='Temperature' format='ascii'>
0.000000
0.000000
0.000000
0.000000
0.000000
0.000000
0.000000
0.000000
0.000000
0.000000
0.000000
0.000000
0.000000
0.000000
0.000000
0.000000
0.000000
0.000000
0.000000
0.000000
0.000000
0.000000
0.000000
0.000000
0.000000
0.000000
0.000000
0.000000
0.000000
0.000000
0.000000
0.000000
0.000000
0.000000
0.000000
0.000000
0.000000
0.000000
0.000000
0.000000
0.000000
0.000000
0.000000
0.000000
0.000000
0.000000
0.000000
0.000000
-0.270262
-0.487701
-0.710539
-0.930081
-1.146502
-1.359013
-1.566962
-1.769730
-1.966751
-2.157508
-2.341545
-2.518463
-2.687926
-2.849661
-3.003457
-3.149166
-3.286699
-3.416029
-3.537182
-3.650236
-3.755320
-3.852602
-3.942292
-4.024632
-4.099891
-4.168360
-4.230347
-4.286170
-4.336151
-4.380611
-4.419865
-4.454217
-4.483954
-4.509344
-4.530630
-4.548025
-4.561714
-4.571845
-4.578490
-4.582622
-3.000000
-3.000000
-3.000000
-3.000000
0.000000
0.000000
0.000000
0.000000
-0.266373
-0.480613
-0.700058
-0.916086
-1.128819
-1.337431
-1.541233
-1.739575
-1.931859
-2.117542
-2.296144
-2.467250
-2.630509
-2.785641
-2.932434
-3.070744
-3.200495
-3.321678
-3.434346
-3.538611
-3.634642
-3.722657
-3.802922
-3.875740
-3.941448
-4.000412
-4.053016
-4.099659
-4.140746
-4.176682
-4.207866
-4.234682
-4.257498
-4.276652
-4.292457
-4.305186
-4.315077
-4.322320
-4.327033
-4.329945
-3.000000
-3.000000
-3.000000
-3.000000
0.000000
0.000000
0.000000
0.000000
-0.264507
-0.477195
-0.694962
-0.909205
-1.120006
-1.326505
-1.527979
-1.723746
-1.913176
-2.095696
-2.270799
-2.438043
-2.597058
-2.747543
-2.889275
-3.022102
-3.145947
-3.260806
-3.366744
-3.463895
-3.552457
-3.632687
-3.704895
-3.769442
-3.826727
-3.877188
-3.921286
-3.959504
-3.992335
-4.020275
-4.043816
-4.063434
-4.079585
-4.092696
-4.103156
-4.111314
-4.117467
-4.121859
-4.124662
-4.126365
-3.000000
-3.000000
-3.000000
-3.000000
0.000000
0.000000
0.000000
0.000000
-0.263777
-0.475843
-0.692913
-0.906377
-1.116289
-1.321759
-1.522036
-1.716403
-1.904197
-2.084813
-2.257707
-2.422403
-2.578494
-2.725648
-2.863608
-2.992194
-3.111308
-3.220927
-3.321108
-3.411984
-3.493763
-3.566723
-3.631209
-3.687626
-3.736436
-3.778149
-3.813313
-3.842509
-3.866340
-3.885419
-3.900360
-3.911767
-3.920224
-3.926281
-3.930445
-3.933173
-3.934859
-3.935826
-3.936325
-3.936566
-3.000000
-3.000000
-3.000000
-3.000000
0.000000
0.000000
0.000000
0.000000
-0.263633
-0.475568
-0.692480
-0.905752
-1.115421
-1.320583
-1.520465
-1.714329
-1.901486
-2.081299
-2.253189
-2.416639
-2.571198
-2.716484
-2.852187
-2.978073
-3.093985
-3.199845
-3.295656
-3.381505
-3.457559
-3.524071
-3.581374
-3.629882
-3.670085
-3.702549
-3.727902
-3.746833
-3.760078
-3.768413
-3.772631
-3.773539
-3.771928
-3.768568
-3.764180
-3.759423
-3.754874
-3.751016
-3.748246
-3.746401
-3.000000
-3.000000
-3.000000
-3.000000
0.000000
0.000000
0.000000
0.000000
-0.263628
-0.475559
-0.692464
-0.905726
-1.115380
-1.320519
-1.520367
-1.714181
-1.901265
-2.080971
-2.252707
-2.415937
-2.570187
-2.715042
-2.850152
-2.975232
-3.090059
-3.194479
-3.288403
-3.371811
-3.444751
-3.507346
-3.559795
-3.602377
-3.635464
-3.659519
-3.675111
-3.682919
-3.683736
-3.678469
-3.668136
-3.653852
-3.636809
-3.618246
-3.599411
-3.581508
-3.565656
-3.552825
-3.543865
-3.538013
-3.000000
-3.000000
-3.000000
-3.000000
0.000000
0.000000
0.000000
0.000000
-0.263628
-0.475559
-0.692464
-0.905726
-1.115380
-1.320519
-1.520367
-1.714181
-1.901265
-2.080970
-2.252706
-2.415936
-2.570184
-2.715037
-2.850142
-2.975213
-3.090024
-3.194416
-3.288290
-3.371612
-3.444406
-3.506757
-3.558802
-3.600733
-3.632783
-3.655222
-3.668342
-3.672446
-3.667835
-3.654794
-3.633598
-3.604533
-3.567944
-3.524334
-3.474498
-3.419721
-3.361971
-3.304343
-3.250723
-3.199457
-3.000000
-3.000000
-3.000000
-3.000000
0.000000
0.000000
0.000000
0.000000
-0.263628
-0.475559
-0.692464
-0.905726
-1.115380
-1.320519
-1.520367
-1.714181
-1.901265
-2.080970
-2.252706
-2.415936
-2.570184
-2.715037
-2.850142
-2.975213
-3.090024
-3.194416
-3.288290
-3.371612
-3.444406
-3.506757
-3.558802
-3.600733
-3.632783
-3.655222
-3.668342
-3.672446
-3.667835
-3.654794
-3.633598
-3.604533
-3.567944
-3.524334
-3.474498
-3.419721
-3.361971
-3.304343
-3.250723
-3.199457
-3.000000
-3.000000
-3.000000
-3.000000
0.000000
0.000000
0.000000
0.000000
-0.263628
-0.475559
-0.692464
-0.905726
-1.115380
-1.320519
-1.520367
-1.714181
-1.901265
-2.080970
-2.252706
-2.415936
-2.570184
-2.715037
-2.850142
-2.975213
-3.090024
-3.194416
-3.288290
-3.371612
-3.444406
-3.506757
-3.558802
-3.600733
-3.632783
-3.655222
-3.668342
-3.672446
-3.667835
-3.654794
-3.633598
-3.604533
-3.567944
-3.524334
-3.474498
-3.419721
-3.361971
-3.304343
-3.250723
-3.199457
-3.000000
-3.000000
-3.000000
-3.000000
0.000000
0.000000
0.000000
0.000000
-0.263628
-0.475559
-0.692464
-0.905726
-1.115380
-1.320519
-1.520367
-1.714181
-1.901265
-2.080970
-2.252706
-2.415936
-2.570184
-2.715037
-2.850142
-2.975213
-3.090024
-3.194416
-3.288290
-3.371612
-3.444406
-3.506757
-3.558802
-3.600733
-3.632783
-3.655222
-3.668342
-3.672446
-3.667835
-3.654794
-3.633598
-3.604533
-3.567944
-3.524334
-3.474498
-3.419721
-3.361971
-3.304343
-3.250723
-3.199457
-3.000000
-3.000000
-3.000000
-3.000000
0.000000
0.000000
0.000000
0.000000
-0.265990
-0.479836
-0.698731
-0.913991
-1.125663
-1.332842
-1.534752
-1.730648
-1.919832
-2.101650
-2.275502
-2.440845
-2.597188
-2.744105
-2.881226
-3.008247
-3.124921
-3.231067
-3.326565
-3.411355
-3.485438
-3.548875
-3.601781
-3.644324
-3.676717
-3.699211
-3.712080
-3.715610
-3.710085
-3.695777
-3.672947
-3.641870
-3.602890
-3.556518
-3.503579
-3.445424
-3.384130
-3.322972
-3.266071
-3.211667
0.000000
0.000000
0.000000
0.000000
-0.269736
-0.486638
-0.708735
-0.927253
-1.142269
-1.352891
-1.558354
-1.757920
-1.950891
-2.136613
-2.314476
-2.483921
-2.644437
-2.795571
-2.936920
-3.068139
-3.188938
-3.299085
-3.398404
-3.486778
-3.564148
-3.630511
-3.685921
-3.730484
-3.764355
-3.787726
-3.800818
-3.803866
-3.797104
-3.780758
-3.755049
-3.720220
-3.676598
-3.624710
-3.565445
-3.500293
-3.431570
-3.362952
-3.299067
-3.237951
0.000000
0.000000
0.000000
0.000000
-0.272605
-0.491877
-0.716504
-0.937666
-1.155484
-1.369095
-1.577764
-1.780777
-1.977453
-2.167150
-2.349261
-2.523225
-2.688521
-2.844669
-2.991237
-3.127837
-3.254125
-3.369805
-3.474628
-3.568392
-3.650948
-3.722195
-3.782084
-3.830614
-3.867833
-3.893826
-3.908708
-3.912611
-3.905669
-3.888013
-3.859777
-3.821133
-3.772365
-3.714001
-3.647008
-3.573057
-3.494797
-3.416449
-3.343353
-3.273303
0.000000
0.000000
0.000000
0.000000
-0.274189
-0.494802
-0.720914
-0.943709
-1.163359
-1.379051
-1.590094
-1.795821
-1.995595
-2.188813
-2.374907
-2.553343
-2.723618
-2.885266
-3.037849
-3.180958
-3.314215
-3.437268
-3.549789
-3.651481
-3.742073
-3.821325
-3.889026
-3.945000
-3.989101
-4.021211
-4.041231
-4.049073
-4.044653
-4.027884
-3.998696
-3.957081
-3.903192
-3.837504
-3.761053
-3.675760
-3.584746
-3.493050
-3.407070
-3.324335
0.000000
0.000000
0.000000
0.000000
-0.274609
-0.495596
-0.722159
-0.945499
-1.165829
-1.382377
-1.594501
-1.801588
-2.003066
-2.198402
-2.387104
-2.568721
-2.742839
-2.909079
-3.067087
-3.216534
-3.357102
-3.488483
-3.610364
-3.722426
-3.824333
-3.915730
-3.996235
-4.065439
-4.122900
-4.168140
-4.200638
-4.219827
-4.225095
-4.215797
-4.191295
-4.151042
-4.094731
-4.022525
-3.935387
-3.835509
-3.726726
-3.615410
-3.509760
-3.407092
0.000000
0.000000
0.000000
0.000000
-0.274626
-0.495632
-0.722220
-0.945597
-1.165983
-1.382613
-1.594859
-1.802127
-2.003868
-2.199584
-2.388829
-2.571215
-2.746407
-2.914131
-3.074168
-3.226350
-3.370562
-3.506732
-3.634820
-3.754811
-3.866689
-3.970419
-4.065910
-4.152971
-4.231259
-4.300215
-4.358987
-4.406371
-4.440751
-4.460093
-4.462004
-4.443904
-4.403338
-4.338469
-4.248737
-4.135683
-4.003733
-3.861557
-3.721111
-3.580142
0.000000
0.000000
0.000000
0.000000
-0.274626
-0.495632
-0.722220
-0.945597
-1.165983
-1.382613
-1.594859
-1.802127
-2.003869
-2.199586
-2.388833
-2.571222
-2.746422
-2.914159
-3.074218
-3.226444
-3.370733
-3.507037
-3.635361
-3.755752
-3.868305
-3.973150
-4.070455
-4.160413
-4.243245
-4.319189
-4.388497
-4.451430
-4.508253
-4.559230
-4.604621
-4.644674
-4.679626
-4.709694
-4.735077
-4.755951
-4.772465
-4.784740
-4.792817
-4.797852
0.000000
0.000000
0.000000
0.000000
-0.274626
-0.495632
-0.722220
-0.945597
-1.165983
-1.382613
-1.594859
-1.802127
-2.003869
-2.199586
-2.388833
-2.571222
-2.746422
-2.914159
-3.074218
-3.226444
-3.370733
-3.507037
-3.635361
-3.755752
-3.868305
-3.973150
-4.070455
-4.160413
-4.243245
-4.319189
-4.388497
-4.451430
-4.508253
-4.559230
-4.604621
-4.644674
-4.679626
-4.709694
-4.735077
-4.755951
-4.772465
-4.784740
-4.792817
-4.797852
0.000000
0.000000
0.000000
0.000000
-0.274626
-0.495632
-0.722220
-0.945597
-1.165983
-1.382613
-1.594859
-1.802127
-2.003869
-2.199586
-2.388833
-2.571222
-2.746422
-2.914159
-3.074218
-3.226444
-3.370733
-3.507037
-3.635361
-3.755752
-3.868305
-3.973150
-4.070455
-4.160413
-4.243245
-4.319189
-4.388497
-4.451430
-4.508253
-4.559230
-4.604621
-4.644674
-4.679626
-4.709694
-4.735077
-4.755951
-4.772465
-4.784740
-4.792817
-4.797852
0.000000
0.000000
0.000000
0.000000
-0.274626
-0.495632
-0.722220
-0.945597
-1.165983
-1.382613
-1.594859
-1.802127
-2.003869
-2.199586
-2.388833
-2.571222
-2.746422
-2.914159
-3.074218
-3.226444
-3.370733
-3.507037
-3.635361
-3.755752
-3.868305
-3.973150
-4.070455
-4.160413
-4.243245
-4.319189
-4.388497
-4.451430
-4.508253
-4.559230
-4.604621
-4.644674
-4.679626
-4.709694
-4.735077
-4.755951
-4.772465
-4.784740
-4.792817
-4.797852
0.000000
0.000000
0.000000
0.000000
-0.274626
-0.495632
-0.722220
-0.945597
-1.165983
-1.382613
-1.594859
-1.802127
-2.003869
-2.199586
-2.388833
-2.571222
-2.746422
-2.914159
-3.074218
-3.226444
-3.370733
-3.507037
-3.635361
-3.755752
-3.868305
-3.973150
-4.070455
-4.160413
-4.243245
-4.319189
-4.388497
-4.451430
-4.508253
-4.559230
-4.604621
-4.644674
-4.679626
-4.709694
-4.735077
-4.755951
-4.772465
-4.784740
-4.792817
-4.797852
0.000000
0.000000
0.000000
0.000000
-0.274626
-0.495632
-0.722220
-0.945597
-1.165983
-1.382613
-1.594859
-1.802127
-2.003869
-2.199586
-2.388833
-2.571222
-2.746422
-2.914159
-3.074218
-3.226444
-3.370733
-3.507037
-3.635361
-3.755752
-3.868305
-3.973150
-4.070455
-4.160413
-4.243245
-4.319189
-4.388497
-4.451430
-4.508253
-4.559230
-4.604621
-4.644674
-4.679626
-4.709694
-4.735077
-4.755951
-4.772465
-4.784740
-4.792817
-4.797852
0.000000
0.000000
0.000000
0.000000
-0.274626
-0.495632
-0.722220
-0.945597
-1.165983
-1.382613
-1.594859
-1.802127
-2.003869
-2.199586
-2.388833
-2.571222
-2.746422
-2.914159
-3.074218
-3.226444
-3.370733
-3.507037
-3.635361
-3.755752
-3.868305
-3.973150
-4.070455
-4.160413
-4.243245
-4.319189
-4.388497
-4.451430
-4.508253
-4.559230
-4.604621
-4.644674
-4.679626
-4.709694
-4.735077
-4.755951
-4.772465
-4.784740
-4.792817
-4.797852
0.000000
0.000000
0.000000
0.000000
-0.274626
-0.495632
-0.722220
-0.945597
-1.165983
-1.382613
-1.594859
-1.802127
-2.003869
-2.199586
-2.388833
-2.571222
-2.746422
-2.914159
-3.074218
-3.226444
-3.370733
-3.507037
-3.635361
-3.755752
-3.868305
-3.973150
-4.070455
-4.160413
-4.243245
-4.319189
-4.388497
-4.451430
-4.508253
-4.559230
-4.604621
-4.644674
-4.679626
-4.709694
-4.735077
-4.755951
-4.772465
-4.784740
-4.792817
-4.797852
0.000000
0.000000
0.000000
0.000000
-0.274626
-0.495632
-0.722220
-0.945597
-1.165983
-1.382613
-1.594859
-1.802127
-2.003869
-2.199586
-2.388833
-2.571222
-2.746422
-2.914159
-3.074218
-3.226444
-3.370733
-3.507037
-3.635361
-3.755752
-3.868305
-3.973150
-4.070455
-4.160413
-4.243245
-4.319189
-4.388497
-4.451430
-4.508253
-4.559230
-4.604621
-4.644674
-4.679626
-4.709694
-4.735077
-4.755951
-4.772465
-4.784740
-4.792817
-4.797852
0.000000
0.000000
0.000000
0.000000
-0.274626
-0.495632
-0.722220
-0.945597
-1.165983
-1.382613
-1.594859
-1.802127
-2.003869
-2.199586
-2.388833
-2.571222
-2.746422
-2.914159
-3.074218
-3.226444
-3.370733
-3.507037
-3.635361
-3.755752
-3.868305
-3.973150
-4.070455
-4.160413
-4.243245
-4.319189
-4.388497
-4.451430
-4.508253
-4.559230
-4.604621
-4.644674
-4.679626
-4.709694
-4.735077
-4.755951
-4.772465
-4.784740
-4.792817
-4.797852
0.000000
0.000000
0.000000
0.000000
-0.274626
-0.495632
-0.722220
-0.945597
-1.165983
-1.382613
-1.594859
-1.802127
-2.003869
-2.199586
-2.388833
-2.571222
-2.746422
-2.914159
-3.074218
-3.226444
-3.370733
-3.507037
-3.635361
-3.755752
-3.868305
-3.973150
-4.070455
-4.160413
-4.243245
-4.319189
-4.388497
-4.451430
-4.508253
-4.559230
-4.604621
-4.644674
-4.679626
-4.709694
-4.735077
-4.755951
-4.772465
-4.784740
-4.792817
-4.797852
0.000000
0.000000
0.000000
0.000000
-0.274626
-0.495632
-0.722220
-0.945597
-1.165983
-1.382613
-1.594859
-1.802127
-2.003869
-2.199586
-2.388833
-2.571222
-2.746422
-2.914159
-3.074218
-3.226444
-3.370733
-3.507037
-3.635361
-3.755752
-3.868305
-3.973150
-4.070455
-4.160413
-4.243245
-4.319189
-4.388497
-4.451430
-4.508253
-4.559230
-4.604621
-4.644674
-4.679626
-4.709694
-4.735077
-4.755951
-4.772465
-4.784740
-4.792817
-4.797852
0.000000
0.000000
0.000000
0.000000
-0.274626
-0.495632
-0.722220
-0.945597
-1.165983
-1.382613
-1.594859
-1.802127
-2.003869
-2.199586
-2.388833
-2.571222
-2.746422
-2.914159
-3.074218
-3.226444
-3.370733
-3.507037
-3.635361
-3.755752
-3.868305
-3.973150
-4.070455
-4.160413
-4.243245
-4.319189
-4.388497
-4.451430
-4.508253
-4.559230
-4.604621
-4.644674
-4.679626
-4.709694
-4.735077
-4.755951
-4.772465
-4.784740
-4.792817
-4.797852
0.000000
0.000000
0.000000
0.000000
-0.274626
-0.495632
-0.722220
-0.945597
-1.165983
-1.382613
-1.594859
-1.802127
-2.003869
-2.199586
-2.388833
-2.571222
-2.746422
-2.914159
-3.074218
-3.226444
-3.370733
-3.507037
-3.635361
-3.755752
-3.868305
-3.973150
-4.070455
-4.160413
-4.243245
-4.319189
-4.388497
-4.451430
-4.508253
-4.559230
-4.604621
-4.644674
-4.679626
-4.709694
-4.735077
-4.755951
-4.772465
-4.784740
-4.792817
-4.797852
0.000000
0.000000
0.000000
0.000000
-0.274626
-0.495632
-0.722220
-0.945597
-1.165983
-1.382613
-1.594859
-1.802127
-2.003869
-2.199586
-2.388833
-2.571222
-2.746422
-2.914159
-3.074218
-3.226444
-3.370733
-3.507037
-3.635361
-3.755752
-3.868305
-3.973150
-4.070455
-4.160413
-4.243245
-4.319189
-4.388497
-4.451430
-4.508253
-4.559230
-4.604621
-4.644674
-4.679626
-4.709694
-4.735077
-4.755951
-4.772465
-4.784740
-4.792817
-4.797852
0.000000
0.000000
0.000000
0.000000
-0.274626
-0.495632
-0.722220
-0.945597
-1.165983
-1.382613
-1.594859
-1.802127
-2.003869
-2.199586
-2.388833
-2.571222
-2.746422
-2.914159
-3.074218
-3.226444
-3.370733
-3.507037
-3.635361
-3.755752
-3.868305
-3.973150
-4.070455
-4.160413
-4.243245
-4.319189
-4.388497
-4.451430
-4.508253
-4.559230
-4.604621
-4.644674
-4.679626
-4.709694
-4.735077
-4.755951
-4.772465
-4.784740
-4.792817
-4.797852
0.000000
0.000000
0.000000
0.000000
-0.274626
-0.495632
-0.722220
-0.945597
-1.165983
-1.382613
-1.594859
-1.802127
-2.003869
-2.199586
-2.388833
-2.571222
-2.746422
-2.914159
-3.074218
-3.226444
-3.370733
-3.507037
-3.635361
-3.755752
-3.868305
-3.973150
-4.070455
-4.160413
-4.243245
-4.319189
-4.388497
-4.451430
-4.508253
-4.559230
-4.604621
-4.644674
-4.679626
-4.709694
-4.735077
-4.755951
-4.772465
-4.784740
-4.792817
-4.797852
0.000000
0.000000
0.000000
0.000000
-0.274626
-0.495632
-0.722220
-0.945597
-1.165983
-1.382613
-1.594859
-1.802127
-2.003869
-2.199586
-2.388833
-2.571222
-2.746422
-2.914159
-3.074218
-3.226444
-3.370733
-3.507037
-3.635361
-3.755752
-3.868305
-3.973150
-4.070455
-4.160413
-4.243245
-4.319189
-4.388497
-4.451430
-4.508253
-4.559230
-4.604621
-4.644674
-4.679626
-4.709694
-4.735077
-4.755951
-4.772465
-4.784740
-4.792817
-4.797852
0.000000
0.000000
0.000000
0.000000
-0.274626
-0.495632
-0.722220
-0.945597
-1.165983
-1.382613
-1.594859
-1.802127
-2.003869
-2.199586
-2.388833
-2.571222
-2.746422
-2.914159
-3.074218
-3.226444
-3.370733
-3.507037
-3.635361
-3.755752
-3.868305
-3.973150
-4.070455
-4.160413
-4.243245
-4.319189
-4.388497
-4.451430
-4.508253
-4.559230
-4.604621
-4.644674
-4.679626
-4.709694
-4.735077
-4.755951
-4.772465