<?xml version='1.0' encoding='UTF-8'?>
<VTKFile xmlns='VTK' byte_order='LittleEndian' version='0.1' type='UnstructuredGrid'>
<UnstructuredGrid>
<Piece NumberOfCells='1816' NumberOfPoints='1816'>
<Points>
<DataArray NumberOfComponents='3' type='Float32' Name='Position' format='ascii'>
1.930000 0.400000 0.000000
1.930000 0.412500 0.000000
1.930000 0.425000 0.000000
1.930000 0.437500 0.000000
1.930000 0.450000 0.000000
1.930000 0.462500 0.000000
1.930000 0.475000 0.000000
1.930000 0.487500 0.000000
1.967500 0.400000 0.000000
1.967500 0.412500 0.000000
1.967500 0.425000 0.000000
1.967500 0.437500 0.000000
1.967500 0.450000 0.000000
1.967500 0.462500 0.000000
1.967500 0.475000 0.000000
1.967500 0.487500 0.000000
0.025000 0.000000 0.000000
0.025000 0.012500 0.000000
0.025000 0.025000 0.000000
0.025000 0.037500 0.000000
0.025000 0.050000 0.000000
0.025000 0.062500 0.000000
0.025000 0.075000 0.000000
0.025000 0.087500 0.000000
0.025000 0.100000 0.000000
0.025000 0.112500 0.000000
0.025000 0.125000 0.000000
0.025000 0.137500 0.000000
0.025000 0.150000 0.000000
0.025000 0.162500 0.000000
0.025000 0.175000 0.000000
0.025000 0.187500 0.000000
0.025000 0.200000 0.000000
0.025000 0.212500 0.000000
0.025000 0.225000 0.000000
0.025000 0.237500 0.000000
0.025000 0.250000 0.000000
0.025000 0.262500 0.000000
0.025000 0.275000 0.000000
0.025000 0.287500 0.000000
0.025000 0.300000 0.000000
0.025000 0.312500 0.000000
0.025000 0.325000 0.000000
0.025000 0.337500 0.000000
0.025000 0.350000 0.000000
0.025000 0.362500 0.000000
0.025000 0.375000 0.000000
0.025000 0.387500 0.000000
2.005000 0.400000 0.000000
2.005000 0.412500 0.000000
2.005000 0.425000 0.000000
2.005000 0.437500 0.000000
2.005000 0.450000 0.000000
2.005000 0.462500 0.000000
2.005000 0.475000 0.000000
2.005000 0.487500 0.000000
0.062500 0.000000 0.000000
0.062500 0.012500 0.000000
0.062500 0.025000 0.000000
0.062500 0.037500 0.000000
0.062500 0.050000 0.000000
0.062500 0.062500 0.000000
0.062500 0.075000 0.000000
0.062500 0.087500 0.000000
0.062500 0.100000 0.000000
0.062500 0.112500 0.000000
0.062500 0.125000 0.000000
0.062500 0.137500 0.000000
0.062500 0.150000 0.000000
0.062500 0.162500 0.000000
0.062500 0.175000 0.000000
0.062500 0.187500 0.000000
0.062500 0.200000 0.000000
0.062500 0.212500 0.000000
0.062500 0.225000 0.000000
0.062500 0.237500 0.000000
0.062500 0.250000 0.000000
0.062500 0.262500 0.000000
0.062500 0.275000 0.000000
0.062500 0.287500 0.000000
0.062500 0.300000 0.000000
0.062500 0.312500 0.000000
0.062500 0.325000 0.000000
0.062500 0.337500 0.000000
0.062500 0.350000 0.000000
0.062500 0.362500 0.000000
0.062500 0.375000 0.000000
0.062500 0.387500 0.000000
2.042500 0.400000 0.000000
2.042500 0.412500 0.000000
2.042500 0.425000 0.000000
2.042500 0.437500 0.000000
2.042500 0.450000 0.000000
2.042500 0.462500 0.000000
2.042500 0.475000 0.000000
2.042500 0.487500 0.000000
0.100000 0.000000 0.000000
0.100000 0.012500 0.000000
0.100000 0.025000 0.000000
0.100000 0.037500 0.000000
0.100000 0.050000 0.000000
0.100000 0.062500 0.000000
0.100000 0.075000 0.000000
0.100000 0.087500 0.000000
0.100000 0.100000 0.000000
0.100000 0.112500 0.000000
0.100000 0.125000 0.000000
0.100000 0.137500 0.000000
0.100000 0.150000 0.000000
0.100000 0.162500 0.000000
0.100000 0.175000 0.000000
0.100000 0.187500 0.000000
0.100000 0.200000 0.000000
0.100000 0.212500 0.000000
0.100000 0.225000 0.000000
0.100000 0.237500 0.000000
0.100000 0.250000 0.000000
0.100000 0.262500 0.000000
0.100000 0.275000 0.000000
0.100000 0.287500 0.000000
0.100000 0.300000 0.000000
0.100000 0.312500 0.000000
0.100000 0.325000 0.000000
0.100000 0.337500 0.000000
0.100000 0.350000 0.000000
0.100000 0.362500 0.000000
0.100000 0.375000 0.000000
0.100000 0.387500 0.000000
2.080000 0.400000 0.000000
2.080000 0.412500 0.000000
2.080000 0.425000 0.000000
2.080000 0.437500 0.000000
2.080000 0.450000 0.000000
2.080000 0.462500 0.000000
2.080000 0.475000 0.000000
2.080000 0.487500 0.000000
0.137500 0.000000 0.000000
0.137500 0.012500 0.000000
0.137500 0.025000 0.000000
0.137500 0.037500 0.000000
0.137500 0.050000 0.000000
0.137500 0.062500 0.000000
0.137500 0.075000 0.000000
0.137500 0.087500 0.000000
0.137500 0.100000 0.000000
0.137500 0.112500 0.000000
0.137500 0.125000 0.000000
0.137500 0.137500 0.000000
0.137500 0.150000 0.000000
0.137500 0.162500 0.000000
0.137500 0.175000 0.000000
0.137500 0.187500 0.000000
0.137500 0.200000 0.000000
0.137500 0.212500 0.000000
0.137500 0.225000 0.000000
0.137500 0.237500 0.000000
0.137500 0.250000 0.000000
0.137500 0.262500 0.000000
0.137500 0.275000 0.000000
0.137500 0.287500 0.000000
0.137500 0.300000 0.000000
0.137500 0.312500 0.000000
0.137500 0.325000 0.000000
0.137500 0.337500 0.000000
0.137500 0.350000 0.000000
0.137500 0.362500 0.000000
0.137500 0.375000 0.000000
0.137500 0.387500 0.000000
2.117500 0.400000 0.000000
2.117500 0.412500 0.000000
2.117500 0.425000 0.000000
2.117500 0.437500 0.000000
2.117500 0.450000 0.000000
2.117500 0.462500 0.000000
2.117500 0.475000 0.000000
2.117500 0.487500 0.000000
0.175000 0.000000 0.000000
0.175000 0.012500 0.000000
0.175000 0.025000 0.000000
0.175000 0.037500 0.000000
0.175000 0.050000 0.000000
0.175000 0.062500 0.000000
0.175000 0.075000 0.000000
0.175000 0.087500 0.000000
0.175000 0.100000 0.000000
0.175000 0.112500 0.000000
0.175000 0.125000 0.000000
0.175000 0.137500 0.000000
0.175000 0.150000 0.000000
0.175000 0.162500 0.000000
0.175000 0.175000 0.000000
0.175000 0.187500 0.000000
0.175000 0.200000 0.000000
0.175000 0.212500 0.000000
0.175000 0.225000 0.000000
0.175000 0.237500 0.000000
0.175000 0.250000 0.000000
0.175000 0.262500 0.000000
0.175000 0.275000 0.000000
0.175000 0.287500 0.000000
0.175000 0.300000 0.000000
0.175000 0.312500 0.000000
0.175000 0.325000 0.000000
0.175000 0.337500 0.000000
0.175000 0.350000 0.000000
0.175000 0.362500 0.000000
0.175000 0.375000 0.000000
0.175000 0.387500 0.000000
2.155000 0.400000 0.000000
2.155000 0.412500 0.000000
2.155000 0.425000 0.000000
2.155000 0.437500 0.000000
2.155000 0.450000 0.000000
2.155000 0.462500 0.000000
2.155000 0.475000 0.000000
2.155000 0.487500 0.000000
0.212500 0.000000 0.000000
0.212500 0.012500 0.000000
0.212500 0.025000 0.000000
0.212500 0.037500 0.000000
0.212500 0.050000 0.000000
0.212500 0.062500 0.000000
0.212500 0.075000 0.000000
0.212500 0.087500 0.000000
0.212500 0.100000 0.000000
0.212500 0.112500 0.000000
0.212500 0.125000 0.000000
0.212500 0.137500 0.000000
0.212500 0.150000 0.000000
0.212500 0.162500 0.000000
0.212500 0.175000 0.000000
0.212500 0.187500 0.000000
0.212500 0.200000 0.000000
0.212500 0.212500 0.000000
0.212500 0.225000 0.000000
0.212500 0.237500 0.000000
0.212500 0.250000 0.000000
0.212500 0.262500 0.000000
0.212500 0.275000 0.000000
0.212500 0.287500 0.000000
0.212500 0.300000 0.000000
0.212500 0.312500 0.000000
0.212500 0.325000 0.000000
0.212500 0.337500 0.000000
0.212500 0.350000 0.000000
0.212500 0.362500 0.000000
0.212500 0.375000 0.000000
0.212500 0.387500 0.000000
2.192500 0.400000 0.000000
2.192500 0.412500 0.000000
2.192500 0.425000 0.000000
2.192500 0.437500 0.000000
2.192500 0.450000 0.000000
2.192500 0.462500 0.000000
2.192500 0.475000 0.000000
2.192500 0.487500 0.000000
0.250000 0.000000 0.000000
0.250000 0.012500 0.000000
0.250000 0.025000 0.000000
0.250000 0.037500 0.000000
0.250000 0.050000 0.000000
0.250000 0.062500 0.000000
0.250000 0.075000 0.000000
0.250000 0.087500 0.000000
0.250000 0.100000 0.000000
0.250000 0.112500 0.000000
0.250000 0.125000 0.000000
0.250000 0.137500 0.000000
0.250000 0.150000 0.000000
0.250000 0.162500 0.000000
0.250000 0.175000 0.000000
0.250000 0.187500 0.000000
0.250000 0.200000 0.000000
0.250000 0.212500 0.000000
0.250000 0.225000 0.000000
0.250000 0.237500 0.000000
0.250000 0.250000 0.000000
0.250000 0.262500 0.000000
0.250000 0.275000 0.000000
0.250000 0.287500 0.000000
0.250000 0.300000 0.000000
0.250000 0.312500 0.000000
0.250000 0.325000 0.000000
0.250000 0.337500 0.000000
0.250000 0.350000 0.000000
0.250000 0.362500 0.000000
0.250000 0.375000 0.000000
0.250000 0.387500 0.000000
2.230000 0.400000 0.000000
2.230000 0.412500 0.000000
2.230000 0.425000 0.000000
2.230000 0.437500 0.000000
2.230000 0.450000 0.000000
2.230000 0.462500 0.000000
2.230000 0.475000 0.000000
2.230000 0.487500 0.000000
0.287500 0.000000 0.000000
0.287500 0.012500 0.000000
0.287500 0.025000 0.000000
0.287500 0.037500 0.000000
0.287500 0.050000 0.000000
0.287500 0.062500 0.000000
0.287500 0.075000 0.000000
0.287500 0.087500 0.000000
0.287500 0.100000 0.000000
0.287500 0.112500 0.000000
0.287500 0.125000 0.000000
0.287500 0.137500 0.000000
0.287500 0.150000 0.000000
0.287500 0.162500 0.000000
0.287500 0.175000 0.000000
0.287500 0.187500 0.000000
0.287500 0.200000 0.000000
0.287500 0.212500 0.000000
0.287500 0.225000 0.000000
0.287500 0.237500 0.000000
0.287500 0.250000 0.000000
0.287500 0.262500 0.000000
0.287500 0.275000 0.000000
0.287500 0.287500 0.000000
0.287500 0.300000 0.000000
0.287500 0.312500 0.000000
0.287500 0.325000 0.000000
0.287500 0.337500 0.000000
0.287500 0.350000 0.000000
0.287500 0.362500 0.000000
0.287500 0.375000 0.000000
0.287500 0.387500 0.000000
2.267500 0.400000 0.000000
2.267500 0.412500 0.000000
2.267500 0.425000 0.000000
2.267500 0.437500 0.000000
2.267500 0.450000 0.000000
2.267500 0.462500 0.000000
2.267500 0.475000 0.000000
2.267500 0.487500 0.000000
0.325000 0.000000 0.000000
0.325000 0.012500 0.000000
0.325000 0.025000 0.000000
0.325000 0.037500 0.000000
0.325000 0.050000 0.000000
0.325000 0.062500 0.000000
0.325000 0.075000 0.000000
0.325000 0.087500 0.000000
0.325000 0.100000 0.000000
0.325000 0.112500 0.000000
0.325000 0.125000 0.000000
0.325000 0.137500 0.000000
0.325000 0.150000 0.000000
0.325000 0.162500 0.000000
0.325000 0.175000 0.000000
0.325000 0.187500 0.000000
0.325000 0.200000 0.000000
0.325000 0.212500 0.000000
0.325000 0.225000 0.000000
0.325000 0.237500 0.000000
0.325000 0.250000 0.000000
0.325000 0.262500 0.000000
0.325000 0.275000 0.000000
[...]
<PointData>
<DataArray NumberOfComponents='1' type='Int32' Name='ParticleType' format='ascii'>
5
5
5
5
5
5
5
5
5
5
5
5
5
5
5
5
2
2
2
2
2
2
2
2
2
2
2
2
2
2
2
2
2
2
2
2
2
2
2
2
1
1
0
0
0
0
0
0
5
5
5
5
5
5
5
5
2
2
2
2
2
2
2
2
2
2
2
2
2
2
2
2
2
2
2
2
2
2
2
2
1
0
0
0
0
0
0
0
5
5
5
5
5
5
5
5
2
2
2
2
2
2
2
2
2
2
2
2
2
2
2
2
2
2
2
2
2
2
2
1
1
0
0
0
0
0
0
0
5
5
5
5
5
5
5
5
2
2
2
2
2
2
2
2
2
2
2
2
2
2
2
2
2
2
2
2
2
2
2
1
1
0
0
0
0
0
0
0
5
5
5
5
5
5
5
5
2
2
2
2
2
2
2
2
2
2
2
2
2
2
2
2
2
2
2
2
2
2
2
1
0
0
0
0
0
0
0
0
5
5
5
5
5
5
5
5
2
2
2
2
2
2
2
2
2
2
2
2
2
2
2
2
2
2
2
2
2
2
2
1
1
0
0
0
0
0
0
0
5
5
5
5
5
5
5
5
2
2
2
2
2
2
2
2
2
2
2
2
2
2
2
2
2
2
2
2
2
2
2
1
0
0
0
0
0
0
0
0
5
5
5
5
5
5
5
5
2
2
2
2
2
2
2
2
2
2
2
2
2
2
2
2
2
2
2
2
2
2
1
1
0
0
0
0
0
0
0
0
5
5
5
5
5
5
5
5
2
2
2
2
2
2
2
2
2
2
2
2
2
2
2
2
2
2
2
2
2
2
1
1
0
0
0
0
0
0
0
0
5
5
5
5
5
5
5
5
2
2
2
2
2
2
2
2
2
2
2
2
2
2
2
2
2
2
2
2
2
2
1
1
0
0
0
0
0
0
0
0
5
5
5
5
5
5
5
5
2
2
2
2
2
2
2
2
2
2
2
2
2
2
2
2
2
2
2
2
2
2
1
1
0
0
0
0
0
0
0
0
5
5
5
5
5
5
5
5
2
2
2
2
2
2
2
2
2
2
2
2
2
2
2
2
2
2
2
2
2
2
1
1
0
0
0
0
0
0
0
0
5
5
5
5
5
5
5
5
2
2
2
2
2
2
2
2
2
2
2
2
2
2
2
2
2
2
2
2
2
2
1
1
0
0
0
0
0
0
0
0
5
5
5
5
5
5
5
5
2
2
2
2
2
2
2
2
2
2
2
2
2
2
2
2
2
2
2
2
2
2
1
1
0
0
0
0
0
0
0
0
2
2
2
2
2
2
2
2
2
2
2
2
2
2
2
2
2
2
2
2
2
2
1
1
0
0
0
0
0
0
0
0
2
2
2
2
2
2
2
2
2
2
2
2
2
2
2
2
2
2
2
2
2
2
1
1
0
0
0
0
0
0
0
0
2
2
2
2
2
2
2
2
2
2
2
2
2
2
2
2
2
2
2
2
2
2
1
1
0
0
0
0
0
0
0
0
2
2
2
2
2
2
2
2
2
2
2
2
2
2
2
2
2
2
2
2
2
2
1
1
0
0
0
0
0
0
0
0
2
2
2
2
2
2
2
2
2
2
2
2
2
2
2
2
2
2
2
2
2
2
1
1
0
0
0
0
0
0
0
0
2
2
2
2
2
2
2
2
2
2
2
2
2
2
2
2
2
2
2
2
2
2
1
1
0
0
0
0
0
0
0
0
2
2
2
2
2
2
2
2
2
2
2
2
2
2
2
2
2
2
2
2
2
2
1
1
0
0
0
0
0
0
0
0
2
2
2
2
2
2
2
2
2
2
2
2
2
2
2
2
2
2
2
2
2
2
1
1
0
0
0
0
0
0
0
0
2
2
2
2
2
2
2
2
2
2
2
2
2
2
2
2
2
2
2
2
2
2
1
1
0
0
0
0
0
0
0
0
2
2
2
2
2
2
2
2
2
2
2
2
2
2
2
2
2
2
2
2
2
2
1
1
0
0
0
0
0
0
0
0
2
2
2
2
2
2
2
2
2
2
2
2
2
2
2
2
2
2
2
2
2
2
2
1
1
0
0
0
0
0
0
0
2
2
2
2
2
2
2
2
2
2
2
2
2
2
2
2
2
2
2
2
2
2
2
1
0
0
0
0
0
0
0
0
2
2
2
2
2
2
2
2
2
2
2
2
2
2
2
2
2
2
2
2
2
2
2
1
1
0
0
0
0
0
0
0
2
2
2
2
2
2
2
2
2
2
2
2
2
2
2
2
2
2
2
2
2
2
2
1
1
0
0
0
0
0
0
0
2
2
2
2
2
2
2
2
2
2
2
2
2
2
2
2
2
2
2
2
2
2
2
1
1
0
0
0
0
0
0
0
2
2
2
2
2
2
2
2
2
2
2
2
2
2
2
2
2
2
2
2
2
2
2
1
1
0
0
0
0
0
0
0
2
2
2
2
2
2
2
2
2
2
2
2
2
2
2
2
2
2
2
2
2
2
2
1
1
0
0
0
0
0
0
0
2
2
2
2
2
2
2
2
2
2
2
2
2
2
2
2
2
2
2
2
2
2
2
1
1
0
0
0
0
0
0
0
2
2
2
2
2
2
2
2
2
2
2
2
2
2
2
2
2
2
2
2
2
2
2
1
1
0
0
0
0
0
0
0
2
2
2
2
2
2
2
2
2
2
2
2
2
2
2
2
2
2
2
2
2
2
2
1
1
0
0
0
0
0
0
0
2
2
2
2
2
2
2
2
2
2
2
2
2
2
2
2
2
2
2
2
2
2
2
2
1
1
0
0
0
0
0
0
2
2
2
2
2
2
2
2
2
2
2
2
2
2
2
2
2
2
2
2
2
2
2
2
1
1
0
0
0
0
0
0
2
2
2
2
2
2
2
2
2
2
2
2
2
2
2
2
2
2
2
2
2
2
2
2
1
1
0
0
0
0
0
0
2
2
2
2
2
2
2
2
2
2
2
2
2
2
2
2
2
2
2
2
2
2
2
2
1
1
0
0
0
0
0
0
2
2
2
2
2
2
2
2
2
2
2
2
2
2
2
2
2
2
2
2
2
2
2
2
1
1
0
0
0
0
0
0
2
2
2
2
2
2
2
2
2
2
2
2
2
2
2
2
2
2
2
2
2
2
2
2
1
1
0
0
0
0
0
0
2
2
2
2
2
2
2
2
2
2
2
2
2
2
2
2
2
2
2
2
2
2
2
2
1
1
0
0
0
0
0
0
2
2
2
2
2
2
2
2
2
2
2
2
2
2
2
2
2
2
2
2
2
2
2
2
1
1
0
0
0
0
0
0
2
2
2
2
2
2
2
2
2
2
2
2
2
2
2
2
2
2
2
2
2
2
2
2
1
1
0
0
0
0
0
0
2
2
2
2
2
2
2
2
2
2
2
2
2
2
2
2
2
2
2
2
2
2
2
2
1
1
0
0
0
0
0
0
2
2
2
2
2
2
2
2
2
2
2
2
2
2
2
2
2
2
2
2
2
2
2
2
1
1
0
0
0
0
0
0
2
2
2
2
2
2
2
2
2
2
2
2
2
2
2
2
2
2
2
2
2
2
2
2
2
1
0
0
0
0
0
0
2
2
2
2
2
2
2
2
2
2
2
2
2
2
2
2
2
2
2
2
2
2
2
2
2
1
0
0
0
0
0
0
2
2
2
2
2
2
2
2
2
2
2
2
2
2
2
2
2
2
2
2
2
2
2
2
2
1
1
0
0
0
0
0
2
2
2
2
2
2
2
2
2
2
2
2
2
2
2
2
2
2
2
2
2
2
2
2
2
1
1
0
0
0
0
0
2
2
2
2
2
2
2
2
2
2
2
2
2
2
2
2
2
2
2
2
2
2
2
2
2
1
1
0
0
0
0
0
2
2
2
2
2
2
2
2
2
2
2
2
2
2
2
2
2
2
2
2
2
2
2
2
2
1
1
0
0
0
0
0
2
2
2
2
2
2
2
2
2
2
2
2
2
2
2
2
2
2
2
2
2
2
2
2
2
1
1
0
0
0
0
0
2
2
2
2
2
2
2
2
2
2
2
2
2
2
2
2
2
2
2
2
2
2
2
2
2
2
1
0
0
0
0
0
</DataArray>
<DataArray NumberOfComponents='1' type='Float32' Name='Temperature' format='ascii'>
-3.000000
-3.000000
-3.000000
-3.000000
-3.000000
-3.000000
-3.000000
-3.000000
-3.000000
-3.000000
-3.000000
-3.000000
-3.000000
-3.000000
-3.000000
-3.000000
-4.885458
-4.875908
-4.860445
-4.836497
-4.803375
-4.760065
-4.705322
-4.637705
-4.555600
-4.457255
-4.340823
-4.204407
-4.046103
-3.864048
-3.656454
-3.421652
-3.158129
-2.864605
-2.540158
-2.184432
-1.797970
-1.382375
-0.942363
-0.474896
-0.006095
0.001372
9.845642
23.342817
39.296723
55.522280
68.897041
79.033452
-3.000000
-3.000000
-3.000000
-3.000000
-3.000000
-3.000000
-3.000000
-3.000000
-4.881347
-4.871410
-4.855315
-4.830378
-4.795872
-4.750719
-4.693597
-4.622965
-4.537085
-4.434065
-4.311899
-4.168529
-4.001913
-3.810112
-3.591383
-3.344287
-3.067810
-2.761473
-2.425449
-2.060622
-1.668584
-1.250312
-0.811079
-0.286127
-0.001204
1.427771
20.139575
39.480931
61.843032
84.399840
103.128118
117.418755
-3.000000
-3.000000
-3.000000
-3.000000
-3.000000
-3.000000
-3.000000
-3.000000
-4.879084
-4.868938
-4.852502
-4.827033
-4.791784
-4.745650
-4.687274
-4.615078
-4.527286
-4.421965
-4.297077
-4.150537
-3.980291
-3.784393
-3.561087
-3.308874
-3.026501
-2.712836
-2.366514
-1.985355
-1.565859
-1.103210
-0.599409
-0.005073
-0.003212
6.730612
27.376153
52.178838
81.096266
110.457730
134.934402
153.679315
-3.000000
-3.000000
-3.000000
-3.000000
-3.000000
-3.000000
-3.000000
-3.000000
-4.876392
-4.865927
-4.848967
-4.822672
-4.786252
-4.738546
-4.678123
-4.603315
-4.512239
-4.402830
-4.272886
-4.120112
-3.942178
-3.736789
-3.501772
-3.235182
-2.935447
-2.601541
-2.233196
-1.831183
-1.397018
-0.937766
-0.432238
-0.007720
0.006249
17.295234
39.502903
68.770263
103.142302
138.445170
168.077455
190.915240
-3.000000
-3.000000
-3.000000
-3.000000
-3.000000
-3.000000
-3.000000
-3.000000
-4.874668
-4.864003
-4.846710
-4.819881
-4.782689
-4.733916
-4.672054
-4.595341
-4.501776
-4.389163
-4.255163
-4.097360
-3.913347
-3.700841
-3.457808
-3.182615
-2.874200
-2.532242
-2.157312
-1.751085
-1.315503
-0.859790
-0.336665
-0.005223
0.680716
23.946653
49.585394
83.198391
122.853929
163.975919
198.712473
225.621677
-3.000000
-3.000000
-3.000000
-3.000000
-3.000000
-3.000000
-3.000000
-3.000000
-4.874080
-4.863379
-4.846028
-4.819112
-4.781801
-4.732873
-4.670818
-4.593863
-4.499997
-4.387009
-4.252540
-4.094150
-3.909408
-3.696004
-3.451879
-3.175385
-2.865445
-2.521731
-2.144808
-1.736357
-1.298273
-0.841440
-0.319112
-0.003044
0.009529
27.019307
56.194192
94.809330
140.623081
188.288474
228.634292
259.951620
-3.000000
-3.000000
-3.000000
-3.000000
-3.000000
-3.000000
-3.000000
-3.000000
-4.873114
-4.862309
-4.844790
-4.817615
-4.779948
-4.730561
-4.667939
-4.590304
-4.495646
-4.381760
-4.246298
-4.086838
-3.900971
-3.686410
-3.441117
-3.163452
-2.852329
-2.507380
-2.129091
-1.719023
-1.278735
-0.819835
-0.283082
-0.004914
0.497125
30.502445
63.489126
106.932399
158.381000
211.945962
257.374657
292.740145
-3.000000
-3.000000
-3.000000
-3.000000
-3.000000
-3.000000
-3.000000
-3.000000
-4.872163
-4.861245
-4.843543
-4.816082
-4.778018
-4.728109
-4.664827
-4.586382
-4.490751
-4.375723
-4.238947
-4.078004
-3.890490
-3.674119
-3.426836
-3.146924
-2.833044
-2.484104
-2.098655
-1.673620
-1.200789
-0.678676
-0.009823
-0.004108
5.920775
34.543999
70.993860
119.078816
176.124804
235.654455
286.279356
325.823431
-3.000000
-3.000000
-3.000000
-3.000000
-3.000000
-3.000000
-3.000000
-3.000000
-4.871533
-4.860529
-4.842682
-4.814991
-4.776594
-4.726230
-4.662338
-4.583092
-4.486415
-4.370019
-4.231431
-4.068035
-3.877106
-3.655842
-3.401404
-3.110990
-2.781975
-2.412181
-2.000365
-1.546474
-1.055602
-0.515137
-0.004844
0.000156
15.258590
40.714294
78.993075
130.581329
192.586810
257.707803
313.321661
356.935950
-3.000000
-3.000000
-3.000000
-3.000000
-3.000000
-3.000000
-3.000000
-3.000000
-4.870954
-4.859854
-4.841847
-4.813897
-4.775124
-4.724243
-4.659666
-4.579539
-4.481774
-4.364084
-4.224045
-4.059145
-3.866848
-3.644642
-3.390059
-3.100691
-2.774197
-2.408389
-2.001547
-1.552716
-1.065422
-0.528821
-0.007483
-0.000664
14.374626
44.121571
86.094211
142.054687
209.227935
280.045520
340.767020
388.594823
-3.000000
-3.000000
-3.000000
-3.000000
-3.000000
-3.000000
-3.000000
-3.000000
-4.870351
-4.859146
-4.840962
-4.812727
-4.773542
-4.722093
-4.656757
-4.575642
-4.476608
-4.357313
-4.215257
-4.047836
-3.852397
-3.626290
-3.366931
-3.071884
-2.738998
-2.366638
-1.954098
-1.501592
-1.015345
-0.474194
-0.004251
0.005411
18.349340
49.146642
93.530824
153.003633
224.856907
301.032077
366.638634
418.548134
-3.000000
-3.000000
-3.000000
-3.000000
-3.000000
-3.000000
-3.000000
-3.000000
-4.869919
-4.858683
-4.840450
-4.812140
-4.772852
-4.721266
-4.655748
-4.574383
-4.474995
-4.355179
-4.212343
-4.043756
-3.846607
-3.618083
-3.355479
-3.056352
-2.718741
-2.341458
-1.924511
-1.468808
-0.982464
-0.435905
-0.004818
0.004477
21.589363
52.802223
99.229634
162.332749
239.318752
321.406022
392.382134
448.762837
-3.000000
-3.000000
-3.000000
-3.000000
-3.000000
-3.000000
-3.000000
-3.000000
-4.866656
-4.855166
-4.836532
-4.807622
-4.767544
-4.714987
-4.648338
-4.565710
-4.464968
-4.343768
-4.199591
-4.029799
-3.831691
-3.602571
-3.339849
-3.041173
-2.704632
-2.329016
-1.914227
-1.460955
-0.977200
-0.431663
-0.008321
0.007990
22.090005
55.574627
105.160660
172.187044
253.811254
341.003257
416.642134
477.006647
-3.000000
-3.000000
-3.000000
-3.000000
-3.000000
-3.000000
-3.000000
-3.000000
-4.863723
-4.852080
-4.833202
-4.803923
-4.763347
-4.710153
-4.642709
-4.559089
-4.457104
-4.334323
-4.188123
-4.015743
-3.814363
-3.581220
-3.313749
-3.009780
-2.667770
-2.287068
-1.868274
-1.412568
-0.930007
-0.377662
-0.006213
0.008734
26.497039
60.621970
111.992539
182.014713
267.796317
359.724957
439.679842
503.718902
-4.870756
-4.859495
-4.841227
-4.812873
-4.773543
-4.721930
-4.656421
-4.575121
-4.475879
-4.356315
-4.213862
-4.045807
-3.849349
-3.621665
-3.360008
-3.061842
-2.725045
-2.348178
-1.930915
-1.473731
-0.984630
-0.431373
-0.002901
0.007942
22.703486
57.151933
108.938277
179.896402
267.278927
361.572091
444.109070
510.700482
-4.883882
-4.873366
-4.856280
-4.829709
-4.792759
-4.744125
-4.682190
-4.605054
-4.510558
-4.396319
-4.259779
-4.098259
-3.909016
-3.689303
-3.436406
-3.147658
-2.820458
-2.452324
-2.041173
-1.585549
-1.088700
-0.537151
-0.007792
0.005300
15.590846
50.548344
102.062475
173.590719
262.664164
359.792259
445.509451
515.252323
-4.890557
-4.880298
-4.863608
-4.837615
-4.801398
-4.753622
-4.692626
-4.616454
-4.522869
-4.409385
-4.273299
-4.111734
-3.921681
-3.700050
-3.443737
-3.149724
-2.815260
-2.438152
-2.017272
-1.552577
-1.050755
-0.488069
-0.007335
0.004617
19.880078
53.214866
104.331591
175.870973
265.694066
364.422046
452.201302
524.263675
-4.901976
-4.892385
-4.876750
-4.852340
-4.818218
-4.773027
-4.715076
-4.642351
-4.552536
-4.443026
-4.310961
-4.153256
-3.966644
-3.747733
-3.493077
-3.199321
-2.863418
-2.482992
-2.056908
-1.585386
-1.075351
-0.505815
-0.007938
0.002709
19.136825
50.259438
99.551017
170.460994
261.373228
362.804381
453.928214
529.498616
-4.908053
-4.898751
-4.883570
-4.859840
-4.826617
-4.782541
-4.725918
-4.654735
-4.566683
-4.459183
-4.329426
-4.174417
-3.991029
-3.776047
-3.526198
-3.238180
-2.908713
-2.534694
-2.113638
-1.644105
-1.130000
-0.558831
-0.008776
0.004824
15.869400
48.614913
99.099660
171.197767
263.517722
366.997889
460.573837
538.905783
-4.918436
-4.909820
-4.895728
-4.873641
-4.842612
-4.801276
-4.747924
-4.680510
-4.596669
-4.493731
-4.368754
-4.218561
-4.039780
-3.828884
-3.582215
-3.296018
-2.966520
-2.590140
-2.164021
-1.686612
-1.161846
-0.579691
-0.008283
0.000637
15.363362
45.519543
93.945296
165.295917
258.747098
365.167477
462.463522
544.818845
-4.923859
-4.915523
-4.901870
-4.880441
-4.850282
-4.810021
-4.757944
-4.692000
-4.609818
-4.508731
-4.385813
-4.237942
-4.061865
-3.854287
-3.611932
-3.331568
-3.009918
-2.643447
-2.228148
-1.759613
-1.235234
-0.652749
-0.009172
0.003310
11.163923
43.837757
93.535254
165.997278
260.759941
369.268166
469.233725
554.780832
-4.933157
-4.925508
-4.912951
-4.893185
-4.865260
-4.827814
-4.779132
-4.717148
-4.639452
-4.543303
-4.425664
-4.283242
-4.112556
-3.910003
-3.671912
-3.394540
-3.073972
-2.705928
-2.285638
-1.808174
-1.270953
-0.673230
-0.008656
-0.001337
11.141110
40.652392
88.014089
159.583473
255.500894
367.191426
471.290441
561.473348
-4.937956
-4.930577
-4.918444
-4.899312
-4.872223
-4.835810
-4.788350
-4.727770
-4.651650
-4.557240
-4.441495
-4.301118
-4.132642
-3.932538
-3.697354
-3.423882
-3.109323
-2.751334
-2.347656
-1.894850
-1.382755
-0.808067
-0.009390
0.002027
5.666119
39.063624
87.709580
160.255580
257.349271
371.150927
478.163831
572.070010
-4.946158
-4.939458
-4.928413
-4.910941
-4.886100
-4.852544
-4.808568
-4.752101
-4.680708
-4.591587
-4.481597
-4.347293
-4.184994
-3.990881
-3.761134
-3.492095
-3.180393
-2.822893
-2.416084
-1.954504
-1.425557
-0.824790
-0.008868
-0.003034
6.337031
35.749742
81.776357
153.283088
251.544683
368.778768
480.382049
579.659842
-4.950365
-4.943927
-4.933292
-4.916431
-4.892394
-4.859829
-4.817020
-4.761887
-4.691985
-4.604506
-4.496302
-4.363922
-4.203674
-4.011714
-3.784181
-3.517384
-3.208042
-2.853589
-2.452502
-2.004772
-1.510992
-0.983624
-0.362799
0.001149
0.009775
34.472065
81.655033
153.925982
253.188826
372.536644
487.327006
590.989264
-4.957480
-4.951702
-4.942132
-4.926906
-4.905101
-4.875399
-4.836122
-4.785215
-4.720239
-4.638362
-4.536371
-4.410688
-4.257421
-4.072438
-3.851491
-3.590408
-3.285351
-2.933178
-2.531856
-2.081019
-1.581308
-1.043592
-0.410784
-0.004248
0.749721
30.957354
75.257128
146.350021
246.777152
369.809387
489.691582
599.616977
-4.961167
-4.955648
-4.946483
-4.931862
-4.910852
-4.882126
-4.843991
-4.794380
-4.730835
-4.650517
-4.550206
-4.426337
-4.275039
-4.092208
-3.873609
-3.615031
-3.312503
-2.962608
-2.562874
-2.112365
-1.611223
-1.069850
-0.442394
0.000599
0.007718
29.720879
75.276633
146.961527
248.178111
373.293801
496.663276
611.800660
-4.967540
-4.962698
-4.954630
-4.941703
-4.923024
-4.897323
-4.862964
-4.817933
-4.759818
-4.685806
-4.592694
-4.476907
-4.334553
-4.161475
-3.953334
-3.705695
-3.414135
-3.074410
-2.682743
-2.236385
-1.733832
-1.181191
-0.552846
-0.002450
0.006328
22.303532
67.506352
138.640752
241.278422
370.273387
499.208970
621.661146
-4.971895
-4.967492
-4.960129
-4.948287
-4.931092
-4.907301
-4.875305
-4.833107
-4.778305
-4.708070
-4.619150
-4.507883
-4.370222
-4.201788
-3.997921
-3.753769
-3.464404
-3.125033
-2.731377
-2.280372
-1.770534
-1.208437
-0.569444
-0.006894
0.001550
22.337841
64.902284
134.873420
238.081188
370.204327
504.219713
634.050245
-4.974398
-4.970186
-4.963122
-4.951724
-4.935107
-4.912015
-4.880820
-4.839502
-4.785628
-4.716338
-4.628349
-4.517976
-4.381169
-4.213571
-4.010587
-3.767455
-3.479345
-3.141503
-2.749536
-2.300008
-1.790823
-1.227302
-0.587336
-0.006024
0.002357
21.303085
64.816786
135.144567
238.804313
373.034985
511.125730
647.882481
-4.978876
-4.975227
-4.969084
-4.959126
-4.944524
-4.924096
-4.896298
-4.859200
-4.810450
-4.747254
-4.666372
-4.564128
-4.436452
-4.278952
-4.087009
-3.855895
-3.580849
-3.257076
-2.879577
-2.442909
-1.941132
-1.370165
-0.725491
-0.008635
-0.001900
13.225983
55.865576
125.298098
230.374406
368.981339
513.641938
659.924173
-4.981248
-4.977827
-4.972046
-4.962630
-4.948746
-4.929202
-4.902436
-4.866484
-4.818949
-4.756972
-4.677228
-4.575938
-4.448913
-4.291626
-4.099306
-3.867045
-3.589855
-3.262671
-2.880260
-2.437232
-1.928341
-1.352016
-0.700836
-0.006273
0.004729
15.104464
57.692059
126.551953
231.139765
371.397758
520.369146
675.039403
-4.984848
-4.981942
-4.977007
-4.968930
-4.956939
-4.939932
-4.916452
-4.884648
-4.842232
-4.786448
-4.714041
-4.621262
-4.503886
-4.357275
-4.176488
-3.956446
-3.692160
-3.379002
-3.012963
-2.590637
-2.108418
-1.556540
-0.933308
-0.005168
-0.004047
5.747279
48.441708
116.105362
221.910799
366.673410
522.817719
688.894099
-4.986779
-4.984090
-4.979500
-4.971944
-4.960652
-4.944516
-4.922065
-4.891419
-4.850248
-4.795725
-4.724506
-4.632723
-4.516018
-4.369609
-4.188415
-3.967235
-3.700972
-3.384855
-3.014495
-2.585417
-2.091651
-1.520889
-0.869468
-0.006550
0.003176
7.990982
50.480162
117.348711
222.178719
368.357086
529.182645
705.586316
-4.989547
-4.987308
-4.983468
-4.977108
-4.967533
-4.953734
-4.934361
-4.907672
-4.871478
-4.823093
-4.759295
-4.676306
-4.569788
-4.434885
-4.266305
-4.058455
-3.805658
-3.502456
-3.144022
-2.726657
-2.248507
-1.708724
-1.120913
-0.413592
-0.005500
0.009235
41.093486
106.305097
212.066642
362.814770
531.408331
721.599861
-4.991070
-4.989032
-4.985514
-4.979648
-4.970742
-4.957790
-4.939435
-4.913915
-4.878998
-4.831932
-4.769398
-4.687483
-4.581690
-4.446979
-4.277867
-4.068595
-3.813378
-3.506747
-3.143990
-2.721677
-2.238365
-1.693613
-1.102250
-0.387246
0.002077
0.009929
43.444885
107.609909
211.778219
363.579754
537.189770
740.214783
-4.993112
-4.991454
-4.988577
-4.983747
-4.976351
-4.965493
-4.949953
-4.928122
-4.897942
-4.856838
-4.801663
-4.728656
-4.633426
-4.510966
-4.355710
-4.161630
-3.922402
-3.631648
-3.283309
-2.872177
-2.394733
-1.849058
-1.245080
-0.533639
-0.006600
0.006654
33.239133
95.767601
200.694233
357.044417
538.958840
758.818297
-4.994269
-4.992792
-4.990209
-4.985835
-4.979068
-4.969023
-4.954480
-4.933822
-4.904956
-4.865246
-4.811446
-4.739653
-4.645291
-4.523125
-4.367329
-4.171617
-3.929451
-3.634355
-3.280364
-2.862621
-2.378235
-1.825948
-1.217513
-0.496341
0.001319
0.007461
36.310988
97.284138
199.784516
356.664526
543.842760
779.799166
-4.995703
-4.994534
-4.992475
-4.988962
-4.983476
-4.975247
-4.963202
-4.945896
-4.921435
-4.887396
-4.840748
-4.777794
-4.694133
-4.584657
-4.443596
-4.264609
-4.040906
-3.765411
-3.430977
-3.030700
-2.558590
-2.010129
-1.389352
-0.670756
-0.007476
0.003849
24.557740
84.549500
187.704688
348.938933
544.810419
801.537654
-4.996541
-4.995528
-4.993728
-4.990623
-4.985713
-4.978246
-4.967164
-4.951022
-4.927906
-4.895340
-4.850202
-4.788651
-4.706086
-4.597143
-4.455736
-4.275154
-4.048221
-3.767525
-3.425767
-3.016302
-2.534047
-1.975897
-1.349241
-0.619259
0.000797
0.004677
28.608606
86.383394
186.099351
347.146571
548.352069
825.457023
-4.997490
-4.996712
-4.995319
-4.992894
-4.989020
-4.983059
-4.974104
-4.960898
-4.941748
-4.914426
-4.876069
-4.823093
-4.751117
-4.654942
-4.528579
-4.365349
-4.158057
-3.899219
-3.581251
-3.196528
-2.737220
-2.195095
-1.563400
-0.835641
-0.008417
0.008722
15.242716
73.005657
173.139972
338.039136
548.029380
851.035424
-4.998053
-4.997400
-4.996217
-4.994131
-4.990744
-4.985445
-4.977345
-4.965195
-4.947286
-4.921337
-4.884381
-4.832667
-4.761586
-4.665644
-4.538503
-4.373087
-4.161746
-3.896456
-3.569015
-3.171281
-2.695688
-2.136014
-1.493173
-0.752687
-0.004003
0.001034
20.818407
75.354131
170.801993
334.538405
549.602555
878.640169
-4.998581
-4.998070
-4.997134
-4.995462
-4.992706
-4.988325
-4.981518
-4.971139
-4.955591
-4.932705
-4.899611
-4.852614
-4.787100
-4.697474
-4.577172
-4.418745
-4.213998
-3.954188
-3.630232
-3.233014
-2.754030
-2.186450
-1.530958
-0.776360
0.000168
-0.000926
20.129568
70.613260
162.793599
326.995622
548.820208
909.709853
-4.998996
-4.998608
-4.997888
-4.996585
-4.994404
-4.990876
-4.985298
-4.976645
-4.963456
-4.943712
-4.914688
-4.872813
-4.813542
-4.731288
-4.619421
-4.470389
-4.275949
-4.027501
-3.716388
-3.334000
-2.871435
-2.318954
-1.666418
-0.910817
-0.009292
-0.001774
13.423977
64.384509
153.818546
318.160188
545.913844
941.195429
-4.999313
-4.999027
-4.998489
-4.997501
-4.995818
-4.993045
-4.988578
-4.981515
-4.970546
-4.953820
-4.928784
-4.892020
-4.839086
-4.764404
-4.661216
-4.521668
-4.337034
-4.098065
-3.795364
-3.419536
-2.960737
-2.407627
-1.745648
-0.971804
0.000938
-0.003915
11.913307
59.165121
144.696422
308.341326
541.738151
977.979601
-4.999542
-4.999336
-4.998944
-4.998212
-4.996942
-4.994807
-4.991299
-4.985638
-4.976670
-4.962725
-4.941445
-4.909602
-4.862903
-4.795832
-4.701557
-4.571972
-4.397918
-4.169636
-3.877480
-3.512826
-3.069020
-2.542117
-1.927885
-1.235394
-0.276844
-0.004089
3.992313
53.386387
135.100138
297.307753
534.915960
1015.583073
-4.999706
-4.999564
-4.999288
-4.998763
-4.997834
-4.996240
-4.993560
-4.989140
-4.981986