<?xml version='1.0' encoding='UTF-8'?>
<VTKFile xmlns='VTK' byte_order='LittleEndian' version='0.1' type='UnstructuredGrid'>
<UnstructuredGrid>
<Piece NumberOfCells='1816' NumberOfPoints='1816'>
<Points>
<DataArray NumberOfComponents='3' type='Float32' Name='Position' format='ascii'>
2.410000 0.400000 0.000000
2.410000 0.412500 0.000000
2.410000 0.425000 0.000000
2.410000 0.437500 0.000000
2.410000 0.450000 0.000000
2.410000 0.462500 0.000000
2.410000 0.475000 0.000000
2.410000 0.487500 0.000000
2.447500 0.400000 0.000000
2.447500 0.412500 0.000000
2.447500 0.425000 0.000000
2.447500 0.437500 0.000000
2.447500 0.450000 0.000000
2.447500 0.462500 0.000000
2.447500 0.475000 0.000000
2.447500 0.487500 0.000000
0.025000 0.000000 0.000000
0.025000 0.012500 0.000000
0.025000 0.025000 0.000000
0.025000 0.037500 0.000000
0.025000 0.050000 0.000000
0.025000 0.062500 0.000000
0.025000 0.075000 0.000000
0.025000 0.087500 0.000000
0.025000 0.100000 0.000000
0.025000 0.112500 0.000000
0.025000 0.125000 0.000000
0.025000 0.137500 0.000000
0.025000 0.150000 0.000000
0.025000 0.162500 0.000000
0.025000 0.175000 0.000000
0.025000 0.187500 0.000000
0.025000 0.200000 0.000000
0.025000 0.212500 0.000000
0.025000 0.225000 0.000000
0.025000 0.237500 0.000000
0.025000 0.250000 0.000000
0.025000 0.262500 0.000000
0.025000 0.275000 0.000000
0.025000 0.287500 0.000000
0.025000 0.300000 0.000000
0.025000 0.312500 0.000000
0.025000 0.325000 0.000000
0.025000 0.337500 0.000000
0.025000 0.350000 0.000000
0.025000 0.362500 0.000000
0.025000 0.375000 0.000000
0.025000 0.387500 0.000000
2.485000 0.400000 0.000000
2.485000 0.412500 0.000000
2.485000 0.425000 0.000000
2.485000 0.437500 0.000000
2.485000 0.450000 0.000000
2.485000 0.462500 0.000000
2.485000 0.475000 0.000000
2.485000 0.487500 0.000000
0.062500 0.000000 0.000000
0.062500 0.012500 0.000000
0.062500 0.025000 0.000000
0.062500 0.037500 0.000000
0.062500 0.050000 0.000000
0.062500 0.062500 0.000000
0.062500 0.075000 0.000000
0.062500 0.087500 0.000000
0.062500 0.100000 0.000000
0.062500 0.112500 0.000000
0.062500 0.125000 0.000000
0.062500 0.137500 0.000000
0.062500 0.150000 0.000000
0.062500 0.162500 0.000000
0.062500 0.175000 0.000000
0.062500 0.187500 0.000000
0.062500 0.200000 0.000000
0.062500 0.212500 0.000000
0.062500 0.225000 0.000000
0.062500 0.237500 0.000000
0.062500 0.250000 0.000000
0.062500 0.262500 0.000000
0.062500 0.275000 0.000000
0.062500 0.287500 0.000000
0.062500 0.300000 0.000000
0.062500 0.312500 0.000000
0.062500 0.325000 0.000000
0.062500 0.337500 0.000000
0.062500 0.350000 0.000000
0.062500 0.362500 0.000000
0.062500 0.375000 0.000000
0.062500 0.387500 0.000000
2.522500 0.400000 0.000000
2.522500 0.412500 0.000000
2.522500 0.425000 0.000000
2.522500 0.437500 0.000000
2.522500 0.450000 0.000000
2.522500 0.462500 0.000000
2.522500 0.475000 0.000000
2.522500 0.487500 0.000000
0.100000 0.000000 0.000000
0.100000 0.012500 0.000000
0.100000 0.025000 0.000000
0.100000 0.037500 0.000000
0.100000 0.050000 0.000000
0.100000 0.062500 0.000000
0.100000 0.075000 0.000000
0.100000 0.087500 0.000000
0.100000 0.100000 0.000000
0.100000 0.112500 0.000000
0.100000 0.125000 0.000000
0.100000 0.137500 0.000000
0.100000 0.150000 0.000000
0.100000 0.162500 0.000000
0.100000 0.175000 0.000000
0.100000 0.187500 0.000000
0.100000 0.200000 0.000000
0.100000 0.212500 0.000000
0.100000 0.225000 0.000000
0.100000 0.237500 0.000000
0.100000 0.250000 0.000000
0.100000 0.262500 0.000000
0.100000 0.275000 0.000000
0.100000 0.287500 0.000000
0.100000 0.300000 0.000000
0.100000 0.312500 0.000000
0.100000 0.325000 0.000000
0.100000 0.337500 0.000000
0.100000 0.350000 0.000000
0.100000 0.362500 0.000000
0.100000 0.375000 0.000000
0.100000 0.387500 0.000000
2.560000 0.400000 0.000000
2.560000 0.412500 0.000000
2.560000 0.425000 0.000000
2.560000 0.437500 0.000000
2.560000 0.450000 0.000000
2.560000 0.462500 0.000000
2.560000 0.475000 0.000000
2.560000 0.487500 0.000000
0.137500 0.000000 0.000000
0.137500 0.012500 0.000000
0.137500 0.025000 0.000000
0.137500 0.037500 0.000000
0.137500 0.050000 0.000000
0.137500 0.062500 0.000000
0.137500 0.075000 0.000000
0.137500 0.087500 0.000000
0.137500 0.100000 0.000000
0.137500 0.112500 0.000000
0.137500 0.125000 0.000000
0.137500 0.137500 0.000000
0.137500 0.150000 0.000000
0.137500 0.162500 0.000000
0.137500 0.175000 0.000000
0.137500 0.187500 0.000000
0.137500 0.200000 0.000000
0.137500 0.212500 0.000000
0.137500 0.225000 0.000000
0.137500 0.237500 0.000000
0.137500 0.250000 0.000000
0.137500 0.262500 0.000000
0.137500 0.275000 0.000000
0.137500 0.287500 0.000000
0.137500 0.300000 0.000000
0.137500 0.312500 0.000000
0.137500 0.325000 0.000000
0.137500 0.337500 0.000000
0.137500 0.350000 0.000000
0.137500 0.362500 0.000000
0.137500 0.375000 0.000000
0.137500 0.387500 0.000000
2.597500 0.400000 0.000000
2.597500 0.412500 0.000000
2.597500 0.425000 0.000000
2.597500 0.437500 0.000000
2.597500 0.450000 0.000000
2.597500 0.462500 0.000000
2.597500 0.475000 0.000000
2.597500 0.487500 0.000000
0.175000 0.000000 0.000000
0.175000 0.012500 0.000000
0.175000 0.025000 0.000000
0.175000 0.037500 0.000000
0.175000 0.050000 0.000000
0.175000 0.062500 0.000000
0.175000 0.075000 0.000000
0.175000 0.087500 0.000000
0.175000 0.100000 0.000000
0.175000 0.112500 0.000000
0.175000 0.125000 0.000000
0.175000 0.137500 0.000000
0.175000 0.150000 0.000000
0.175000 0.162500 0.000000
0.175000 0.175000 0.000000
0.175000 0.187500 0.000000
0.175000 0.200000 0.000000
0.175000 0.212500 0.000000
0.175000 0.225000 0.000000
0.175000 0.237500 0.000000
0.175000 0.250000 0.000000
0.175000 0.262500 0.000000
0.175000 0.275000 0.000000
0.175000 0.287500 0.000000
0.175000 0.300000 0.000000
0.175000 0.312500 0.000000
0.175000 0.325000 0.000000
0.175000 0.337500 0.000000
0.175000 0.350000 0.000000
0.175000 0.362500 0.000000
0.175000 0.375000 0.000000
0.175000 0.387500 0.000000
2.635000 0.400000 0.000000
2.635000 0.412500 0.000000
2.635000 0.425000 0.000000
2.635000 0.437500 0.000000
2.635000 0.450000 0.000000
2.635000 0.462500 0.000000
2.635000 0.475000 0.000000
2.635000 0.487500 0.000000
0.212500 0.000000 0.000000
0.212500 0.012500 0.000000
0.212500 0.025000 0.000000
0.212500 0.037500 0.000000
0.212500 0.050000 0.000000
0.212500 0.062500 0.000000
0.212500 0.075000 0.000000
0.212500 0.087500 0.000000
0.212500 0.100000 0.000000
0.212500 0.112500 0.000000
0.212500 0.125000 0.000000
0.212500 0.137500 0.000000
0.212500 0.150000 0.000000
0.212500 0.162500 0.000000
0.212500 0.175000 0.000000
0.212500 0.187500 0.000000
0.212500 0.200000 0.000000
0.212500 0.212500 0.000000
0.212500 0.225000 0.000000
0.212500 0.237500 0.000000
0.212500 0.250000 0.000000
0.212500 0.262500 0.000000
0.212500 0.275000 0.000000
0.212500 0.287500 0.000000
0.212500 0.300000 0.000000
0.212500 0.312500 0.000000
0.212500 0.325000 0.000000
0.212500 0.337500 0.000000
0.212500 0.350000 0.000000
0.212500 0.362500 0.000000
0.212500 0.375000 0.000000
0.212500 0.387500 0.000000
2.672500 0.400000 0.000000
2.672500 0.412500 0.000000
2.672500 0.425000 0.000000
2.672500 0.437500 0.000000
2.672500 0.450000 0.000000
2.672500 0.462500 0.000000
2.672500 0.475000 0.000000
2.672500 0.487500 0.000000
0.250000 0.000000 0.000000
0.250000 0.012500 0.000000
0.250000 0.025000 0.000000
0.250000 0.037500 0.000000
0.250000 0.050000 0.000000
0.250000 0.062500 0.000000
0.250000 0.075000 0.000000
0.250000 0.087500 0.000000
0.250000 0.100000 0.000000
0.250000 0.112500 0.000000
0.250000 0.125000 0.000000
0.250000 0.137500 0.000000
0.250000 0.150000 0.000000
0.250000 0.162500 0.000000
0.250000 0.175000 0.000000
0.250000 0.187500 0.000000
0.250000 0.200000 0.000000
0.250000 0.212500 0.000000
0.250000 0.225000 0.000000
0.250000 0.237500 0.000000
0.250000 0.250000 0.000000
0.250000 0.262500 0.000000
0.250000 0.275000 0.000000
0.250000 0.287500 0.000000
0.250000 0.300000 0.000000
0.250000 0.312500 0.000000
0.250000 0.325000 0.000000
0.250000 0.337500 0.000000
0.250000 0.350000 0.000000
0.250000 0.362500 0.000000
0.250000 0.375000 0.000000
0.250000 0.387500 0.000000
2.710000 0.400000 0.000000
2.710000 0.412500 0.000000
2.710000 0.425000 0.000000
2.710000 0.437500 0.000000
2.710000 0.450000 0.000000
2.710000 0.462500 0.000000
2.710000 0.475000 0.000000
2.710000 0.487500 0.000000
0.287500 0.000000 0.000000
0.287500 0.012500 0.000000
0.287500 0.025000 0.000000
0.287500 0.037500 0.000000
0.287500 0.050000 0.000000
0.287500 0.062500 0.000000
0.287500 0.075000 0.000000
0.287500 0.087500 0.000000
0.287500 0.100000 0.000000
0.287500 0.112500 0.000000
0.287500 0.125000 0.000000
0.287500 0.137500 0.000000
0.287500 0.150000 0.000000
0.287500 0.162500 0.000000
0.287500 0.175000 0.000000
0.287500 0.187500 0.000000
0.287500 0.200000 0.000000
0.287500 0.212500 0.000000
0.287500 0.225000 0.000000
0.287500 0.237500 0.000000
0.287500 0.250000 0.000000
0.287500 0.262500 0.000000
0.287500 0.275000 0.000000
0.287500 0.287500 0.000000
0.287500 0.300000 0.000000
0.287500 0.312500 0.000000
0.287500 0.325000 0.000000
0.287500 0.337500 0.000000
0.287500 0.350000 0.000000
0.287500 0.362500 0.000000
0.287500 0.375000 0.000000
0.287500 0.387500 0.000000
2.747500 0.400000 0.000000
2.747500 0.412500 0.000000
2.747500 0.425000 0.000000
2.747500 0.437500 0.000000
2.747500 0.450000 0.000000
2.747500 0.462500 0.000000
2.747500 0.475000 0.000000
2.747500 0.487500 0.000000
0.325000 0.000000 0.000000
0.325000 0.012500 0.000000
0.325000 0.025000 0.000000
0.325000 0.037500 0.000000
0.325000 0.050000 0.000000
0.325000 0.062500 0.000000
0.325000 0.075000 0.000000
0.325000 0.087500 0.000000
0.325000 0.100000 0.000000
0.325000 0.112500 0.000000
0.325000 0.125000 0.000000
0.325000 0.137500 0.000000
0.325000 0.150000 0.000000
0.325000 0.162500 0.000000
0.325000 0.175000 0.000000
0.325000 0.187500 0.000000
0.325000 0.200000 0.000000
0.325000 0.212500 0.000000
0.325000 0.225000 0.000000
0.325000 0.237500 0.000000
0.325000 0.250000 0.000000
0.325000 0.262500 0.000000
0.325000 0.275000 0.000000
[...]
<PointData>
<DataArray NumberOfComponents='1' type='Int32' Name='ParticleType' format='ascii'>
5
5
5
5
5
5
5
5
5
5
5
5
5
5
5
5
2
2
2
2
2
2
2
2
2
2
2
2
2
2
2
2
2
2
2
2
2
2
2
2
1
1
0
0
0
0
0
0
5
5
5
5
5
5
5
5
2
2
2
2
2
2
2
2
2
2
2
2
2
2
2
2
2
2
2
2
2
2
2
1
1
0
0
0
0
0
0
0
5
5
5
5
5
5
5
5
2
2
2
2
2
2
2
2
2
2
2
2
2
2
2
2
2
2
2
2
2
2
2
1
1
0
0
0
0
0
0
0
5
5
5
5
5
5
5
5
2
2
2
2
2
2
2
2
2
2
2
2
2
2
2
2
2
2
2
2
2
2
1
1
0
0
0
0
0
0
0
0
5
5
5
5
5
5
5
5
2
2
2
2
2
2
2
2
2
2
2
2
2
2
2
2
2
2
2
2
2
2
1
1
0
0
0
0
0
0
0
0
5
5
5
5
5
5
5
5
2
2
2
2
2
2
2
2
2
2
2
2
2
2
2
2
2
2
2
2
2
2
1
1
0
0
0
0
0
0
0
0
5
5
5
5
5
5
5
5
2
2
2
2
2
2
2
2
2
2
2
2
2
2
2
2
2
2
2
2
2
2
1
1
0
0
0
0
0
0
0
0
5
5
5
5
5
5
5
5
2
2
2
2
2
2
2
2
2
2
2
2
2
2
2
2
2
2
2
2
2
2
1
1
0
0
0
0
0
0
0
0
5
5
5
5
5
5
5
5
2
2
2
2
2
2
2
2
2
2
2
2
2
2
2
2
2
2
2
2
2
2
1
0
0
0
0
0
0
0
0
0
5
5
5
5
5
5
5
5
2
2
2
2
2
2
2
2
2
2
2
2
2
2
2
2
2
2
2
2
2
1
1
0
0
0
0
0
0
0
0
0
5
5
5
5
5
5
5
5
2
2
2
2
2
2
2
2
2
2
2
2
2
2
2
2
2
2
2
2
2
1
1
0
0
0
0
0
0
0
0
0
5
5
5
5
5
5
5
5
2
2
2
2
2
2
2
2
2
2
2
2
2
2
2
2
2
2
2
2
2
1
1
0
0
0
0
0
0
0
0
0
5
5
5
5
5
5
5
5
2
2
2
2
2
2
2
2
2
2
2
2
2
2
2
2
2
2
2
2
2
1
1
0
0
0
0
0
0
0
0
0
5
5
5
5
5
5
5
5
2
2
2
2
2
2
2
2
2
2
2
2
2
2
2
2
2
2
2
2
2
1
1
0
0
0
0
0
0
0
0
0
2
2
2
2
2
2
2
2
2
2
2
2
2
2
2
2
2
2
2
2
2
1
1
0
0
0
0
0
0
0
0
0
2
2
2
2
2
2
2
2
2
2
2
2
2
2
2
2
2
2
2
2
2
1
1
0
0
0
0
0
0
0
0
0
2
2
2
2
2
2
2
2
2
2
2
2
2
2
2
2
2
2
2
2
2
1
1
0
0
0
0
0
0
0
0
0
2
2
2
2
2
2
2
2
2
2
2
2
2
2
2
2
2
2
2
2
2
1
1
0
0
0
0
0
0
0
0
0
2
2
2
2
2
2
2
2
2
2
2
2
2
2
2
2
2
2
2
2
2
1
1
0
0
0
0
0
0
0
0
0
2
2
2
2
2
2
2
2
2
2
2
2
2
2
2
2
2
2
2
2
2
1
1
0
0
0
0
0
0
0
0
0
2
2
2
2
2
2
2
2
2
2
2
2
2
2
2
2
2
2
2
2
2
1
1
0
0
0
0
0
0
0
0
0
2
2
2
2
2
2
2
2
2
2
2
2
2
2
2
2
2
2
2
2
2
2
1
0
0
0
0
0
0
0
0
0
2
2
2
2
2
2
2
2
2
2
2
2
2
2
2
2
2
2
2
2
2
1
1
0
0
0
0
0
0
0
0
0
2
2
2
2
2
2
2
2
2
2
2
2
2
2
2
2
2
2
2
2
2
2
1
1
0
0
0
0
0
0
0
0
2
2
2
2
2
2
2
2
2
2
2
2
2
2
2
2
2
2
2
2
2
2
1
0
0
0
0
0
0
0
0
0
2
2
2
2
2
2
2
2
2
2
2
2
2
2
2
2
2
2
2
2
2
2
1
1
0
0
0
0
0
0
0
0
2
2
2
2
2
2
2
2
2
2
2
2
2
2
2
2
2
2
2
2
2
2
1
1
0
0
0
0
0
0
0
0
2
2
2
2
2
2
2
2
2
2
2
2
2
2
2
2
2
2
2
2
2
2
1
1
0
0
0
0
0
0
0
0
2
2
2
2
2
2
2
2
2
2
2
2
2
2
2
2
2
2
2
2
2
2
1
1
0
0
0
0
0
0
0
0
2
2
2
2
2
2
2
2
2
2
2
2
2
2
2
2
2
2
2
2
2
2
1
1
0
0
0
0
0
0
0
0
2
2
2
2
2
2
2
2
2
2
2
2
2
2
2
2
2
2
2
2
2
2
1
1
0
0
0
0
0
0
0
0
2
2
2
2
2
2
2
2
2
2
2
2
2
2
2
2
2
2
2
2
2
2
1
1
0
0
0
0
0
0
0
0
2
2
2
2
2
2
2
2
2
2
2
2
2
2
2
2
2
2
2
2
2
2
1
1
0
0
0
0
0
0
0
0
2
2
2
2
2
2
2
2
2
2
2
2
2
2
2
2
2
2
2
2
2
2
1
1
0
0
0
0
0
0
0
0
2
2
2
2
2
2
2
2
2
2
2
2
2
2
2
2
2
2
2
2
2
2
2
1
1
0
0
0
0
0
0
0
2
2
2
2
2
2
2
2
2
2
2
2
2
2
2
2
2
2
2
2
2
2
1
1
0
0
0
0
0
0
0
0
2
2
2
2
2
2
2
2
2
2
2
2
2
2
2
2
2
2
2
2
2
2
2
1
1
0
0
0
0
0
0
0
2
2
2
2
2
2
2
2
2
2
2
2
2
2
2
2
2
2
2
2
2
2
2
1
0
0
0
0
0
0
0
0
2
2
2
2
2
2
2
2
2
2
2
2
2
2
2
2
2
2
2
2
2
2
2
1
1
0
0
0
0
0
0
0
2
2
2
2
2
2
2
2
2
2
2
2
2
2
2
2
2
2
2
2
2
2
2
1
1
0
0
0
0
0
0
0
2
2
2
2
2
2
2
2
2
2
2
2
2
2
2
2
2
2
2
2
2
2
2
1
1
0
0
0
0
0
0
0
2
2
2
2
2
2
2
2
2
2
2
2
2
2
2
2
2
2
2
2
2
2
2
1
1
0
0
0
0
0
0
0
2
2
2
2
2
2
2
2
2
2
2
2
2
2
2
2
2
2
2
2
2
2
2
1
1
0
0
0
0
0
0
0
2
2
2
2
2
2
2
2
2
2
2
2
2
2
2
2
2
2
2
2
2
2
2
1
1
0
0
0
0
0
0
0
2
2
2
2
2
2
2
2
2
2
2
2
2
2
2
2
2
2
2
2
2
2
2
1
1
0
0
0
0
0
0
0
2
2
2
2
2
2
2
2
2
2
2
2
2
2
2
2
2
2
2
2
2
2
2
1
1
0
0
0
0
0
0
0
2
2
2
2
2
2
2
2
2
2
2
2
2
2
2
2
2
2
2
2
2
2
2
1
1
0
0
0
0
0
0
0
2
2
2
2
2
2
2
2
2
2
2
2
2
2
2
2
2
2
2
2
2
2
2
2
1
0
0
0
0
0
0
0
2
2
2
2
2
2
2
2
2
2
2
2
2
2
2
2
2
2
2
2
2
2
2
2
1
1
0
0
0
0
0
0
2
2
2
2
2
2
2
2
2
2
2
2
2
2
2
2
2
2
2
2
2
2
2
2
1
1
0
0
0
0
0
0
2
2
2
2
2
2
2
2
2
2
2
2
2
2
2
2
2
2
2
2
2
2
2
2
1
1
0
0
0
0
0
0
2
2
2
2
2
2
2
2
2
2
2
2
2
2
2
2
2
2
2
2
2
2
2
2
1
1
0
0
0
0
0
0
2
2
2
2
2
2
2
2
2
2
2
2
2
2
2
2
2
2
2
2
2
2
2
2
1
1
0
0
0
0
0
0
</DataArray>
<DataArray NumberOfComponents='1' type='Float32' Name='Temperature' format='ascii'>
-3.000000
-3.000000
-3.000000
-3.000000
-3.000000
-3.000000
-3.000000
-3.000000
-3.000000
-3.000000
-3.000000
-3.000000
-3.000000
-3.000000
-3.000000
-3.000000
-4.749476
-4.735599
-4.713381
-4.679428
-4.633289
-4.574208
-4.501268
-4.413431
-4.309560
-4.188457
-4.048905
-3.889718
-3.709795
-3.508183
-3.284150
-3.037262
-2.767457
-2.475132
-2.161215
-1.827220
-1.475326
-1.107960
-0.731555
-0.328466
-0.004194
0.007857
13.658893
25.853202
39.051376
51.546581
61.409293
68.568679
-3.000000
-3.000000
-3.000000
-3.000000
-3.000000
-3.000000
-3.000000
-3.000000
-4.740692
-4.726254
-4.703133
-4.667792
-4.619755
-4.558223
-4.482225
-4.390654
-4.282287
-4.155814
-4.009871
-3.843076
-3.654069
-3.441569
-3.204436
-2.941754
-2.652939
-2.337862
-1.996982
-1.631508
-1.243167
-0.837190
-0.401377
-0.005728
0.004911
12.237707
25.904908
42.692190
60.933757
78.352108
92.116052
102.118443
-3.000000
-3.000000
-3.000000
-3.000000
-3.000000
-3.000000
-3.000000
-3.000000
-4.734738
-4.719924
-4.696197
-4.659927
-4.610617
-4.547439
-4.469388
-4.375319
-4.263972
-4.134003
-3.984034
-3.812689
-3.618660
-3.400766
-3.158031
-2.889776
-2.595717
-2.276082
-1.931732
-1.564339
-1.175930
-0.774031
-0.333734
-0.003115
0.006126
17.262613
35.070991
56.744832
80.272082
102.825049
120.705819
133.738105
-3.000000
-3.000000
-3.000000
-3.000000
-3.000000
-3.000000
-3.000000
-3.000000
-4.727232
-4.711856
-4.687223
-4.649554
-4.598322
-4.532654
-4.451495
-4.353650
-4.237814
-4.102613
-3.946642
-3.768502
-3.566829
-3.340301
-3.087614
-2.807451
-2.498451
-2.159262
-1.788803
-1.386636
-0.955004
-0.491973
-0.008770
-0.002300
9.200415
26.014018
47.823671
74.001160
102.290344
129.410558
150.956725
166.707166
-3.000000
-3.000000
-3.000000
-3.000000
-3.000000
-3.000000
-3.000000
-3.000000
-4.721958
-4.706164
-4.680853
-4.642137
-4.589454
-4.521884
-4.438307
-4.337444
-4.217881
-4.078102
-3.916531
-3.731576
-3.521686
-3.285424
-3.021558
-2.729181
-2.407855
-2.057779
-1.680015
-1.276171
-0.852831
-0.389916
-0.005505
0.003713
15.925535
34.717744
59.618536
89.578646
122.234926
153.721700
178.838127
197.261055
-3.000000
-3.000000
-3.000000
-3.000000
-3.000000
-3.000000
-3.000000
-3.000000
-4.720353
-4.704464
-4.679003
-4.640057
-4.587065
-4.519105
-4.435056
-4.333642
-4.213456
-4.072991
-3.910687
-3.724970
-3.514307
-3.277279
-3.012667
-2.719572
-2.397563
-2.046839
-1.668462
-1.263948
-0.840371
-0.373187
-0.004996
0.005371
17.646258
39.192032
67.828066
102.373150
140.093585
176.526918
205.629224
227.002764
-3.000000
-3.000000
-3.000000
-3.000000
-3.000000
-3.000000
-3.000000
-3.000000
-4.718124
-4.702112
-4.676455
-4.637210
-4.583812
-4.515333
-4.430642
-4.328451
-4.207338
-4.065783
-3.902212
-3.715046
-3.502762
-3.263969
-2.997503
-2.702546
-2.378763
-2.026454
-1.646766
-1.241136
-0.817516
-0.344138
-0.003693
0.005604
20.428939
44.589452
76.709934
115.474212
157.845411
198.805139
231.550046
255.623232
-3.000000
-3.000000
-3.000000
-3.000000
-3.000000
-3.000000
-3.000000
-3.000000
-4.715606
-4.699422
-4.673485
-4.633806
-4.579807
-4.510537
-4.424840
-4.321396
-4.198751
-4.055354
-3.889616
-3.699960
-3.484901
-3.243129
-2.973616
-2.675730
-2.349359
-1.995033
-1.614111
-1.207999
-0.785875
-0.306342
-0.006664
0.007578
23.924984
50.637321
86.046071
128.827510
175.735528
221.191300
257.596439
284.405894
-3.000000
-3.000000
-3.000000
-3.000000
-3.000000
-3.000000
-3.000000
-3.000000
-4.713167
-4.696737
-4.670394
-4.630074
-4.575164
-4.504666
-4.417371
-4.311902
-4.186749
-4.040327
-3.871030
-3.677312
-3.457772
-3.211248
-2.936916
-2.634376
-2.303654
-1.944973
-1.557935
-1.137400
-0.682563
-0.035585
-0.001235
3.536936
28.601299
57.719735
95.843921
141.932562
192.760434
242.268572
282.063688
311.456463
-3.000000
-3.000000
-3.000000
-3.000000
-3.000000
-3.000000
-3.000000
-3.000000
-4.711041
-4.694466
-4.667895
-4.627235
-4.571881
-4.500844
-4.412928
-4.306771
-4.180887
-4.033713
-3.863666
-3.669223
-3.448989
-3.201799
-2.926799
-2.623528
-2.291918
-1.932033
-1.543178
-1.119453
-0.659760
-0.009880
-0.003194
3.899095
30.711386
62.471728
104.057816
154.245500
209.535855
263.417856
306.779961
338.860356
-3.000000
-3.000000
-3.000000
-3.000000
-3.000000
-3.000000
-3.000000
-3.000000
-4.708639
-4.691854
-4.664946
-4.623768
-4.567704
-4.495750
-4.406693
-4.299150
-4.171607
-4.022449
-3.850003
-3.652566
-3.428412
-3.175799
-2.892955
-2.578113
-2.229635
-1.846348
-1.427805
-0.977468
-0.485879
-0.007940
0.001609
12.725052
35.862132
68.952292
112.917843
166.430540
225.615961
283.479363
330.165511
364.790089
-3.000000
-3.000000
-3.000000
-3.000000
-3.000000
-3.000000
-3.000000
-3.000000
-4.707007
-4.690105
-4.663005
-4.621529
-4.565050
-4.492551
-4.402802
-4.294407
-4.165840
-4.015481
-3.841666
-3.642713
-3.416948
-3.162706
-2.878340
-2.562246
-2.212987
-1.829613
-1.411859
-0.963635
-0.473363
-0.008752
0.001604
13.515960
38.562945
73.737528
120.405205
177.390912
240.712108
302.868049
353.164376
390.561021
-3.000000
-3.000000
-3.000000
-3.000000
-3.000000
-3.000000
-3.000000
-3.000000
-4.701774
-4.684698
-4.657327
-4.615448
-4.558438
-4.485282
-4.394739
-4.285389
-4.155647
-4.003803
-3.828044
-3.626500
-3.397284
-3.138568
-2.848688
-2.526319
-2.170708
-1.782032
-1.361211
-0.914775
-0.421044
-0.007867
0.001294
17.375347
42.196603
78.734848
127.838668
188.206426
255.426052
321.494768
375.024460
414.889220
-3.000000
-3.000000
-3.000000
-3.000000
-3.000000
-3.000000
-3.000000
-3.000000
-4.698194
-4.680949
-4.653303
-4.610996
-4.553394
-4.479460
-4.387930
-4.277351
-4.146104
-3.992440
-3.814519
-3.610460
-3.378403
-3.116609
-2.823588
-2.498280
-2.140275
-1.750129
-1.328976
-0.884337
-0.387938
-0.004194
0.003907
19.832340
46.233493
84.562138
135.898656
199.117923
269.700046
339.239091
395.684131
437.795297
-4.709276
-4.692433
-4.665422
-4.624072
-4.567743
-4.495396
-4.405761
-4.297377
-4.168606
-4.017673
-3.842690
-3.641696
-3.412713
-3.153815
-2.863252
-2.539629
-2.182145
-1.790963
-1.366990
-0.917032
-0.417650
-0.007088
0.004822
18.135524
43.892513
82.086390
133.846440
198.018611
270.018149
341.255212
399.280130
442.722090
-4.728864
-4.712674
-4.686695
-4.646894
-4.592619
-4.522825
-4.436240
-4.331402
-4.206690
-4.060359
-3.890566
-3.695401
-3.472894
-3.221019
-2.937693
-2.620825
-2.268472
-1.879242
-1.452607
-0.992461
-0.488347
-0.003868
-0.000741
13.597227
38.747619
76.483424
128.358842
193.269755
266.672339
339.777634
399.624865
444.641392
-4.739414
-4.723389
-4.697652
-4.658183
-4.604295
-4.534898
-4.448667
-4.344084
-4.219467
-4.073016
-3.902847
-3.707024
-3.483584
-3.230536
-2.945865
-2.627567
-2.273787
-1.883185
-1.455193
-0.993741
-0.486846
-0.005461
0.000012
14.160394
40.408842
78.641204
130.850115
196.202531
270.383371
344.594293
405.590007
451.662901
-4.756144
-4.740567
-4.715524
-4.677068
-4.624469
-4.556587
-4.472039
-4.369237
-4.246432
-4.101764
-3.933314
-3.739162
-3.517421
-3.266245
-2.983788
-2.668123
-2.317176
-1.928862
-1.501407
-1.036188
-0.527585
-0.004517
-0.001424
11.607657
38.297503
75.902296
127.557496
192.902313
267.930369
343.713730
406.441198
454.117251
-4.767010
-4.751778
-4.727276
-4.689629
-4.638099
-4.571535
-4.488534
-4.387482
-4.266582
-4.123900
-3.957404
-3.765001
-3.544560
-3.293907
-3.010807
-2.692955
-2.338057
-1.944161
-1.510057
-1.038552
-0.521887
-0.006808
-0.001791
12.769135
37.915740
75.397052
127.599793
194.021700
270.470389
347.882654
412.131480
461.132144
-4.783339
-4.768633
-4.744950
-4.708510
-4.658536
-4.593832
-4.512939
-4.414175
-4.295671
-4.155426
-3.991373
-3.801455
-3.583713
-3.336359
-3.057803
-2.746574
-2.401014
-2.018691
-1.595748
-1.126679
-0.611208
-0.004430
-0.003026
7.674756
35.222889
72.308787
124.007511
190.415486
267.776325
346.913489
413.083415
463.884345
-4.793440
-4.779078
-4.755940
-4.720317
-4.671427
-4.608074
-4.528789
-4.431877
-4.315443
-4.177442
-4.015737
-3.828156
-3.612554
-3.366841
-3.088949
-2.776682
-2.427448
-2.038005
-1.604532
-1.124368
-0.596933
-0.007058
-0.003683
9.307775
34.588101
71.602690
123.923492
191.460680
270.284153
351.124909
418.923587
471.182663
-4.808994
-4.795194
-4.772931
-4.738602
-4.691387
-4.630046
-4.553052
-4.458636
-4.344811
-4.209427
-4.050233
-3.864956
-3.651409
-3.407606
-3.131903
-2.823145
-2.480786
-2.104914
-1.696015
-1.252088
-0.777327
-0.137508
-0.004421
2.837751
32.288159
68.617119
120.188937
187.600039
267.362864
350.076388
419.998392
474.279121
-4.818299
-4.804835
-4.783104
-4.749576
-4.703429
-4.643425
-4.568037
-4.475493
-4.363797
-4.230776
-4.074134
-3.891530
-3.680662
-3.439384
-3.165808
-2.858380
-2.515769
-2.136305
-1.716532
-1.246315
-0.721831
-0.007218
-0.005308
5.229954
31.275850
67.685696
119.987154
188.575377
269.831978
354.322161
425.991148
481.886687
-4.833014
-4.820145
-4.799343
-4.767193
-4.722838
-4.664999
-4.592097
-4.502284
-4.393470
-4.263367
-4.109541
-3.929493
-3.720752
-3.481005
-3.208247
-2.900963
-2.558317
-2.180332
-1.768154
-1.323086
-0.856356
-0.315223
-0.005344
0.009218
29.633156
64.833448
116.071683
184.421771
266.651677
353.178601
427.198189
485.371265
-4.841543
-4.829000
-4.808714
-4.777339
-4.734021
-4.677485
-4.606156
-4.518194
-4.411516
-4.283830
-4.132687
-3.955542
-3.749841
-3.513130
-3.243203
-2.938272
-2.597184
-2.219628
-1.806448
-1.358824
-0.887196
-0.342176
-0.006471
0.305247
28.110614
63.669232
115.770789
185.333020
269.072828
357.446956
433.344630
493.318049
-4.855381
-4.843463
-4.824158
-4.794243
-4.752835
-4.698621
-4.629980
-4.545003
-4.441513
-4.317102
-4.169178
-3.995022
-3.791884
-3.557096
-3.288231
-2.983299
-2.640979
-2.260861
-1.843777
-1.391071
-0.913048
-0.365464
-0.006181
0.007501
26.851820
60.826311
111.621929
180.846968
265.599515
356.190222
434.693383
497.241329
-4.863350
-4.851762
-4.832977
-4.803848
-4.763490
-4.710601
-4.643571
-4.560509
-4.459264
-4.337458
-4.192521
-4.021743
-3.822340
-3.591541
-3.326716
-3.025546
-2.686251
-2.307864
-1.890623
-1.435453
-0.951566
-0.400520
-0.007191
0.008628
24.839987
59.408085
111.192593
181.676909
267.953582
360.464680
440.993849
505.563882
-4.877400
-4.866562
-4.848966
-4.821626
-4.783650
-4.733731
-4.670249
-4.591298
-4.494700
-4.378034
-4.238669
-4.073800
-3.880498
-3.655768
-3.396644
-3.100328
-2.764406
-2.387165
-1.968068
-1.507585
-1.013411
-0.457207
-0.008184
0.005662
21.371306
54.381961
105.335650
176.056256
263.832001
358.976481
442.482812
509.999894
-4.887213
-4.876850
-4.859998
-4.833767
-4.797246
-4.749108
-4.687709
-4.611113
-4.517117
-4.403289
-4.267008
-4.105521
-3.915999
-3.695583
-3.441428
-3.150738
-2.820825
-2.449262
-2.034268
-1.574905
-1.075743
-0.519668
-0.007251
0.001413
17.210276
51.804965
103.046661
174.271121
263.258750
360.624920
446.785783
517.076125
-4.892797
-4.882662
-4.866167
-4.840469
-4.804646
-4.757363
-4.696963
-4.621496
-4.528734
-4.416216
-4.281280
-4.121119
-3.932827
-3.713445
-3.459998
-3.169525
-2.839148
-2.466241
-2.048834
-1.585837
-1.081838
-0.519202
-0.001398
0.002060
17.620484
51.880927
103.363102
175.263230
265.520140
364.861747
453.322789
526.083741
-4.904013
-4.894569
-4.879174
-4.855137
-4.821539
-4.777047
-4.720000
-4.648434
-4.560095
-4.452476
-4.322861
-4.168389
-3.986133
-3.773187
-3.526751
-3.244170
-2.922884
-2.560220
-2.153088
-1.697778
-1.191479
-0.631214
-0.009146
-0.002141
10.751334
45.986273
96.696790
168.768599
260.598842
362.940385
454.923280
531.310652
-4.909890
-4.900705
-4.885711
-4.862266
-4.829429
-4.785845
-4.729823
-4.659352
-4.572121
-4.465535
-4.336748
-4.182700
-4.000150
-3.785712
-3.535889
-3.247132
-2.915959
-2.539215
-2.114601
-1.641028
-1.123206
-0.545964
-0.002119
0.001457
17.118131
48.644239
98.699592
170.714389
263.334208
367.423753
461.737990
540.865472
-4.920200
-4.911716
-4.897840
-4.876091
-4.845535
-4.804828
-4.752290
-4.685914
-4.603380
-4.502077
-4.379148
-4.231538
-4.056083
-3.849607
-3.609070
-3.331723
-3.015295
-2.658130
-2.259109
-1.816934
-1.325146
-0.784248
-0.006939
-0.001010
4.731306
41.490407
91.263878
163.663222
257.978621
365.314049
463.522055
546.793572
-4.925488
-4.917264
-4.903790
-4.882635
-4.852846
-4.813059
-4.761565
-4.696321
-4.614960
-4.514816
-4.392954
-4.246218
-4.071282
-3.864700
-3.622926
-3.342299
-3.018962
-2.648806
-2.227633
-1.751684
-1.220869
-0.630744
-0.002376
-0.000611
12.930123
43.771889
93.030808
165.419204
260.498660
369.657744
470.435992
556.897471
-4.934694
-4.927165
-4.914805
-4.895345
-4.867848
-4.830973
-4.783030
-4.721991
-4.645489
-4.550839
-4.435065
-4.294942
-4.127072
-3.927978
-3.694240
-3.422668
-3.110517
-2.755749
-2.357306
-1.915553
-1.431253
-0.918185
-0.308967
-0.002063
0.009330
37.216267
85.573244
157.986851
254.718900
367.334414
472.407724
563.629298
-4.939388
-4.932117
-4.920156
-4.901286
-4.874553
-4.838596
-4.791697
-4.731792
-4.656470
-4.562988
-4.448307
-4.309131
-4.141978
-3.943276
-3.709461
-3.437069
-3.122723
-2.762858
-2.352969
-1.886490
-1.353098
-0.751250
-0.002581
-0.002470
8.159500
38.800561
87.075464
159.580969
257.004046
371.494930
479.401703
574.366105
-4.947486
-4.940898
-4.930033
-4.912840
-4.888387
-4.855345
-4.812032
-4.756414
-4.686098
-4.598345
-4.490086
-4.357957
-4.198354
-4.007510
-3.781617
-3.516987
-3.210277
-2.858782
-2.460764
-2.015942
-1.524741
-0.998907
-0.383290
-0.002919
0.007111
32.712190
79.483533
151.682882
250.732075
368.904171
481.552341
582.020026
-4.951609
-4.945274
-4.934804
-4.918195
-4.894501
-4.862373
-4.820104
-4.765622
-4.696487
-4.609903
-4.502731
-4.371530
-4.212610
-4.022121
-3.796175
-3.531024
-3.223283
-2.870222
-2.470034
-2.022001
-1.524320
-0.982466
-0.275749
-0.003907
2.602042
33.849340
80.868247
153.161667
252.753877
372.822958
488.595491
593.491866
-4.958612
-4.952937
-4.943533
-4.928563
-4.907111
-4.877874
-4.839189
-4.789032
-4.725000
-4.644322
-4.543863
-4.420154
-4.269426
-4.087678
-3.870757
-3.614485
-3.314855
-2.968312
-2.572151
-2.125116
-1.627108
-1.087610
-0.465721
-0.003650
0.004594
27.734676
72.961335
144.723594
245.923601
369.901807
490.906441
602.209604
-4.962183
-4.956755
-4.947737
-4.933341
-4.912635
-4.884299
-4.846644
-4.797606
-4.734730
-4.655176
-4.555723
-4.432797
-4.282512
-4.100737
-3.883198
-3.625622
-3.323960
-2.974696
-2.575260
-2.124629
-1.622933
-1.080351
-0.452927
-0.001043
0.009078
29.012829
74.443028
146.130364
247.645808
373.506200
497.954183
614.543167
-4.968073
-4.963266
-4.955251
-4.942402
-4.923823
-4.898236
-4.863990
-4.819043
-4.760933
-4.686758
-4.593163
-4.476350
-4.332097
-4.155832
-3.942748
-3.688009
-3.387044
-3.035976
-2.632131
-2.174726
-1.664519
-1.112311
-0.477572
-0.007597
0.004551
28.039012
69.025702
138.637984
240.805827
370.416217
500.486164
624.538645
-4.970841
-4.966230
-4.958519
-4.946119
-4.928120
-4.903230
-4.869784
-4.825729
-4.768606
-4.695541
-4.603262
-4.488116
-4.346115
-4.173001
-3.964319
-3.715518
-3.422083
-3.079744
-2.684818
-2.234832
-1.728681
-1.173360
-0.540947
-0.000211
0.004790
23.349121
67.713821
138.595507
241.728209
373.500660
507.463913
637.905935
-4.974464
-4.970215
-4.963085
-4.951571
-4.934770
-4.911399
-4.879798
-4.837908
-4.783252
-4.712927
-4.623615
-4.511610
-4.372875
-4.203113
-3.997852
-3.752536
-3.462623
-3.123704
-2.731736
-2.283556
-1.777199
-1.217764
-0.583665
-0.005221
0.006567
20.877525
65.267398
135.490224
239.056531
373.679924
512.751549
651.238514
-4.978086
-4.974251
-4.967791
-4.957314
-4.941944
-4.920432
-4.891156
-4.852089
-4.800777
-4.734325
-4.649399
-4.542254
-4.408789
-4.244625
-4.045202
-3.805873
-3.521967
-3.188825
-2.801842
-2.356748
-1.850030
-1.283542
-0.644538
-0.006653
-0.000508
17.483527
61.150027
130.693526
234.852439
372.524499
516.899642
663.920880
-4.981389
-4.977952
-4.972137
-4.962658
-4.948663
-4.928935
-4.901879
-4.865492
-4.817323
-4.754458
-4.673515
-4.570663
-4.441685
-4.282062
-4.087102
-3.852071
-3.572295
-3.243169
-2.860044
-2.418091
-1.912371
-1.340762
-0.696871
-0.001137
0.005572
14.396808
58.300603
126.896176
231.252678
371.866606
521.928562
678.719457
-4.984336
-4.981284
-4.976097
-4.967598
-4.954970
-4.937042
-4.912271
-4.878700
-4.833923
-4.775051
-4.698702
-4.601014
-4.477689
-4.324090
-4.135375
-3.906674
-3.633275
-3.310718
-2.934673
-2.500364
-2.001669
-1.430267
-0.783785
-0.006962
-0.003072
10.536613
54.056702
121.761736
226.417387
370.054174
525.895149
693.014810
-4.986958
-4.984269
-4.979675
-4.972104
-4.960771