<?xml version='1.0' encoding='UTF-8'?>
<VTKFile xmlns='VTK' byte_order='LittleEndian' version='0.1' type='UnstructuredGrid'>
<UnstructuredGrid>
<Piece NumberOfCells='1888' NumberOfPoints='1888'>
<Points>
<DataArray NumberOfComponents='3' type='Float32' Name='Position' format='ascii'>
-0.040000 -0.030000 0.000000
-0.040000 -0.020000 0.000000
-0.040000 -0.010000 0.000000
-0.040000 0.000000 0.000000
-0.040000 0.010000 0.000000
-0.040000 0.020000 0.000000
-0.040000 0.030000 0.000000
-0.040000 0.040000 0.000000
-0.040000 0.050000 0.000000
-0.040000 0.060000 0.000000
-0.040000 0.070000 0.000000
-0.040000 0.080000 0.000000
-0.040000 0.090000 0.000000
-0.040000 0.100000 0.000000
-0.040000 0.110000 0.000000
-0.040000 0.120000 0.000000
-0.040000 0.130000 0.000000
-0.040000 0.140000 0.000000
-0.040000 0.150000 0.000000
-0.040000 0.160000 0.000000
-0.040000 0.170000 0.000000
-0.040000 0.180000 0.000000
-0.040000 0.190000 0.000000
-0.040000 0.200000 0.000000
-0.040000 0.210000 0.000000
-0.040000 0.220000 0.000000
-0.040000 0.230000 0.000000
-0.040000 0.240000 0.000000
-0.040000 0.250000 0.000000
-0.040000 0.260000 0.000000
-0.040000 0.270000 0.000000
-0.040000 0.280000 0.000000
-0.040000 0.290000 0.000000
-0.040000 0.300000 0.000000
-0.040000 0.310000 0.000000
-0.040000 0.320000 0.000000
-0.040000 0.330000 0.000000
-0.040000 0.340000 0.000000
-0.040000 0.350000 0.000000
-0.040000 0.360000 0.000000
-0.040000 0.370000 0.000000
-0.040000 0.380000 0.000000
-0.040000 0.390000 0.000000
-0.040000 0.400000 0.000000
0.010000 -0.030000 0.000000
0.010000 -0.020000 0.000000
0.010000 -0.010000 0.000000
0.010000 0.000000 0.000000
0.010000 0.010000 0.000000
0.010000 0.020000 0.000000
0.010000 0.030000 0.000000
0.010000 0.040000 0.000000
0.010000 0.050000 0.000000
0.010000 0.060000 0.000000
0.010000 0.070000 0.000000
0.010000 0.080000 0.000000
0.010000 0.090000 0.000000
0.010000 0.100000 0.000000
0.010000 0.110000 0.000000
0.010000 0.120000 0.000000
0.010000 0.130000 0.000000
0.010000 0.140000 0.000000
0.010000 0.150000 0.000000
0.010000 0.160000 0.000000
0.010000 0.170000 0.000000
0.010000 0.180000 0.000000
0.010000 0.190000 0.000000
0.010000 0.200000 0.000000
0.010000 0.210000 0.000000
0.010000 0.220000 0.000000
0.010000 0.230000 0.000000
0.010000 0.240000 0.000000
0.010000 0.250000 0.000000
0.010000 0.260000 0.000000
0.010000 0.270000 0.000000
0.010000 0.280000 0.000000
0.010000 0.290000 0.000000
0.010000 0.300000 0.000000
0.010000 0.310000 0.000000
0.010000 0.320000 0.000000
0.010000 0.330000 0.000000
0.010000 0.340000 0.000000
0.010000 0.350000 0.000000
0.010000 0.360000 0.000000
0.010000 0.370000 0.000000
0.010000 0.380000 0.000000
0.010000 0.390000 0.000000
0.010000 0.400000 0.000000
0.282000 0.410000 0.000000
0.282000 0.420000 0.000000
0.282000 0.430000 0.000000
0.282000 0.440000 0.000000
0.060000 -0.030000 0.000000
0.060000 -0.020000 0.000000
0.060000 -0.010000 0.000000
0.060000 0.000000 0.000000
0.060000 0.010000 0.000000
0.060000 0.020000 0.000000
0.060000 0.030000 0.000000
0.060000 0.040000 0.000000
0.060000 0.050000 0.000000
0.060000 0.060000 0.000000
0.060000 0.070000 0.000000
0.060000 0.080000 0.000000
0.060000 0.090000 0.000000
0.060000 0.100000 0.000000
0.060000 0.110000 0.000000
0.060000 0.120000 0.000000
0.060000 0.130000 0.000000
0.060000 0.140000 0.000000
0.060000 0.150000 0.000000
0.060000 0.160000 0.000000
0.060000 0.170000 0.000000
0.060000 0.180000 0.000000
0.060000 0.190000 0.000000
0.060000 0.200000 0.000000
0.060000 0.210000 0.000000
0.060000 0.220000 0.000000
0.060000 0.230000 0.000000
0.060000 0.240000 0.000000
0.060000 0.250000 0.000000
0.060000 0.260000 0.000000
0.060000 0.270000 0.000000
0.060000 0.280000 0.000000
0.060000 0.290000 0.000000
0.060000 0.300000 0.000000
0.060000 0.310000 0.000000
0.060000 0.320000 0.000000
0.060000 0.330000 0.000000
0.060000 0.340000 0.000000
0.060000 0.350000 0.000000
0.060000 0.360000 0.000000
0.060000 0.370000 0.000000
0.060000 0.380000 0.000000
0.060000 0.390000 0.000000
0.060000 0.400000 0.000000
0.332000 0.410000 0.000000
0.332000 0.420000 0.000000
0.332000 0.430000 0.000000
0.332000 0.440000 0.000000
0.110000 -0.030000 0.000000
0.110000 -0.020000 0.000000
0.110000 -0.010000 0.000000
0.110000 0.000000 0.000000
0.110000 0.010000 0.000000
0.110000 0.020000 0.000000
0.110000 0.030000 0.000000
0.110000 0.040000 0.000000
0.110000 0.050000 0.000000
0.110000 0.060000 0.000000
0.110000 0.070000 0.000000
0.110000 0.080000 0.000000
0.110000 0.090000 0.000000
0.110000 0.100000 0.000000
0.110000 0.110000 0.000000
0.110000 0.120000 0.000000
0.110000 0.130000 0.000000
0.110000 0.140000 0.000000
0.110000 0.150000 0.000000
0.110000 0.160000 0.000000
0.110000 0.170000 0.000000
0.110000 0.180000 0.000000
0.110000 0.190000 0.000000
0.110000 0.200000 0.000000
0.110000 0.210000 0.000000
0.110000 0.220000 0.000000
0.110000 0.230000 0.000000
0.110000 0.240000 0.000000
0.110000 0.250000 0.000000
0.110000 0.260000 0.000000
0.110000 0.270000 0.000000
0.110000 0.280000 0.000000
0.110000 0.290000 0.000000
0.110000 0.300000 0.000000
0.110000 0.310000 0.000000
0.110000 0.320000 0.000000
0.110000 0.330000 0.000000
0.110000 0.340000 0.000000
0.110000 0.350000 0.000000
0.110000 0.360000 0.000000
0.110000 0.370000 0.000000
0.110000 0.380000 0.000000
0.110000 0.390000 0.000000
0.110000 0.400000 0.000000
0.382000 0.410000 0.000000
0.382000 0.420000 0.000000
0.382000 0.430000 0.000000
0.382000 0.440000 0.000000
0.160000 -0.030000 0.000000
0.160000 -0.020000 0.000000
0.160000 -0.010000 0.000000
0.160000 0.000000 0.000000
0.160000 0.010000 0.000000
0.160000 0.020000 0.000000
0.160000 0.030000 0.000000
0.160000 0.040000 0.000000
0.160000 0.050000 0.000000
0.160000 0.060000 0.000000
0.160000 0.070000 0.000000
0.160000 0.080000 0.000000
0.160000 0.090000 0.000000
0.160000 0.100000 0.000000
0.160000 0.110000 0.000000
0.160000 0.120000 0.000000
0.160000 0.130000 0.000000
0.160000 0.140000 0.000000
0.160000 0.150000 0.000000
0.160000 0.160000 0.000000
0.160000 0.170000 0.000000
0.160000 0.180000 0.000000
0.160000 0.190000 0.000000
0.160000 0.200000 0.000000
0.160000 0.210000 0.000000
0.160000 0.220000 0.000000
0.160000 0.230000 0.000000
0.160000 0.240000 0.000000
0.160000 0.250000 0.000000
0.160000 0.260000 0.000000
0.160000 0.270000 0.000000
0.160000 0.280000 0.000000
0.160000 0.290000 0.000000
0.160000 0.300000 0.000000
0.160000 0.310000 0.000000
0.160000 0.320000 0.000000
0.160000 0.330000 0.000000
0.160000 0.340000 0.000000
0.160000 0.350000 0.000000
0.160000 0.360000 0.000000
0.160000 0.370000 0.000000
0.160000 0.380000 0.000000
0.160000 0.390000 0.000000
0.160000 0.400000 0.000000
0.432000 0.410000 0.000000
0.432000 0.420000 0.000000
0.432000 0.430000 0.000000
0.432000 0.440000 0.000000
0.210000 -0.030000 0.000000
0.210000 -0.020000 0.000000
0.210000 -0.010000 0.000000
0.210000 0.000000 0.000000
0.210000 0.010000 0.000000
0.210000 0.020000 0.000000
0.210000 0.030000 0.000000
0.210000 0.040000 0.000000
0.210000 0.050000 0.000000
0.210000 0.060000 0.000000
0.210000 0.070000 0.000000
0.210000 0.080000 0.000000
0.210000 0.090000 0.000000
0.210000 0.100000 0.000000
0.210000 0.110000 0.000000
0.210000 0.120000 0.000000
0.210000 0.130000 0.000000
0.210000 0.140000 0.000000
0.210000 0.150000 0.000000
0.210000 0.160000 0.000000
0.210000 0.170000 0.000000
0.210000 0.180000 0.000000
0.210000 0.190000 0.000000
0.210000 0.200000 0.000000
0.210000 0.210000 0.000000
0.210000 0.220000 0.000000
0.210000 0.230000 0.000000
0.210000 0.240000 0.000000
0.210000 0.250000 0.000000
0.210000 0.260000 0.000000
0.210000 0.270000 0.000000
0.210000 0.280000 0.000000
0.210000 0.290000 0.000000
0.210000 0.300000 0.000000
0.210000 0.310000 0.000000
0.210000 0.320000 0.000000
0.210000 0.330000 0.000000
0.210000 0.340000 0.000000
0.210000 0.350000 0.000000
0.210000 0.360000 0.000000
0.210000 0.370000 0.000000
0.210000 0.380000 0.000000
0.210000 0.390000 0.000000
0.210000 0.400000 0.000000
0.482000 0.410000 0.000000
0.482000 0.420000 0.000000
0.482000 0.430000 0.000000
0.482000 0.440000 0.000000
0.260000 -0.030000 0.000000
0.260000 -0.020000 0.000000
0.260000 -0.010000 0.000000
0.260000 0.000000 0.000000
0.260000 0.010000 0.000000
0.260000 0.020000 0.000000
0.260000 0.030000 0.000000
0.260000 0.040000 0.000000
0.260000 0.050000 0.000000
0.260000 0.060000 0.000000
0.260000 0.070000 0.000000
0.260000 0.080000 0.000000
0.260000 0.090000 0.000000
0.260000 0.100000 0.000000
0.260000 0.110000 0.000000
0.260000 0.120000 0.000000
0.260000 0.130000 0.000000
0.260000 0.140000 0.000000
0.260000 0.150000 0.000000
0.260000 0.160000 0.000000
0.260000 0.170000 0.000000
0.260000 0.180000 0.000000
0.260000 0.190000 0.000000
0.260000 0.200000 0.000000
0.260000 0.210000 0.000000
0.260000 0.220000 0.000000
0.260000 0.230000 0.000000
0.260000 0.240000 0.000000
0.260000 0.250000 0.000000
0.260000 0.260000 0.000000
0.260000 0.270000 0.000000
0.260000 0.280000 0.000000
0.260000 0.290000 0.000000
0.260000 0.300000 0.000000
0.260000 0.310000 0.000000
0.260000 0.320000 0.000000
0.260000 0.330000 0.000000
0.260000 0.340000 0.000000
0.260000 0.350000 0.000000
0.260000 0.360000 0.000000
0.260000 0.370000 0.000000
0.260000 0.380000 0.000000
0.260000 0.390000 0.000000
0.260000 0.400000 0.000000
0.532000 0.410000 0.000000
0.532000 0.420000 0.000000
0.532000 0.430000 0.000000
0.532000 0.440000 0.000000
0.310000 -0.030000 0.000000
0.310000 -0.020000 0.000000
0.310000 -0.010000 0.000000
0.310000 0.000000 0.000000
0.310000 0.010000 0.000000
0.310000 0.020000 0.000000
0.310000 0.030000 0.000000
0.310000 0.040000 0.000000
0.310000 0.050000 0.000000
0.310000 0.060000 0.000000
0.310000 0.070000 0.000000
0.310000 0.080000 0.000000
0.310000 0.090000 0.000000
0.310000 0.100000 0.000000
0.310000 0.110000 0.000000
0.310000 0.120000 0.000000
0.310000 0.130000 0.000000
0.310000 0.140000 0.000000
0.310000 0.150000 0.000000
0.310000 0.160000 0.000000
0.310000 0.170000 0.000000
0.310000 0.180000 0.000000
0.310000 0.190000 0.000000
0.310000 0.200000 0.000000
0.310000 0.210000 0.000000
[...]
<PointData>
<DataArray NumberOfComponents='1' type='Int32' Name='ParticleType' format='ascii'>
4
4
4
4
4
4
4
4
4
4
4
4
4
4
4
4
4
4
4
4
4
4
4
4
4
4
4
4
4
4
4
4
4
4
4
4
4
4
4
4
4
4
4
4
4
4
3
3
2
2
2
2
2
2
2
2
2
2
2
2
2
2
2
2
2
2
2
2
2
2
2
2
2
2
2
2
2
2
2
2
2
2
2
2
2
2
2
2
5
5
5
5
4
4
3
3
2
2
2
2
2
2
2
2
2
2
2
2
2
2
2
2
2
2
2
2
2
2
2
2
2
2
2
2
2
2
2
2
2
2
2
2
2
2
2
2
5
5
5
5
4
4
3
3
2
2
2
2
2
2
2
2
2
2
2
2
2
2
2
2
2
2
2
2
2
2
2
2
2
2
2
2
2
2
2
2
2
2
2
2
2
2
2
2
5
5
5
5
4
4
3
3
2
2
2
2
2
2
2
2
2
2
2
2
2
2
2
2
2
2
2
2
2
2
2
2
2
2
2
2
2
2
2
2
2
2
2
2
2
2
2
2
5
5
5
5
4
4
3
3
2
2
2
2
2
2
2
2
2
2
2
2
2
2
2
2
2
2
2
2
2
2
2
2
2
2
2
2
2
2
2
2
2
2
2
2
2
2
2
2
5
5
5
5
4
4
3
3
2
2
2
2
2
2
2
2
2
2
2
2
2
2
2
2
2
2
2
2
2
2
2
2
2
2
2
2
2
2
2
2
2
2
2
2
2
2
2
2
5
5
5
5
4
4
3
3
2
2
2
2
2
2
2
2
2
2
2
2
2
2
2
2
2
2
2
2
2
2
2
2
2
2
2
2
2
2
2
2
2
2
2
2
2
2
2
2
5
5
5
5
4
4
3
3
2
2
2
2
2
2
2
2
2
2
2
2
2
2
2
2
2
2
2
2
2
2
2
2
2
2
2
2
2
2
2
2
2
2
2
2
2
2
2
2
5
5
5
5
4
4
3
3
2
2
2
2
2
2
2
2
2
2
2
2
2
2
2
2
2
2
2
2
2
2
2
2
2
2
2
2
2
2
2
2
2
2
2
2
2
2
2
2
5
5
5
5
4
4
3
3
2
2
2
2
2
2
2
2
2
2
2
2
2
2
2
2
2
2
2
2
2
2
2
2
2
2
2
2
2
2
2
2
2
2
2
2
2
2
2
2
5
5
5
5
4
4
3
3
2
2
2
2
2
2
2
2
2
2
2
2
2
2
2
2
2
2
2
2
2
2
2
2
2
2
2
2
2
2
2
2
2
2
2
2
2
2
2
2
4
4
3
3
2
2
2
2
2
2
2
2
2
2
2
2
2
2
2
2
2
2
2
2
2
2
2
2
2
2
2
2
2
2
2
2
2
2
2
2
2
2
2
2
4
4
3
3
2
2
2
2
2
2
2
2
2
2
2
2
2
2
2
2
2
2
2
2
2
2
2
2
2
2
2
2
2
2
2
2
2
2
2
2
2
2
2
2
4
4
3
3
2
2
2
2
2
2
2
2
2
2
2
2
2
2
2
2
2
2
2
2
2
2
2
2
2
2
2
2
2
2
2
2
2
2
2
2
2
2
2
2
4
4
3
3
2
2
2
2
2
2
2
2
2
2
2
2
2
2
2
2
2
2
2
2
2
2
2
2
2
2
2
2
2
2
2
2
2
2
2
2
2
2
2
2
4
4
3
3
2
2
2
2
2
2
2
2
2
2
2
2
2
2
2
2
2
2
2
2
2
2
2
2
2
2
2
2
2
2
2
2
2
2
2
2
2
2
2
2
4
4
3
3
2
2
2
2
2
2
2
2
2
2
2
2
2
2
2
2
2
2
2
2
2
2
2
2
2
2
2
2
2
2
2
2
2
2
2
2
2
2
2
2
4
4
3
3
2
2
2
2
2
2
2
2
2
2
2
2
2
2
2
2
2
2
2
2
2
2
2
2
2
2
2
2
2
2
2
2
2
2
2
2
2
2
2
2
4
4
3
3
2
2
2
2
2
2
2
2
2
2
2
2
2
2
2
2
2
2
2
2
2
2
2
2
2
2
2
2
2
2
2
2
2
2
2
2
2
2
2
2
4
4
3
3
2
2
2
2
2
2
2
2
2
2
2
2
2
2
2
2
2
2
2
2
2
2
2
2
2
2
2
2
2
2
2
2
2
2
2
2
2
2
2
2
4
4
3
3
2
2
2
2
2
2
2
2
2
2
2
2
2
2
2
2
2
2
2
2
2
2
2
2
2
2
2
2
2
2
2
2
2
2
2
2
2
2
2
2
4
4
3
3
2
2
2
2
2
2
2
2
2
2
2
2
2
2
2
2
2
2
2
2
2
2
2
2
2
2
2
2
2
2
2
2
2
2
2
2
2
2
2
2
4
4
3
3
2
2
2
2
2
2
2
2
2
2
2
2
2
2
2
2
2
2
2
2
2
2
2
2
2
2
2
2
2
2
2
2
2
2
2
2
2
2
2
2
4
4
3
3
2
2
2
2
2
2
2
2
2
2
2
2
2
2
2
2
2
2
2
2
2
2
2
2
2
2
2
2
2
2
2
2
2
2
2
2
2
2
2
2
4
4
3
3
2
2
2
2
2
2
2
2
2
2
2
2
2
2
2
2
2
2
2
2
2
2
2
2
2
2
2
2
2
2
2
2
2
2
2
2
2
2
2
2
4
4
3
3
2
2
2
2
2
2
2
2
2
2
2
2
2
2
2
2
2
2
2
2
2
2
2
2
2
2
2
2
2
2
2
2
2
2
2
2
2
2
2
2
4
4
3
3
2
2
2
2
2
2
2
2
2
2
2
2
2
2
2
2
2
2
2
2
2
2
2
2
2
2
2
2
2
2
2
2
2
2
2
2
2
2
2
2
4
4
3
3
2
2
2
2
2
2
2
2
2
2
2
2
2
2
2
2
2
2
2
2
2
2
2
2
2
2
2
2
2
2
2
2
2
2
2
2
2
2
2
2
4
4
3
3
2
2
2
2
2
2
2
2
2
2
2
2
2
2
2
2
2
2
2
2
2
2
2
2
2
2
2
2
2
2
2
2
2
2
2
2
2
2
2
2
4
4
3
3
2
2
2
2
2
2
2
2
2
2
2
2
2
2
2
2
2
2
2
2
2
2
2
2
2
2
2
2
2
2
2
2
2
2
2
2
2
2
2
2
4
4
3
3
2
2
2
2
2
2
2
2
2
2
2
2
2
2
2
2
2
2
2
2
2
2
2
2
2
2
2
2
2
2
2
2
2
2
2
2
2
2
2
2
4
4
3
3
2
2
2
2
2
2
2
2
2
2
2
2
2
2
2
2
2
2
2
2
2
2
2
2
2
2
2
2
2
2
2
2
2
2
2
2
2
2
2
2
4
4
3
3
2
2
2
2
2
2
2
2
2
2
2
2
2
2
2
2
2
2
2
2
2
2
2
2
2
2
2
2
2
2
2
2
2
2
2
2
2
2
2
2
4
4
3
3
2
2
2
2
2
2
2
2
2
2
2
2
2
2
2
2
2
2
2
2
2
2
2
2
2
2
2
2
2
2
2
2
2
2
2
2
2
2
2
2
4
4
3
3
2
2
2
2
2
2
2
2
2
2
2
2
2
2
2
2
2
2
2
2
2
2
2
2
2
2
2
2
2
2
2
2
2
2
2
2
2
2
2
2
4
4
3
3
2
2
2
2
2
2
2
2
2
2
2
2
2
2
2
2
2
2
2
2
2
2
2
2
2
2
2
2
2
2
2
2
2
2
2
2
2
2
2
2
4
4
3
3
2
2
2
2
2
2
2
2
2
2
2
2
2
2
2
2
2
2
2
2
2
2
2
2
2
2
2
2
2
2
2
2
2
2
2
2
2
2
2
2
4
4
3
3
2
2
2
2
2
2
2
2
2
2
2
2
2
2
2
2
2
2
2
2
2
2
2
2
2
2
2
2
2
2
2
2
2
2
2
2
2
2
2
2
4
4
3
3
2
2
2
2
2
2
2
2
2
2
2
2
2
2
2
2
2
2
2
2
2
2
2
2
2
2
2
2
2
2
2
2
2
2
2
2
2
2
2
2
4
4
3
3
2
2
2
2
2
2
2
2
2
2
2
2
2
2
2
2
2
2
2
2
2
2
2
2
2
2
2
2
2
2
2
2
2
2
2
2
2
2
2
2
4
4
3
3
3
3
3
3
3
3
3
3
3
3
3
3
3
3
3
3
3
3
3
3
3
3
3
3
3
3
3
3
3
3
3
3
3
3
3
3
3
3
3
3
</DataArray>
<DataArray NumberOfComponents='1' type='Float32' Name='Temperature' format='ascii'>
0.000000
0.000000
0.000000
0.000000
0.000000
0.000000
0.000000
0.000000
0.000000
0.000000
0.000000
0.000000
0.000000
0.000000
0.000000
0.000000
0.000000
0.000000
0.000000
0.000000
0.000000
0.000000
0.000000
0.000000
0.000000
0.000000
0.000000
0.000000
0.000000
0.000000
0.000000
0.000000
0.000000
0.000000
0.000000
0.000000
0.000000
0.000000
0.000000
0.000000
0.000000
0.000000
0.000000
0.000000
0.000000
0.000000
0.000000
0.000000
-0.294499
-0.531251
-0.773572
-1.011850
-1.246150
-1.475499
-1.699087
-1.916155
-2.126020
-2.328071
-2.521780
-2.706705
-2.882486
-3.048855
-3.205625
-3.352698
-3.490053
-3.617749
-3.735916
-3.844751
-3.944510
-4.035503
-4.118083
-4.192645
-4.259611
-4.319425
-4.372548
-4.419444
-4.460582
-4.496418
-4.527397
-4.553943
-4.576454
-4.595298
-4.610804
-4.623265
-4.632927
-4.639993
-4.644586
-4.647421
-3.000000
-3.000000
-3.000000
-3.000000
0.000000
0.000000
0.000000
0.000000
-0.291863
-0.526423
-0.766377
-1.002142
-1.233727
-1.460114
-1.680445
-1.893919
-2.099807
-2.297461
-2.486315
-2.665891
-2.835804
-2.995758
-3.145554
-3.285081
-3.414319
-3.533335
-3.642277
-3.741373
-3.830918
-3.911274
-3.982861
-4.046147
-4.101640
-4.149881
-4.191437
-4.226886
-4.256813
-4.281799
-4.302412
-4.319200
-4.332682
-4.343340
-4.351611
-4.357884
-4.362489
-4.365698
-4.367707
-4.368906
-3.000000
-3.000000
-3.000000
-3.000000
0.000000
0.000000
0.000000
0.000000
-0.290934
-0.524704
-0.763774
-0.998554
-1.229019
-1.454113
-1.672942
-1.884667
-2.088518
-2.283805
-2.469920
-2.646344
-2.812648
-2.968499
-3.113658
-3.247982
-3.371427
-3.484039
-3.585957
-3.677408
-3.758703
-3.830231
-3.892452
-3.945892
-3.991133
-4.028807
-4.059582
-4.084156
-4.103244
-4.117568
-4.127842
-4.134767
-4.139012
-4.141206
-4.141928
-4.141692
-4.140945
-4.140052
-4.139301
-4.138750
-3.000000
-3.000000
-3.000000
-3.000000
0.000000
0.000000
0.000000
0.000000
-0.290748
-0.524350
-0.763218
-0.997754
-1.227912
-1.452616
-1.670951
-1.882048
-2.085107
-2.279400
-2.464277
-2.639171
-2.803599
-2.957172
-3.099588
-3.230641
-3.350220
-3.458308
-3.554984
-3.640421
-3.714887
-3.778745
-3.832444
-3.876524
-3.911604
-3.938382
-3.957624
-3.970155
-3.976848
-3.978611
-3.976372
-3.971059
-3.963587
-3.954833
-3.945620
-3.936698
-3.928720
-3.922234
-3.917696
-3.914729
-3.000000
-3.000000
-3.000000
-3.000000
0.000000
0.000000
0.000000
0.000000
-0.290741
-0.524336
-0.763195
-0.997717
-1.227853
-1.452526
-1.670815
-1.881844
-2.084803
-2.278952
-2.463623
-2.638226
-2.802248
-2.955259
-3.096907
-3.226923
-3.345117
-3.451379
-3.545678
-3.628063
-3.698661
-3.757684
-3.805431
-3.842289
-3.868747
-3.885400
-3.892954
-3.892237
-3.884204
-3.869930
-3.850611
-3.827544
-3.802106
-3.775717
-3.749797
-3.725714
-3.704729
-3.687935
-3.676295
-3.668736
-3.000000
-3.000000
-3.000000
-3.000000
0.000000
0.000000
0.000000
0.000000
-0.290741
-0.524336
-0.763195
-0.997716
-1.227853
-1.452526
-1.670815
-1.881843
-2.084803
-2.278951
-2.463622
-2.638223
-2.802243
-2.955249
-3.096889
-3.226890
-3.345058
-3.451274
-3.545493
-3.627742
-3.698113
-3.756763
-3.803906
-3.839804
-3.864762
-3.879114
-3.883211
-3.877405
-3.862038
-3.837442
-3.803947
-3.761919
-3.711840
-3.654422
-3.590786
-3.522687
-3.452754
-3.384878
-3.324742
-3.267664
-3.000000
-3.000000
-3.000000
-3.000000
0.000000
0.000000
0.000000
0.000000
-0.290741
-0.524336
-0.763195
-0.997716
-1.227853
-1.452526
-1.670815
-1.881843
-2.084803
-2.278951
-2.463622
-2.638223
-2.802243
-2.955249
-3.096889
-3.226890
-3.345058
-3.451274
-3.545493
-3.627742
-3.698113
-3.756763
-3.803906
-3.839804
-3.864762
-3.879114
-3.883211
-3.877405
-3.862038
-3.837442
-3.803947
-3.761919
-3.711840
-3.654422
-3.590786
-3.522687
-3.452752
-3.384864
-3.324696
-3.267042
-3.000000
-3.000000
-3.000000
-3.000000
0.000000
0.000000
0.000000
0.000000
-0.290741
-0.524336
-0.763195
-0.997716
-1.227853
-1.452526
-1.670815
-1.881843
-2.084803
-2.278951
-2.463622
-2.638223
-2.802243
-2.955249
-3.096889
-3.226890
-3.345058
-3.451274
-3.545493
-3.627742
-3.698113
-3.756763
-3.803906
-3.839804
-3.864762
-3.879114
-3.883211
-3.877405
-3.862038
-3.837442
-3.803947
-3.761919
-3.711840
-3.654422
-3.590786
-3.522687
-3.452752
-3.384864
-3.324696
-3.267042
-3.000000
-3.000000
-3.000000
-3.000000
0.000000
0.000000
0.000000
0.000000
-0.290741
-0.524336
-0.763195
-0.997716
-1.227853
-1.452526
-1.670815
-1.881843
-2.084803
-2.278951
-2.463622
-2.638223
-2.802243
-2.955249
-3.096889
-3.226890
-3.345058
-3.451274
-3.545493
-3.627742
-3.698113
-3.756763
-3.803906
-3.839804
-3.864762
-3.879114
-3.883211
-3.877405
-3.862038
-3.837442
-3.803947
-3.761919
-3.711840
-3.654422
-3.590786
-3.522687
-3.452752
-3.384864
-3.324696
-3.267042
-3.000000
-3.000000
-3.000000
-3.000000
0.000000
0.000000
0.000000
0.000000
-0.290741
-0.524336
-0.763195
-0.997716
-1.227853
-1.452526
-1.670815
-1.881843
-2.084803
-2.278951
-2.463622
-2.638223
-2.802243
-2.955249
-3.096889
-3.226890
-3.345058
-3.451274
-3.545493
-3.627742
-3.698113
-3.756763
-3.803906
-3.839804
-3.864762
-3.879114
-3.883211
-3.877405
-3.862038
-3.837442
-3.803947
-3.761919
-3.711840
-3.654422
-3.590786
-3.522687
-3.452752
-3.384864
-3.324696
-3.267042
-3.000000
-3.000000
-3.000000
-3.000000
0.000000
0.000000
0.000000
0.000000
-0.292844
-0.528157
-0.768818
-1.005178
-1.237208
-1.463837
-1.684152
-1.897282
-2.102419
-2.298821
-2.485817
-2.662807
-2.829266
-2.984747
-3.128878
-3.261364
-3.381982
-3.490584
-3.587094
-3.671501
-3.743864
-3.804299
-3.852982
-3.890140
-3.916038
-3.930976
-3.935270
-3.929238
-3.913195
-3.887442
-3.852286
-3.808079
-3.755298
-3.694675
-3.627384
-3.555278
-3.481146
-3.409118
-3.345235
-3.283979
0.000000
0.000000
0.000000
0.000000
-0.295759
-0.533477
-0.776704
-1.015741
-1.250603
-1.480250
-1.703794
-1.920389
-2.129243
-2.329625
-2.520867
-2.702366
-2.873585
-3.034052
-3.183364
-3.321181
-3.447230
-3.561298
-3.663235
-3.752950
-3.830408
-3.895632
-3.948695
-3.989719
-4.018866
-4.036326
-4.042313
-4.037043
-4.020731
-3.993589
-3.955845
-3.907790
-3.849878
-3.782867
-3.708039
-3.627467
-3.544311
-3.463266
-3.391211
-3.321961
0.000000
0.000000
0.000000
0.000000
-0.297403
-0.536511
-0.781275
-1.021997
-1.258744
-1.490523
-1.716494
-1.935855
-2.147857
-2.351809
-2.547077
-2.733084
-2.909311
-3.075295
-3.230627
-3.374946
-3.507940
-3.629338
-3.738913
-3.836475
-3.921870
-3.994981
-4.055723
-4.104042
-4.139907
-4.163310
-4.174250
-4.172731
-4.158750
-4.132312
-4.093453
-4.042307
-3.979225
-3.904953
-3.820892
-3.729418
-3.634222
-3.540839
-3.457395
-3.376820
0.000000
0.000000
0.000000
0.000000
-0.297862
-0.537378
-0.782630
-1.023941
-1.261418
-1.494112
-1.721232
-1.942032
-2.155829
-2.362001
-2.559991
-2.749306
-2.929512
-3.100232
-3.261137
-3.411939
-3.552385
-3.682240
-3.801285
-3.909299
-4.006059
-4.091324
-4.164831
-4.226288
-4.275363
-4.311686
-4.334833
-4.344330
-4.339658
-4.320277
-4.285686
-4.235520
-4.169730
-4.088831
-3.994243
-3.888715
-3.776757
-3.665281
-3.564508
-3.466148
0.000000
0.000000
0.000000
0.000000
-0.297884
-0.537422
-0.782705
-1.024061
-1.261604
-1.494396
-1.721660
-1.942671
-2.156772
-2.363381
-2.561991
-2.752175
-2.933588
-3.105963
-3.269112
-3.422920
-3.567338
-3.702375
-3.828085
-3.944550
-4.051854
-4.150058
-4.239159
-4.319042
-4.389425
-4.449790
-4.499321
-4.536844
-4.560795
-4.569236
-4.559948
-4.530639
-4.479294
-4.404677
-4.306990
-4.188658
-4.055085
-3.915622
-3.784828
-3.652736
0.000000
0.000000
0.000000
0.000000
-0.297884
-0.537422
-0.782705
-1.024061
-1.261604
-1.494396
-1.721660
-1.942671
-2.156774
-2.363384
-2.561997
-2.752187
-2.933610
-3.106004
-3.269188
-3.423057
-3.567583
-3.702806
-3.828835
-3.945833
-4.054019
-4.153657
-4.245050
-4.328532
-4.404460
-4.473210
-4.535167
-4.590719
-4.640253
-4.684146
-4.722762
-4.756446
-4.785521
-4.810281
-4.830991
-4.847882
-4.861143
-4.870866
-4.877063
-4.876886
0.000000
0.000000
0.000000
0.000000
-0.297884
-0.537422
-0.782705
-1.024061
-1.261604
-1.494396
-1.721660
-1.942671
-2.156774
-2.363384
-2.561997
-2.752187
-2.933610
-3.106004
-3.269188
-3.423057
-3.567583
-3.702806
-3.828835
-3.945833
-4.054019
-4.153657
-4.245050
-4.328532
-4.404460
-4.473210
-4.535167
-4.590719
-4.640253
-4.684146
-4.722762
-4.756446
-4.785521
-4.810281
-4.830991
-4.847885
-4.861158
-4.870970
-4.877400
-4.881395
0.000000
0.000000
0.000000
0.000000
-0.297884
-0.537422
-0.782705
-1.024061
-1.261604
-1.494396
-1.721660
-1.942671
-2.156774
-2.363384
-2.561997
-2.752187
-2.933610
-3.106004
-3.269188
-3.423057
-3.567583
-3.702806
-3.828835
-3.945833
-4.054019
-4.153657
-4.245050
-4.328532
-4.404460
-4.473210
-4.535167
-4.590719
-4.640253
-4.684146
-4.722762
-4.756446
-4.785521
-4.810281
-4.830991
-4.847885
-4.861158
-4.870970
-4.877400
-4.881395
0.000000
0.000000
0.000000
0.000000
-0.297884
-0.537422
-0.782705
-1.024061
-1.261604
-1.494396
-1.721660
-1.942671
-2.156774
-2.363384
-2.561997
-2.752187
-2.933610
-3.106004
-3.269188
-3.423057
-3.567583
-3.702806
-3.828835
-3.945833
-4.054019
-4.153657
-4.245050
-4.328532
-4.404460
-4.473210
-4.535167
-4.590719
-4.640253
-4.684146
-4.722762
-4.756446
-4.785521
-4.810281
-4.830991
-4.847885
-4.861158
-4.870970
-4.877400
-4.881395
0.000000
0.000000
0.000000
0.000000
-0.297884
-0.537422
-0.782705
-1.024061
-1.261604
-1.494396
-1.721660
-1.942671
-2.156774
-2.363384
-2.561997
-2.752187
-2.933610
-3.106004
-3.269188
-3.423057
-3.567583
-3.702806
-3.828835
-3.945833
-4.054019
-4.153657
-4.245050
-4.328532
-4.404460
-4.473210
-4.535167
-4.590719
-4.640253
-4.684146
-4.722762
-4.756446
-4.785521
-4.810281
-4.830991
-4.847885
-4.861158
-4.870970
-4.877400
-4.881395
0.000000
0.000000
0.000000
0.000000
-0.297884
-0.537422
-0.782705
-1.024061
-1.261604
-1.494396
-1.721660
-1.942671
-2.156774
-2.363384
-2.561997
-2.752187
-2.933610
-3.106004
-3.269188
-3.423057
-3.567583
-3.702806
-3.828835
-3.945833
-4.054019
-4.153657
-4.245050
-4.328532
-4.404460
-4.473210
-4.535167
-4.590719
-4.640253
-4.684146
-4.722762
-4.756446
-4.785521
-4.810281
-4.830991
-4.847885
-4.861158
-4.870970
-4.877400
-4.881395
0.000000
0.000000
0.000000
0.000000
-0.297884
-0.537422
-0.782705
-1.024061
-1.261604
-1.494396
-1.721660
-1.942671
-2.156774
-2.363384
-2.561997
-2.752187
-2.933610
-3.106004
-3.269188
-3.423057
-3.567583
-3.702806
-3.828835
-3.945833
-4.054019
-4.153657
-4.245050
-4.328532
-4.404460
-4.473210
-4.535167
-4.590719
-4.640253
-4.684146
-4.722762
-4.756446
-4.785521
-4.810281
-4.830991
-4.847885
-4.861158
-4.870970
-4.877400
-4.881395
0.000000
0.000000
0.000000
0.000000
-0.297884
-0.537422
-0.782705
-1.024061
-1.261604
-1.494396
-1.721660
-1.942671
-2.156774
-2.363384
-2.561997
-2.752187
-2.933610
-3.106004
-3.269188
-3.423057
-3.567583
-3.702806
-3.828835
-3.945833
-4.054019
-4.153657
-4.245050
-4.328532
-4.404460
-4.473210
-4.535167
-4.590719
-4.640253
-4.684146
-4.722762
-4.756446
-4.785521
-4.810281
-4.830991
-4.847885
-4.861158
-4.870970
-4.877400
-4.881395
0.000000
0.000000
0.000000
0.000000
-0.297884
-0.537422
-0.782705
-1.024061
-1.261604
-1.494396
-1.721660
-1.942671
-2.156774
-2.363384
-2.561997
-2.752187
-2.933610
-3.106004
-3.269188
-3.423057
-3.567583
-3.702806
-3.828835
-3.945833
-4.054019
-4.153657
-4.245050
-4.328532
-4.404460
-4.473210
-4.535167
-4.590719
-4.640253
-4.684146
-4.722762
-4.756446
-4.785521
-4.810281
-4.830991
-4.847885
-4.861158
-4.870970
-4.877400
-4.881395
0.000000
0.000000
0.000000
0.000000
-0.297884
-0.537422
-0.782705
-1.024061
-1.261604
-1.494396
-1.721660
-1.942671
-2.156774
-2.363384
-2.561997
-2.752187
-2.933610
-3.106004
-3.269188
-3.423057
-3.567583
-3.702806
-3.828835
-3.945833
-4.054019
-4.153657
-4.245050
-4.328532
-4.404460
-4.473210
-4.535167
-4.590719
-4.640253
-4.684146
-4.722762
-4.756446
-4.785521
-4.810281
-4.830991
-4.847885
-4.861158
-4.870970
-4.877400
-4.881395
0.000000
0.000000
0.000000
0.000000
-0.297884
-0.537422
-0.782705
-1.024061
-1.261604
-1.494396
-1.721660
-1.942671
-2.156774
-2.363384
-2.561997
-2.752187
-2.933610
-3.106004
-3.269188
-3.423057
-3.567583
-3.702806
-3.828835
-3.945833
-4.054019
-4.153657
-4.245050
-4.328532
-4.404460
-4.473210
-4.535167
-4.590719
-4.640253
-4.684146
-4.722762
-4.756446
-4.785521
-4.810281
-4.830991
-4.847885
-4.861158
-4.870970
-4.877400
-4.881395
0.000000
0.000000
0.000000
0.000000
-0.297884
-0.537422
-0.782705
-1.024061
-1.261604
-1.494396
-1.721660
-1.942671
-2.156774
-2.363384
-2.561997
-2.752187
-2.933610
-3.106004
-3.269188
-3.423057
-3.567583
-3.702806
-3.828835
-3.945833
-4.054019
-4.153657
-4.245050
-4.328532
-4.404460
-4.473210
-4.535167
-4.590719
-4.640253
-4.684146
-4.722762
-4.756446
-4.785521
-4.810281
-4.830991
-4.847885
-4.861158
-4.870970
-4.877400
-4.881395
0.000000
0.000000
0.000000
0.000000
-0.297884
-0.537422
-0.782705
-1.024061
-1.261604
-1.494396
-1.721660
-1.942671
-2.156774
-2.363384
-2.561997
-2.752187
-2.933610
-3.106004
-3.269188
-3.423057
-3.567583
-3.702806
-3.828835
-3.945833
-4.054019
-4.153657
-4.245050
-4.328532
-4.404460
-4.473210
-4.535167
-4.590719
-4.640253
-4.684146
-4.722762
-4.756446
-4.785521
-4.810281
-4.830991
-4.847885
-4.861158
-4.870970
-4.877400
-4.881395
0.000000
0.000000
0.000000
0.000000
-0.297884
-0.537422
-0.782705
-1.024061
-1.261604
-1.494396
-1.721660
-1.942671
-2.156774
-2.363384
-2.561997
-2.752187
-2.933610
-3.106004
-3.269188
-3.423057
-3.567583
-3.702806
-3.828835
-3.945833
-4.054019
-4.153657
-4.245050
-4.328532
-4.404460
-4.473210
-4.535167
-4.590719
-4.640253
-4.684146
-4.722762
-4.756446
-4.785521
-4.810281
-4.830991
-4.847885
-4.861158
-4.870970
-4.877400
-4.881395
0.000000
0.000000
0.000000
0.000000
-0.297884
-0.537422
-0.782705
-1.024061
-1.261604
-1.494396
-1.721660
-1.942671
-2.156774
-2.363384
-2.561997
-2.752187
-2.933610
-3.106004
-3.269188
-3.423057
-3.567583
-3.702806
-3.828835
-3.945833
-4.054019
-4.153657
-4.245050
-4.328532
-4.404460
-4.473210
-4.535167
-4.590719
-4.640253
-4.684146
-4.722762
-4.756446
-4.785521
-4.810281
-4.830991
-4.847885
-4.861158
-4.870970
-4.877400
-4.881395
0.000000
0.000000
0.000000
0.000000
-0.297884
-0.537422
-0.782705
-1.024061
-1.261604
-1.494396
-1.721660
-1.942671
-2.156774
-2.363384
-2.561997
-2.752187
-2.933610
-3.106004
-3.269188
-3.423057
-3.567583
-3.702806
-3.828835
-3.945833
-4.054019
-4.153657
-4.245050
-4.328532
-4.404460
-4.473210
-4.535167
-4.590719
-4.640253
-4.684146
-4.722762
-4.756446
-4.785521
-4.810281
-4.830991
-4.847885
-4.861158
-4.870970
-4.877400
-4.881395
0.000000
0.000000
0.000000
0.000000
-0.297884
-0.537422
-0.782705
-1.024061
-1.261604
-1.494396
-1.721660
-1.942671
-2.156774
-2.363384
-2.561997
-2.752187
-2.933610
-3.106004
-3.269188
-3.423057
-3.567583
-3.702806
-3.828835
-3.945833
-4.054019
-4.153657
-4.245050
-4.328532
-4.404460
-4.473210
-4.535167
-4.590719
-4.640253
-4.684146
-4.722762
-4.756446
-4.785521
-4.810281
-4.830991
-4.847885
-4.861158
-4.870970
-4.877400
-4.881395
0.000000
0.000000
0.000000
0.000000
-0.297884
-0.537422
-0.782705
-1.024061
-1.261604
-1.494396
-1.721660
-1.942671
-2.156774
-2.363384
-2.561997
-2.752187
-2.933610
-3.106004
-3.269188
-3.423057
-3.567583
-3.702806
-3.828835
-3.945833
-4.054019
-4.153657
-4.245050
-4.328532
-4.404460
-4.473210
-4.535167
-4.590719
-4.640253
-4.684146
-4.722762
-4.756446
-4.785521
-4.810281
-4.830991
-4.847885
-4.861158
-4.870970
-4.877400
-4.881395
0.000000
0.000000
0.000000
0.000000
-0.297884
-0.537422
-0.782705
-1.024061
-1.261604
-1.494396
-1.721660
-1.942671
-2.156774
-2.363384
-2.561997
-2.752187
-2.933610
-3.106004
-3.269188
-3.423057
-3.567583
-3.702806
-3.828835
-3.945833
-4.054019
-4.153657
-4.245050
-4.328532
-4.404460
-4.473210
-4.535167
-4.590719
-4.640253
-4.684146
-4.722762
-4.756446
-4.785521
-4.810281
-4.830991
-4.847885
-4.861158
-4.870970
-4.877400
-4.881395
0.000000
0.000000
0.000000
0.000000
-0.297884
-0.537422
-0.782705
-1.024061
-1.261604
-1.494396
-1.721660
-1.942671
-2.156774
-2.363384
-2.561997
-2.752187
-2.933610
-3.106004
-3.269188
-3.423057
-3.567583
-3.702806
-3.828835
-3.945833
-4.054019
-4.153657
-4.245050
-4.328532
-4.404460
-4.473210
-4.535167
-4.590719
-4.640253
-4.684146
-4.722762
-4.756446
-4.785521
-4.810281
-4.830991
-4.847885
-4.861158