<?xml version='1.0' encoding='UTF-8'?>
<VTKFile xmlns='VTK' byte_order='LittleEndian' version='0.1' type='UnstructuredGrid'>
<UnstructuredGrid>
<Piece NumberOfCells='1888' NumberOfPoints='1888'>
<Points>
<DataArray NumberOfComponents='3' type='Float32' Name='Position' format='ascii'>
-0.040000 -0.030000 0.000000
-0.040000 -0.020000 0.000000
-0.040000 -0.010000 0.000000
-0.040000 0.000000 0.000000
-0.040000 0.010000 0.000000
-0.040000 0.020000 0.000000
-0.040000 0.030000 0.000000
-0.040000 0.040000 0.000000
-0.040000 0.050000 0.000000
-0.040000 0.060000 0.000000
-0.040000 0.070000 0.000000
-0.040000 0.080000 0.000000
-0.040000 0.090000 0.000000
-0.040000 0.100000 0.000000
-0.040000 0.110000 0.000000
-0.040000 0.120000 0.000000
-0.040000 0.130000 0.000000
-0.040000 0.140000 0.000000
-0.040000 0.150000 0.000000
-0.040000 0.160000 0.000000
-0.040000 0.170000 0.000000
-0.040000 0.180000 0.000000
-0.040000 0.190000 0.000000
-0.040000 0.200000 0.000000
-0.040000 0.210000 0.000000
-0.040000 0.220000 0.000000
-0.040000 0.230000 0.000000
-0.040000 0.240000 0.000000
-0.040000 0.250000 0.000000
-0.040000 0.260000 0.000000
-0.040000 0.270000 0.000000
-0.040000 0.280000 0.000000
-0.040000 0.290000 0.000000
-0.040000 0.300000 0.000000
-0.040000 0.310000 0.000000
-0.040000 0.320000 0.000000
-0.040000 0.330000 0.000000
-0.040000 0.340000 0.000000
-0.040000 0.350000 0.000000
-0.040000 0.360000 0.000000
-0.040000 0.370000 0.000000
-0.040000 0.380000 0.000000
-0.040000 0.390000 0.000000
-0.040000 0.400000 0.000000
0.010000 -0.030000 0.000000
0.010000 -0.020000 0.000000
0.010000 -0.010000 0.000000
0.010000 0.000000 0.000000
0.010000 0.010000 0.000000
0.010000 0.020000 0.000000
0.010000 0.030000 0.000000
0.010000 0.040000 0.000000
0.010000 0.050000 0.000000
0.010000 0.060000 0.000000
0.010000 0.070000 0.000000
0.010000 0.080000 0.000000
0.010000 0.090000 0.000000
0.010000 0.100000 0.000000
0.010000 0.110000 0.000000
0.010000 0.120000 0.000000
0.010000 0.130000 0.000000
0.010000 0.140000 0.000000
0.010000 0.150000 0.000000
0.010000 0.160000 0.000000
0.010000 0.170000 0.000000
0.010000 0.180000 0.000000
0.010000 0.190000 0.000000
0.010000 0.200000 0.000000
0.010000 0.210000 0.000000
0.010000 0.220000 0.000000
0.010000 0.230000 0.000000
0.010000 0.240000 0.000000
0.010000 0.250000 0.000000
0.010000 0.260000 0.000000
0.010000 0.270000 0.000000
0.010000 0.280000 0.000000
0.010000 0.290000 0.000000
0.010000 0.300000 0.000000
0.010000 0.310000 0.000000
0.010000 0.320000 0.000000
0.010000 0.330000 0.000000
0.010000 0.340000 0.000000
0.010000 0.350000 0.000000
0.010000 0.360000 0.000000
0.010000 0.370000 0.000000
0.010000 0.380000 0.000000
0.010000 0.390000 0.000000
0.010000 0.400000 0.000000
0.508000 0.410000 0.000000
0.508000 0.420000 0.000000
0.508000 0.430000 0.000000
0.508000 0.440000 0.000000
0.060000 -0.030000 0.000000
0.060000 -0.020000 0.000000
0.060000 -0.010000 0.000000
0.060000 0.000000 0.000000
0.060000 0.010000 0.000000
0.060000 0.020000 0.000000
0.060000 0.030000 0.000000
0.060000 0.040000 0.000000
0.060000 0.050000 0.000000
0.060000 0.060000 0.000000
0.060000 0.070000 0.000000
0.060000 0.080000 0.000000
0.060000 0.090000 0.000000
0.060000 0.100000 0.000000
0.060000 0.110000 0.000000
0.060000 0.120000 0.000000
0.060000 0.130000 0.000000
0.060000 0.140000 0.000000
0.060000 0.150000 0.000000
0.060000 0.160000 0.000000
0.060000 0.170000 0.000000
0.060000 0.180000 0.000000
0.060000 0.190000 0.000000
0.060000 0.200000 0.000000
0.060000 0.210000 0.000000
0.060000 0.220000 0.000000
0.060000 0.230000 0.000000
0.060000 0.240000 0.000000
0.060000 0.250000 0.000000
0.060000 0.260000 0.000000
0.060000 0.270000 0.000000
0.060000 0.280000 0.000000
0.060000 0.290000 0.000000
0.060000 0.300000 0.000000
0.060000 0.310000 0.000000
0.060000 0.320000 0.000000
0.060000 0.330000 0.000000
0.060000 0.340000 0.000000
0.060000 0.350000 0.000000
0.060000 0.360000 0.000000
0.060000 0.370000 0.000000
0.060000 0.380000 0.000000
0.060000 0.390000 0.000000
0.060000 0.400000 0.000000
0.558000 0.410000 0.000000
0.558000 0.420000 0.000000
0.558000 0.430000 0.000000
0.558000 0.440000 0.000000
0.110000 -0.030000 0.000000
0.110000 -0.020000 0.000000
0.110000 -0.010000 0.000000
0.110000 0.000000 0.000000
0.110000 0.010000 0.000000
0.110000 0.020000 0.000000
0.110000 0.030000 0.000000
0.110000 0.040000 0.000000
0.110000 0.050000 0.000000
0.110000 0.060000 0.000000
0.110000 0.070000 0.000000
0.110000 0.080000 0.000000
0.110000 0.090000 0.000000
0.110000 0.100000 0.000000
0.110000 0.110000 0.000000
0.110000 0.120000 0.000000
0.110000 0.130000 0.000000
0.110000 0.140000 0.000000
0.110000 0.150000 0.000000
0.110000 0.160000 0.000000
0.110000 0.170000 0.000000
0.110000 0.180000 0.000000
0.110000 0.190000 0.000000
0.110000 0.200000 0.000000
0.110000 0.210000 0.000000
0.110000 0.220000 0.000000
0.110000 0.230000 0.000000
0.110000 0.240000 0.000000
0.110000 0.250000 0.000000
0.110000 0.260000 0.000000
0.110000 0.270000 0.000000
0.110000 0.280000 0.000000
0.110000 0.290000 0.000000
0.110000 0.300000 0.000000
0.110000 0.310000 0.000000
0.110000 0.320000 0.000000
0.110000 0.330000 0.000000
0.110000 0.340000 0.000000
0.110000 0.350000 0.000000
0.110000 0.360000 0.000000
0.110000 0.370000 0.000000
0.110000 0.380000 0.000000
0.110000 0.390000 0.000000
0.110000 0.400000 0.000000
0.608000 0.410000 0.000000
0.608000 0.420000 0.000000
0.608000 0.430000 0.000000
0.608000 0.440000 0.000000
0.160000 -0.030000 0.000000
0.160000 -0.020000 0.000000
0.160000 -0.010000 0.000000
0.160000 0.000000 0.000000
0.160000 0.010000 0.000000
0.160000 0.020000 0.000000
0.160000 0.030000 0.000000
0.160000 0.040000 0.000000
0.160000 0.050000 0.000000
0.160000 0.060000 0.000000
0.160000 0.070000 0.000000
0.160000 0.080000 0.000000
0.160000 0.090000 0.000000
0.160000 0.100000 0.000000
0.160000 0.110000 0.000000
0.160000 0.120000 0.000000
0.160000 0.130000 0.000000
0.160000 0.140000 0.000000
0.160000 0.150000 0.000000
0.160000 0.160000 0.000000
0.160000 0.170000 0.000000
0.160000 0.180000 0.000000
0.160000 0.190000 0.000000
0.160000 0.200000 0.000000
0.160000 0.210000 0.000000
0.160000 0.220000 0.000000
0.160000 0.230000 0.000000
0.160000 0.240000 0.000000
0.160000 0.250000 0.000000
0.160000 0.260000 0.000000
0.160000 0.270000 0.000000
0.160000 0.280000 0.000000
0.160000 0.290000 0.000000
0.160000 0.300000 0.000000
0.160000 0.310000 0.000000
0.160000 0.320000 0.000000
0.160000 0.330000 0.000000
0.160000 0.340000 0.000000
0.160000 0.350000 0.000000
0.160000 0.360000 0.000000
0.160000 0.370000 0.000000
0.160000 0.380000 0.000000
0.160000 0.390000 0.000000
0.160000 0.400000 0.000000
0.658000 0.410000 0.000000
0.658000 0.420000 0.000000
0.658000 0.430000 0.000000
0.658000 0.440000 0.000000
0.210000 -0.030000 0.000000
0.210000 -0.020000 0.000000
0.210000 -0.010000 0.000000
0.210000 0.000000 0.000000
0.210000 0.010000 0.000000
0.210000 0.020000 0.000000
0.210000 0.030000 0.000000
0.210000 0.040000 0.000000
0.210000 0.050000 0.000000
0.210000 0.060000 0.000000
0.210000 0.070000 0.000000
0.210000 0.080000 0.000000
0.210000 0.090000 0.000000
0.210000 0.100000 0.000000
0.210000 0.110000 0.000000
0.210000 0.120000 0.000000
0.210000 0.130000 0.000000
0.210000 0.140000 0.000000
0.210000 0.150000 0.000000
0.210000 0.160000 0.000000
0.210000 0.170000 0.000000
0.210000 0.180000 0.000000
0.210000 0.190000 0.000000
0.210000 0.200000 0.000000
0.210000 0.210000 0.000000
0.210000 0.220000 0.000000
0.210000 0.230000 0.000000
0.210000 0.240000 0.000000
0.210000 0.250000 0.000000
0.210000 0.260000 0.000000
0.210000 0.270000 0.000000
0.210000 0.280000 0.000000
0.210000 0.290000 0.000000
0.210000 0.300000 0.000000
0.210000 0.310000 0.000000
0.210000 0.320000 0.000000
0.210000 0.330000 0.000000
0.210000 0.340000 0.000000
0.210000 0.350000 0.000000
0.210000 0.360000 0.000000
0.210000 0.370000 0.000000
0.210000 0.380000 0.000000
0.210000 0.390000 0.000000
0.210000 0.400000 0.000000
0.708000 0.410000 0.000000
0.708000 0.420000 0.000000
0.708000 0.430000 0.000000
0.708000 0.440000 0.000000
0.260000 -0.030000 0.000000
0.260000 -0.020000 0.000000
0.260000 -0.010000 0.000000
0.260000 0.000000 0.000000
0.260000 0.010000 0.000000
0.260000 0.020000 0.000000
0.260000 0.030000 0.000000
0.260000 0.040000 0.000000
0.260000 0.050000 0.000000
0.260000 0.060000 0.000000
0.260000 0.070000 0.000000
0.260000 0.080000 0.000000
0.260000 0.090000 0.000000
0.260000 0.100000 0.000000
0.260000 0.110000 0.000000
0.260000 0.120000 0.000000
0.260000 0.130000 0.000000
0.260000 0.140000 0.000000
0.260000 0.150000 0.000000
0.260000 0.160000 0.000000
0.260000 0.170000 0.000000
0.260000 0.180000 0.000000
0.260000 0.190000 0.000000
0.260000 0.200000 0.000000
0.260000 0.210000 0.000000
0.260000 0.220000 0.000000
0.260000 0.230000 0.000000
0.260000 0.240000 0.000000
0.260000 0.250000 0.000000
0.260000 0.260000 0.000000
0.260000 0.270000 0.000000
0.260000 0.280000 0.000000
0.260000 0.290000 0.000000
0.260000 0.300000 0.000000
0.260000 0.310000 0.000000
0.260000 0.320000 0.000000
0.260000 0.330000 0.000000
0.260000 0.340000 0.000000
0.260000 0.350000 0.000000
0.260000 0.360000 0.000000
0.260000 0.370000 0.000000
0.260000 0.380000 0.000000
0.260000 0.390000 0.000000
0.260000 0.400000 0.000000
0.758000 0.410000 0.000000
0.758000 0.420000 0.000000
0.758000 0.430000 0.000000
0.758000 0.440000 0.000000
0.310000 -0.030000 0.000000
0.310000 -0.020000 0.000000
0.310000 -0.010000 0.000000
0.310000 0.000000 0.000000
0.310000 0.010000 0.000000
0.310000 0.020000 0.000000
0.310000 0.030000 0.000000
0.310000 0.040000 0.000000
0.310000 0.050000 0.000000
0.310000 0.060000 0.000000
0.310000 0.070000 0.000000
0.310000 0.080000 0.000000
0.310000 0.090000 0.000000
0.310000 0.100000 0.000000
0.310000 0.110000 0.000000
0.310000 0.120000 0.000000
0.310000 0.130000 0.000000
0.310000 0.140000 0.000000
0.310000 0.150000 0.000000
0.310000 0.160000 0.000000
0.310000 0.170000 0.000000
0.310000 0.180000 0.000000
0.310000 0.190000 0.000000
0.310000 0.200000 0.000000
0.310000 0.210000 0.000000
[...]
<PointData>
<DataArray NumberOfComponents='1' type='Int32' Name='ParticleType' format='ascii'>
4
4
4
4
4
4
4
4
4
4
4
4
4
4
4
4
4
4
4
4
4
4
4
4
4
4
4
4
4
4
4
4
4
4
4
4
4
4
4
4
4
4
4
4
4
4
3
3
2
2
2
2
2
2
2
2
2
2
2
2
2
2
2
2
2
2
2
2
2
2
2
2
2
2
2
2
2
2
2
2
2
2
2
2
2
2
2
2
5
5
5
5
4
4
3
3
2
2
2
2
2
2
2
2
2
2
2
2
2
2
2
2
2
2
2
2
2
2
2
2
2
2
2
2
2
2
2
2
2
2
2
2
2
2
2
2
5
5
5
5
4
4
3
3
2
2
2
2
2
2
2
2
2
2
2
2
2
2
2
2
2
2
2
2
2
2
2
2
2
2
2
2
2
2
2
2
2
2
2
2
2
2
2
2
5
5
5
5
4
4
3
3
2
2
2
2
2
2
2
2
2
2
2
2
2
2
2
2
2
2
2
2
2
2
2
2
2
2
2
2
2
2
2
2
2
2
2
2
2
2
2
2
5
5
5
5
4
4
3
3
2
2
2
2
2
2
2
2
2
2
2
2
2
2
2
2
2
2
2
2
2
2
2
2
2
2
2
2
2
2
2
2
2
2
2
2
2
2
2
2
5
5
5
5
4
4
3
3
2
2
2
2
2
2
2
2
2
2
2
2
2
2
2
2
2
2
2
2
2
2
2
2
2
2
2
2
2
2
2
2
2
2
2
2
2
2
2
2
5
5
5
5
4
4
3
3
2
2
2
2
2
2
2
2
2
2
2
2
2
2
2
2
2
2
2
2
2
2
2
2
2
2
2
2
2
2
2
2
2
2
2
2
2
2
2
2
5
5
5
5
4
4
3
3
2
2
2
2
2
2
2
2
2
2
2
2
2
2
2
2
2
2
2
2
2
2
2
2
2
2
2
2
2
2
2
2
2
2
2
2
2
2
2
2
5
5
5
5
4
4
3
3
2
2
2
2
2
2
2
2
2
2
2
2
2
2
2
2
2
2
2
2
2
2
2
2
2
2
2
2
2
2
2
2
2
2
2
2
2
2
2
2
5
5
5
5
4
4
3
3
2
2
2
2
2
2
2
2
2
2
2
2
2
2
2
2
2
2
2
2
2
2
2
2
2
2
2
2
2
2
2
2
2
2
2
2
2
2
2
2
5
5
5
5
4
4
3
3
2
2
2
2
2
2
2
2
2
2
2
2
2
2
2
2
2
2
2
2
2
2
2
2
2
2
2
2
2
2
2
2
2
2
2
2
2
2
2
2
4
4
3
3
2
2
2
2
2
2
2
2
2
2
2
2
2
2
2
2
2
2
2
2
2
2
2
2
2
2
2
2
2
2
2
2
2
2
2
2
2
2
2
2
4
4
3
3
2
2
2
2
2
2
2
2
2
2
2
2
2
2
2
2
2
2
2
2
2
2
2
2
2
2
2
2
2
2
2
2
2
2
2
2
2
2
2
2
4
4
3
3
2
2
2
2
2
2
2
2
2
2
2
2
2
2
2
2
2
2
2
2
2
2
2
2
2
2
2
2
2
2
2
2
2
2
2
2
2
2
2
2
4
4
3
3
2
2
2
2
2
2
2
2
2
2
2
2
2
2
2
2
2
2
2
2
2
2
2
2
2
2
2
2
2
2
2
2
2
2
2
2
2
2
2
2
4
4
3
3
2
2
2
2
2
2
2
2
2
2
2
2
2
2
2
2
2
2
2
2
2
2
2
2
2
2
2
2
2
2
2
2
2
2
2
2
2
2
2
2
4
4
3
3
2
2
2
2
2
2
2
2
2
2
2
2
2
2
2
2
2
2
2
2
2
2
2
2
2
2
2
2
2
2
2
2
2
2
2
2
2
2
2
2
4
4
3
3
2
2
2
2
2
2
2
2
2
2
2
2
2
2
2
2
2
2
2
2
2
2
2
2
2
2
2
2
2
2
2
2
2
2
2
2
2
2
2
2
4
4
3
3
2
2
2
2
2
2
2
2
2
2
2
2
2
2
2
2
2
2
2
2
2
2
2
2
2
2
2
2
2
2
2
2
2
2
2
2
2
2
2
2
4
4
3
3
2
2
2
2
2
2
2
2
2
2
2
2
2
2
2
2
2
2
2
2
2
2
2
2
2
2
2
2
2
2
2
2
2
2
2
2
2
2
2
2
4
4
3
3
2
2
2
2
2
2
2
2
2
2
2
2
2
2
2
2
2
2
2
2
2
2
2
2
2
2
2
2
2
2
2
2
2
2
2
2
2
2
2
2
4
4
3
3
2
2
2
2
2
2
2
2
2
2
2
2
2
2
2
2
2
2
2
2
2
2
2
2
2
2
2
2
2
2
2
2
2
2
2
2
2
2
2
2
4
4
3
3
2
2
2
2
2
2
2
2
2
2
2
2
2
2
2
2
2
2
2
2
2
2
2
2
2
2
2
2
2
2
2
2
2
2
2
2
2
2
2
2
4
4
3
3
2
2
2
2
2
2
2
2
2
2
2
2
2
2
2
2
2
2
2
2
2
2
2
2
2
2
2
2
2
2
2
2
2
2
2
2
2
2
2
2
4
4
3
3
2
2
2
2
2
2
2
2
2
2
2
2
2
2
2
2
2
2
2
2
2
2
2
2
2
2
2
2
2
2
2
2
2
2
2
2
2
2
2
2
4
4
3
3
2
2
2
2
2
2
2
2
2
2
2
2
2
2
2
2
2
2
2
2
2
2
2
2
2
2
2
2
2
2
2
2
2
2
2
2
2
2
2
2
4
4
3
3
2
2
2
2
2
2
2
2
2
2
2
2
2
2
2
2
2
2
2
2
2
2
2
2
2
2
2
2
2
2
2
2
2
2
2
2
2
2
2
2
4
4
3
3
2
2
2
2
2
2
2
2
2
2
2
2
2
2
2
2
2
2
2
2
2
2
2
2
2
2
2
2
2
2
2
2
2
2
2
2
2
2
2
2
4
4
3
3
2
2
2
2
2
2
2
2
2
2
2
2
2
2
2
2
2
2
2
2
2
2
2
2
2
2
2
2
2
2
2
2
2
2
2
2
2
2
2
2
4
4
3
3
2
2
2
2
2
2
2
2
2
2
2
2
2
2
2
2
2
2
2
2
2
2
2
2
2
2
2
2
2
2
2
2
2
2
2
2
2
2
2
2
4
4
3
3
2
2
2
2
2
2
2
2
2
2
2
2
2
2
2
2
2
2
2
2
2
2
2
2
2
2
2
2
2
2
2
2
2
2
2
2
2
2
2
2
4
4
3
3
2
2
2
2
2
2
2
2
2
2
2
2
2
2
2
2
2
2
2
2
2
2
2
2
2
2
2
2
2
2
2
2
2
2
2
2
2
2
2
2
4
4
3
3
2
2
2
2
2
2
2
2
2
2
2
2
2
2
2
2
2
2
2
2
2
2
2
2
2
2
2
2
2
2
2
2
2
2
2
2
2
2
2
2
4
4
3
3
2
2
2
2
2
2
2
2
2
2
2
2
2
2
2
2
2
2
2
2
2
2
2
2
2
2
2
2
2
2
2
2
2
2
2
2
2
2
2
2
4
4
3
3
2
2
2
2
2
2
2
2
2
2
2
2
2
2
2
2
2
2
2
2
2
2
2
2
2
2
2
2
2
2
2
2
2
2
2
2
2
2
2
2
4
4
3
3
2
2
2
2
2
2
2
2
2
2
2
2
2
2
2
2
2
2
2
2
2
2
2
2
2
2
2
2
2
2
2
2
2
2
2
2
2
2
2
2
4
4
3
3
2
2
2
2
2
2
2
2
2
2
2
2
2
2
2
2
2
2
2
2
2
2
2
2
2
2
2
2
2
2
2
2
2
2
2
2
2
2
2
2
4
4
3
3
2
2
2
2
2
2
2
2
2
2
2
2
2
2
2
2
2
2
2
2
2
2
2
2
2
2
2
2
2
2
2
2
2
2
2
2
2
2
2
2
4
4
3
3
2
2
2
2
2
2
2
2
2
2
2
2
2
2
2
2
2
2
2
2
2
2
2
2
2
2
2
2
2
2
2
2
2
2
2
2
2
2
2
2
4
4
3
3
2
2
2
2
2
2
2
2
2
2
2
2
2
2
2
2
2
2
2
2
2
2
2
2
2
2
2
2
2
2
2
2
2
2
2
2
2
2
2
2
4
4
3
3
3
3
3
3
3
3
3
3
3
3
3
3
3
3
3
3
3
3
3
3
3
3
3
3
3
3
3
3
3
3
3
3
3
3
3
3
3
3
3
3
</DataArray>
<DataArray NumberOfComponents='1' type='Float32' Name='Temperature' format='ascii'>
0.000000
0.000000
0.000000
0.000000
0.000000
0.000000
0.000000
0.000000
0.000000
0.000000
0.000000
0.000000
0.000000
0.000000
0.000000
0.000000
0.000000
0.000000
0.000000
0.000000
0.000000
0.000000
0.000000
0.000000
0.000000
0.000000
0.000000
0.000000
0.000000
0.000000
0.000000
0.000000
0.000000
0.000000
0.000000
0.000000
0.000000
0.000000
0.000000
0.000000
0.000000
0.000000
0.000000
0.000000
0.000000
0.000000
0.000000
0.000000
-0.213626
-0.385775
-0.562662
-0.737622
-0.910985
-1.082303
-1.251221
-1.417389
-1.580475
-1.740163
-1.896157
-2.048183
-2.195986
-2.339333
-2.478016
-2.611845
-2.740658
-2.864313
-2.982688
-3.095687
-3.203229
-3.305256
-3.401728
-3.492618
-3.577917
-3.657629
-3.731769
-3.800362
-3.863439
-3.921040
-3.973208
-4.019988
-4.061426
-4.097567
-4.128454
-4.154128
-4.174623
-4.189967
-4.200116
-4.206470
-3.000000
-3.000000
-3.000000
-3.000000
0.000000
0.000000
0.000000
0.000000
-0.207149
-0.374048
-0.545492
-0.714994
-0.882854
-1.048617
-1.211921
-1.372411
-1.529751
-1.683623
-1.833732
-1.979805
-2.121591
-2.258864
-2.391424
-2.519095
-2.641725
-2.759189
-2.871384
-2.978231
-3.079674
-3.175675
-3.266219
-3.351307
-3.430955
-3.505194
-3.574067
-3.637627
-3.695933
-3.749051
-3.797050
-3.839999
-3.877969
-3.911026
-3.939231
-3.962643
-3.981311
-3.995273
-4.004503
-4.010277
-3.000000
-3.000000
-3.000000
-3.000000
0.000000
0.000000
0.000000
0.000000
-0.202743
-0.366065
-0.533787
-0.699539
-0.863595
-1.025492
-1.184857
-1.341328
-1.494561
-1.644237
-1.790055
-1.931743
-2.069051
-2.201759
-2.329670
-2.452619
-2.570464
-2.683092
-2.790417
-2.892376
-2.988932
-3.080071
-3.165797
-3.246137
-3.321132
-3.390838
-3.455326
-3.514673
-3.568968
-3.618300
-3.662765
-3.702457
-3.737468
-3.767886
-3.793792
-3.815260
-3.832355
-3.845128
-3.853564
-3.858839
-3.000000
-3.000000
-3.000000
-3.000000
0.000000
0.000000
0.000000
0.000000
-0.199515
-0.360206
-0.525178
-0.688140
-0.849339
-1.008302
-1.164642
-1.317987
-1.467985
-1.614307
-1.756650
-1.894735
-2.028316
-2.157170
-2.281108
-2.399969
-2.513623
-2.621967
-2.724930
-2.822466
-2.914558
-3.001212
-3.082458
-3.158346
-3.228945
-3.294340
-3.354628
-3.409919
-3.460327
-3.505975
-3.546984
-3.583477
-3.615572
-3.643380
-3.667007
-3.686544
-3.702073
-3.713659
-3.721303
-3.726079
-3.000000
-3.000000
-3.000000
-3.000000
0.000000
0.000000
0.000000
0.000000
-0.197254
-0.356094
-0.519115
-0.680075
-0.839195
-0.995988
-1.150051
-1.300998
-1.448466
-1.592115
-1.731633
-1.866737
-1.997174
-2.122723
-2.243194
-2.358431
-2.468312
-2.572744
-2.671668
-2.765058
-2.852913
-2.935263
-3.012161
-3.083687
-3.149938
-3.211030
-3.267095
-3.318273
-3.364717
-3.406581
-3.444021
-3.477194
-3.506247
-3.531325
-3.552556
-3.570058
-3.583933
-3.594263
-3.601068
-3.605314
-3.000000
-3.000000
-3.000000
-3.000000
0.000000
0.000000
0.000000
0.000000
-0.195863
-0.353555
-0.515349
-0.675025
-0.832782
-0.988114
-1.140603
-1.289845
-1.435463
-1.577103
-1.714441
-1.847184
-1.975069
-2.097872
-2.215398
-2.327493
-2.434035
-2.534941
-2.630160
-2.719680
-2.803519
-2.881727
-2.954384
-3.021597
-3.083495
-3.140230
-3.191971
-3.238899
-3.281206
-3.319088
-3.352744
-3.382371
-3.408158
-3.430284
-3.448915
-3.464199
-3.476266
-3.485219
-3.491102
-3.494766
-3.000000
-3.000000
-3.000000
-3.000000
0.000000
0.000000
0.000000
0.000000
-0.195193
-0.352323
-0.513501
-0.672510
-0.829531
-0.984041
-1.135604
-1.283802
-1.428237
-1.568541
-1.704374
-1.835426
-1.961422
-2.082124
-2.197328
-2.306871
-2.410626
-2.508509
-2.600472
-2.686510
-2.766651
-2.840965
-2.909551
-2.972545
-3.030109
-3.082432
-3.129725
-3.172214
-3.210142
-3.243757
-3.273311
-3.299054
-3.321230
-3.340067
-3.355780
-3.368560
-3.378574
-3.385959
-3.390790
-3.393787
-3.000000
-3.000000
-3.000000
-3.000000
0.000000
0.000000
0.000000
0.000000
-0.194993
-0.351949
-0.512927
-0.671706
-0.828455
-0.982638
-1.133807
-1.281529
-1.425392
-1.565009
-1.700022
-1.830103
-1.954957
-2.074324
-2.187980
-2.295743
-2.397469
-2.493057
-2.582447
-2.665625
-2.742618
-2.813497
-2.878373
-2.937398
-2.990760
-3.038685
-3.081425
-3.119259
-3.152489
-3.181428
-3.206400
-3.227730
-3.245735
-3.260723
-3.272979
-3.282763
-3.290302
-3.295782
-3.299329
-3.301509
-3.000000
-3.000000
-3.000000
-3.000000
0.000000
0.000000
0.000000
0.000000
-0.194973
-0.351910
-0.512864
-0.671611
-0.828317
-0.982442
-1.133534
-1.281152
-1.424874
-1.564306
-1.699075
-1.828838
-1.953283
-2.072127
-2.185123
-2.292061
-2.392767
-2.487106
-2.574986
-2.656357
-2.731214
-2.799599
-2.861599
-2.917350
-2.967037
-3.010891
-3.049189
-3.082250
-3.110434
-3.134132
-3.153762
-3.169758
-3.182560
-3.192604
-3.200310
-3.206065
-3.210216
-3.213056
-3.214803
-3.215831
-3.000000
-3.000000
-3.000000
-3.000000
0.000000
0.000000
0.000000
0.000000
-0.194973
-0.351910
-0.512864
-0.671610
-0.828316
-0.982440
-1.133531
-1.281145
-1.424864
-1.564289
-1.699047
-1.828794
-1.953212
-2.072017
-2.184953
-2.291800
-2.392371
-2.486513
-2.574110
-2.655080
-2.729375
-2.796986
-2.857936
-2.912288
-2.960142
-3.001636
-3.036957
-3.066339
-3.090073
-3.108515
-3.122094
-3.131318
-3.136777
-3.139139
-3.139132
-3.137524
-3.135078
-3.132504
-3.130424
-3.128923
-3.000000
-3.000000
-3.000000
-3.000000
0.000000
0.000000
0.000000
0.000000
-0.197079
-0.355710
-0.518399
-0.678854
-0.837241
-0.993013
-1.145710
-1.294884
-1.440108
-1.580976
-1.717109
-1.848154
-1.973787
-2.093715
-2.207678
-2.315446
-2.416827
-2.511661
-2.599825
-2.681231
-2.755827
-2.823597
-2.884562
-2.938779
-2.986343
-3.027389
-3.062093
-3.090675
-3.113399
-3.130574
-3.142541
-3.149661
-3.152280
-3.150682
-3.145026
-3.135269
-3.121095
-3.101971
-3.076801
-3.046771
0.000000
0.000000
0.000000
0.000000
-0.201002
-0.362792
-0.528721
-0.692373
-0.853917
-1.012794
-1.168531
-1.320670
-1.468771
-1.612415
-1.751210
-1.884788
-2.012813
-2.134975
-2.250998
-2.360641
-2.463692
-2.559980
-2.649366
-2.731748
-2.807061
-2.875278
-2.936409
-2.990501
-3.037644
-3.077968
-3.111650
-3.138914
-3.160032
-3.175326
-3.185155
-3.189896
-3.189909
-3.185479
-3.176741
-3.163594
-3.145608
-3.122096
-3.091693
-3.055741
0.000000
0.000000
0.000000
0.000000
-0.205151
-0.370287
-0.539659
-0.706722
-0.871650
-1.033876
-1.192919
-1.348309
-1.499594
-1.646345
-1.788152
-1.924634
-2.055437
-2.180233
-2.298728
-2.410660
-2.515798
-2.613949
-2.704953
-2.788688
-2.865071
-2.934052
-2.995626
-3.049825
-3.096725
-3.136447
-3.169162
-3.195096
-3.214528
-3.227792
-3.235263
-3.237339
-3.234393
-3.226712
-3.214402
-3.197289
-3.174812
-3.146100
-3.109472
-3.066455
0.000000
0.000000
0.000000
0.000000
-0.209356
-0.377892
-0.550778
-0.721344
-0.889779
-1.055510
-1.218052
-1.376929
-1.531680
-1.681862
-1.827054
-1.966857
-2.100897
-2.228825
-2.350323
-2.465101
-2.572903
-2.673503
-2.766714
-2.852382
-2.930391
-3.000664
-3.063164
-3.117897
-3.164916
-3.204323
-3.236276
-3.260993
-3.278754
-3.289904
-3.294835
-3.293963
-3.287677
-3.276261
-3.259789
-3.237999
-3.210171
-3.175212
-3.131059
-3.079474
0.000000
0.000000
0.000000
0.000000
-0.213309
-0.385056
-0.561285
-0.735222
-0.907076
-1.076281
-1.242356
-1.404825
-1.563222
-1.717099
-1.866022
-2.009576
-2.147366
-2.279018
-2.404183
-2.522538
-2.633788
-2.737669
-2.833945
-2.922419
-3.002927
-3.075342
-3.139582
-3.195606
-3.243425
-3.283104
-3.314773
-3.338627
-3.354940
-3.364055
-3.366377
-3.362340
-3.352345
-3.336673
-3.315351
-3.288011
-3.253734
-3.211161
-3.157761
-3.095594
0.000000
0.000000
0.000000
0.000000
-0.216577
-0.391002
-0.570056
-0.746895
-0.921763
-1.094114
-1.263483
-1.429405
-1.591425
-1.749095
-1.901977
-2.049645
-2.191686
-2.327700
-2.457307
-2.580143
-2.695865
-2.804153
-2.904713
-2.997279
-3.081615
-3.157522
-3.224839
-3.283449
-3.333290
-3.374359
-3.406724
-3.430536
-3.446032
-3.453539
-3.453459
-3.446231
-3.432264
-3.411821
-3.384868
-3.350898
-3.308742
-3.256704
-3.191668
-3.116096
0.000000
0.000000
0.000000
0.000000
-0.218721
-0.394933
-0.575918
-0.754812
-0.931906
-1.106685
-1.278721
-1.447580
-1.612830
-1.774045
-1.930802
-2.082680
-2.229265
-2.370147
-2.504920
-2.633186
-2.754556
-2.868649
-2.975097
-3.073547
-3.163664
-3.245138
-3.317688
-3.381074
-3.435103
-3.479649
-3.514660
-3.540180
-3.556360
-3.563461
-3.561840
-3.551911
-3.534056
-3.508493
-3.475087
-3.433133
-3.381129
-3.316933
-3.236670
-3.143370
0.000000
0.000000
0.000000
0.000000
-0.219603
-0.396575
-0.578427
-0.758307
-0.936551
-1.112687
-1.286332
-1.457100
-1.624607
-1.788476
-1.948332
-2.103801
-2.254509
-2.400080
-2.540132
-2.674277
-2.802118
-2.923249
-3.037249
-3.143690
-3.242131
-3.332128
-3.413235
-3.485023
-3.547085
-3.599065
-3.640677
-3.671730
-3.692157
-3.702023
-3.701518
-3.690915
-3.670465
-3.640236
-3.599878
-3.548350
-3.483631
-3.402934
-3.301315
-3.182700
0.000000
0.000000
0.000000
0.000000
-0.219726
-0.396813
-0.578811
-0.758880
-0.937375
-1.113850
-1.287950
-1.459324
-1.627636
-1.792563
-1.953795
-2.111036
-2.264003
-2.412418
-2.556012
-2.694513
-2.827642
-2.955106
-3.076586
-3.191725
-3.300121
-3.401316
-3.494791
-3.579963
-3.656194
-3.722808
-3.779117
-3.824459
-3.858237
-3.879954
-3.889224
-3.885737
-3.869155
-3.838918
-3.793957
-3.732348
-3.650957
-3.545765
-3.410017
-3.249363
0.000000
0.000000
0.000000
0.000000
-0.219727
-0.396815
-0.578814
-0.758887
-0.937387
-1.113870
-1.287983
-1.459378
-1.627725
-1.792707
-1.954027
-2.111406
-2.264585
-2.413325
-2.557408
-2.696638
-2.830839
-2.959855
-3.083553
-3.201817
-3.314551
-3.421672
-3.523114
-3.618813
-3.708708
-3.792714
-3.870704
-3.942458
-4.007588
-4.065422
-4.114834
-4.153991
-4.180040
-4.188713
-4.173942
-4.127581
-4.039361
-3.898283
-3.690476
-3.426387
0.000000
0.000000
0.000000
0.000000
-0.219727
-0.396815
-0.578814
-0.758887
-0.937387
-1.113870
-1.287983
-1.459378
-1.627725
-1.792707
-1.954027
-2.111406
-2.264585
-2.413325
-2.557409
-2.696638
-2.830839
-2.959856
-3.083556
-3.201823
-3.314563
-3.421698
-3.523170
-3.618934
-3.708959
-3.793230
-3.871740
-3.944494
-4.011505
-4.072791
-4.128376
-4.178287
-4.222555
-4.261208
-4.294276
-4.321786
-4.343764
-4.360227
-4.371121
-4.377944
0.000000
0.000000
0.000000
0.000000
-0.219727
-0.396815
-0.578814
-0.758887
-0.937387
-1.113870
-1.287983
-1.459378
-1.627725
-1.792707
-1.954027
-2.111406
-2.264585
-2.413325
-2.557409
-2.696638
-2.830839
-2.959856
-3.083556
-3.201823
-3.314563
-3.421698
-3.523170
-3.618934
-3.708959
-3.793230
-3.871740
-3.944494
-4.011505
-4.072791
-4.128376
-4.178287
-4.222555
-4.261208
-4.294276
-4.321786
-4.343764
-4.360227
-4.371121
-4.377944
0.000000
0.000000
0.000000
0.000000
-0.219727
-0.396815
-0.578814
-0.758887
-0.937387
-1.113870
-1.287983
-1.459378
-1.627725
-1.792707
-1.954027
-2.111406
-2.264585
-2.413325
-2.557409
-2.696638
-2.830839
-2.959856
-3.083556
-3.201823
-3.314563
-3.421698
-3.523170
-3.618934
-3.708959
-3.793230
-3.871740
-3.944494
-4.011505
-4.072791
-4.128376
-4.178287
-4.222555
-4.261208
-4.294276
-4.321786
-4.343764
-4.360227
-4.371121
-4.377944
0.000000
0.000000
0.000000
0.000000
-0.219727
-0.396815
-0.578814
-0.758887
-0.937387
-1.113870
-1.287983
-1.459378
-1.627725
-1.792707
-1.954027
-2.111406
-2.264585
-2.413325
-2.557409
-2.696638
-2.830839
-2.959856
-3.083556
-3.201823
-3.314563
-3.421698
-3.523170
-3.618934
-3.708959
-3.793230
-3.871740
-3.944494
-4.011505
-4.072791
-4.128376
-4.178287
-4.222555
-4.261208
-4.294276
-4.321786
-4.343764
-4.360227
-4.371121
-4.377944
0.000000
0.000000
0.000000
0.000000
-0.219727
-0.396815
-0.578814
-0.758887
-0.937387
-1.113870
-1.287983
-1.459378
-1.627725
-1.792707
-1.954027
-2.111406
-2.264585
-2.413325
-2.557409
-2.696638
-2.830839
-2.959856
-3.083556
-3.201823
-3.314563
-3.421698
-3.523170
-3.618934
-3.708959
-3.793230
-3.871740
-3.944494
-4.011505
-4.072791
-4.128376
-4.178287
-4.222555
-4.261208
-4.294276
-4.321786
-4.343764
-4.360227
-4.371121
-4.377944
0.000000
0.000000
0.000000
0.000000
-0.219727
-0.396815
-0.578814
-0.758887
-0.937387
-1.113870
-1.287983
-1.459378
-1.627725
-1.792707
-1.954027
-2.111406
-2.264585
-2.413325
-2.557409
-2.696638
-2.830839
-2.959856
-3.083556
-3.201823
-3.314563
-3.421698
-3.523170
-3.618934
-3.708959
-3.793230
-3.871740
-3.944494
-4.011505
-4.072791
-4.128376
-4.178287
-4.222555
-4.261208
-4.294276
-4.321786
-4.343764
-4.360227
-4.371121
-4.377944
0.000000
0.000000
0.000000
0.000000
-0.219727
-0.396815
-0.578814
-0.758887
-0.937387
-1.113870
-1.287983
-1.459378
-1.627725
-1.792707
-1.954027
-2.111406
-2.264585
-2.413325
-2.557409
-2.696638
-2.830839
-2.959856
-3.083556
-3.201823
-3.314563
-3.421698
-3.523170
-3.618934
-3.708959
-3.793230
-3.871740
-3.944494
-4.011505
-4.072791
-4.128376
-4.178287
-4.222555
-4.261208
-4.294276
-4.321786
-4.343764
-4.360227
-4.371121
-4.377944
0.000000
0.000000
0.000000
0.000000
-0.219727
-0.396815
-0.578814
-0.758887
-0.937387
-1.113870
-1.287983
-1.459378
-1.627725
-1.792707
-1.954027
-2.111406
-2.264585
-2.413325
-2.557409
-2.696638
-2.830839
-2.959856
-3.083556
-3.201823
-3.314563
-3.421698
-3.523170
-3.618934
-3.708959
-3.793230
-3.871740
-3.944494
-4.011505
-4.072791
-4.128376
-4.178287
-4.222555
-4.261208
-4.294276
-4.321786
-4.343764
-4.360227
-4.371121
-4.377944
0.000000
0.000000
0.000000
0.000000
-0.219727
-0.396815
-0.578814
-0.758887
-0.937387
-1.113870
-1.287983
-1.459378
-1.627725
-1.792707
-1.954027
-2.111406
-2.264585
-2.413325
-2.557409
-2.696638
-2.830839
-2.959856
-3.083556
-3.201823
-3.314563
-3.421698
-3.523170
-3.618934
-3.708959
-3.793230
-3.871740
-3.944494
-4.011505
-4.072791
-4.128376
-4.178287
-4.222555
-4.261208
-4.294276
-4.321786
-4.343764
-4.360227
-4.371121
-4.377944
0.000000
0.000000
0.000000
0.000000
-0.219727
-0.396815
-0.578814
-0.758887
-0.937387
-1.113870
-1.287983
-1.459378
-1.627725
-1.792707
-1.954027
-2.111406
-2.264585
-2.413325
-2.557409
-2.696638
-2.830839
-2.959856
-3.083556
-3.201823
-3.314563
-3.421698
-3.523170
-3.618934
-3.708959
-3.793230
-3.871740
-3.944494
-4.011505
-4.072791
-4.128376
-4.178287
-4.222555
-4.261208
-4.294276
-4.321786
-4.343764
-4.360227
-4.371121
-4.377944
0.000000
0.000000
0.000000
0.000000
-0.219727
-0.396815
-0.578814
-0.758887
-0.937387
-1.113870
-1.287983
-1.459378
-1.627725
-1.792707
-1.954027
-2.111406
-2.264585
-2.413325
-2.557409
-2.696638
-2.830839
-2.959856
-3.083556
-3.201823
-3.314563
-3.421698
-3.523170
-3.618934
-3.708959
-3.793230
-3.871740
-3.944494
-4.011505
-4.072791
-4.128376
-4.178287
-4.222555
-4.261208
-4.294276
-4.321786
-4.343764
-4.360227
-4.371121
-4.377944
0.000000
0.000000
0.000000
0.000000
-0.219727
-0.396815
-0.578814
-0.758887
-0.937387
-1.113870
-1.287983
-1.459378
-1.627725
-1.792707
-1.954027
-2.111406
-2.264585
-2.413325
-2.557409
-2.696638
-2.830839
-2.959856
-3.083556
-3.201823
-3.314563
-3.421698
-3.523170
-3.618934
-3.708959
-3.793230
-3.871740
-3.944494
-4.011505
-4.072791
-4.128376
-4.178287
-4.222555
-4.261208
-4.294276
-4.321786
-4.343764
-4.360227
-4.371121
-4.377944
0.000000
0.000000
0.000000
0.000000
-0.219727
-0.396815
-0.578814
-0.758887
-0.937387
-1.113870
-1.287983
-1.459378
-1.627725
-1.792707
-1.954027
-2.111406
-2.264585
-2.413325
-2.557409
-2.696638
-2.830839
-2.959856
-3.083556
-3.201823
-3.314563
-3.421698
-3.523170
-3.618934
-3.708959
-3.793230
-3.871740
-3.944494
-4.011505
-4.072791
-4.128376
-4.178287
-4.222555
-4.261208
-4.294276
-4.321786
-4.343764
-4.360227
-4.371121
-4.377944
0.000000
0.000000
0.000000
0.000000
-0.219727
-0.396815
-0.578814
-0.758887
-0.937387
-1.113870
-1.287983
-1.459378
-1.627725
-1.792707
-1.954027
-2.111406
-2.264585
-2.413325
-2.557409
-2.696638
-2.830839
-2.959856
-3.083556
-3.201823
-3.314563
-3.421698
-3.523170
-3.618934
-3.708959
-3.793230
-3.871740
-3.944494
-4.011505
-4.072791
-4.128376
-4.178287
-4.222555
-4.261208
-4.294276
-4.321786
-4.343764
-4.360227
-4.371121
-4.377944
0.000000
0.000000
0.000000
0.000000
-0.219727
-0.396815
-0.578814
-0.758887
-0.937387
-1.113870
-1.287983
-1.459378
-1.627725
-1.792707
-1.954027
-2.111406
-2.264585
-2.413325
-2.557409
-2.696638
-2.830839
-2.959856
-3.083556
-3.201823
-3.314563
-3.421698
-3.523170
-3.618934
-3.708959
-3.793230
-3.871740
-3.944494
-4.011505
-4.072791
-4.128376
-4.178287
-4.222555
-4.261208
-4.294276
-4.321786
-4.343764