<?xml version='1.0' encoding='UTF-8'?>
<VTKFile xmlns='VTK' byte_order='LittleEndian' version='0.1' type='UnstructuredGrid'>
<UnstructuredGrid>
<Piece NumberOfCells='1888' NumberOfPoints='1888'>
<Points>
<DataArray NumberOfComponents='3' type='Float32' Name='Position' format='ascii'>
-0.040000 -0.030000 0.000000
-0.040000 -0.020000 0.000000
-0.040000 -0.010000 0.000000
-0.040000 0.000000 0.000000
-0.040000 0.010000 0.000000
-0.040000 0.020000 0.000000
-0.040000 0.030000 0.000000
-0.040000 0.040000 0.000000
-0.040000 0.050000 0.000000
-0.040000 0.060000 0.000000
-0.040000 0.070000 0.000000
-0.040000 0.080000 0.000000
-0.040000 0.090000 0.000000
-0.040000 0.100000 0.000000
-0.040000 0.110000 0.000000
-0.040000 0.120000 0.000000
-0.040000 0.130000 0.000000
-0.040000 0.140000 0.000000
-0.040000 0.150000 0.000000
-0.040000 0.160000 0.000000
-0.040000 0.170000 0.000000
-0.040000 0.180000 0.000000
-0.040000 0.190000 0.000000
-0.040000 0.200000 0.000000
-0.040000 0.210000 0.000000
-0.040000 0.220000 0.000000
-0.040000 0.230000 0.000000
-0.040000 0.240000 0.000000
-0.040000 0.250000 0.000000
-0.040000 0.260000 0.000000
-0.040000 0.270000 0.000000
-0.040000 0.280000 0.000000
-0.040000 0.290000 0.000000
-0.040000 0.300000 0.000000
-0.040000 0.310000 0.000000
-0.040000 0.320000 0.000000
-0.040000 0.330000 0.000000
-0.040000 0.340000 0.000000
-0.040000 0.350000 0.000000
-0.040000 0.360000 0.000000
-0.040000 0.370000 0.000000
-0.040000 0.380000 0.000000
-0.040000 0.390000 0.000000
-0.040000 0.400000 0.000000
0.010000 -0.030000 0.000000
0.010000 -0.020000 0.000000
0.010000 -0.010000 0.000000
0.010000 0.000000 0.000000
0.010000 0.010000 0.000000
0.010000 0.020000 0.000000
0.010000 0.030000 0.000000
0.010000 0.040000 0.000000
0.010000 0.050000 0.000000
0.010000 0.060000 0.000000
0.010000 0.070000 0.000000
0.010000 0.080000 0.000000
0.010000 0.090000 0.000000
0.010000 0.100000 0.000000
0.010000 0.110000 0.000000
0.010000 0.120000 0.000000
0.010000 0.130000 0.000000
0.010000 0.140000 0.000000
0.010000 0.150000 0.000000
0.010000 0.160000 0.000000
0.010000 0.170000 0.000000
0.010000 0.180000 0.000000
0.010000 0.190000 0.000000
0.010000 0.200000 0.000000
0.010000 0.210000 0.000000
0.010000 0.220000 0.000000
0.010000 0.230000 0.000000
0.010000 0.240000 0.000000
0.010000 0.250000 0.000000
0.010000 0.260000 0.000000
0.010000 0.270000 0.000000
0.010000 0.280000 0.000000
0.010000 0.290000 0.000000
0.010000 0.300000 0.000000
0.010000 0.310000 0.000000
0.010000 0.320000 0.000000
0.010000 0.330000 0.000000
0.010000 0.340000 0.000000
0.010000 0.350000 0.000000
0.010000 0.360000 0.000000
0.010000 0.370000 0.000000
0.010000 0.380000 0.000000
0.010000 0.390000 0.000000
0.010000 0.400000 0.000000
0.300000 0.410000 0.000000
0.300000 0.420000 0.000000
0.300000 0.430000 0.000000
0.300000 0.440000 0.000000
0.060000 -0.030000 0.000000
0.060000 -0.020000 0.000000
0.060000 -0.010000 0.000000
0.060000 0.000000 0.000000
0.060000 0.010000 0.000000
0.060000 0.020000 0.000000
0.060000 0.030000 0.000000
0.060000 0.040000 0.000000
0.060000 0.050000 0.000000
0.060000 0.060000 0.000000
0.060000 0.070000 0.000000
0.060000 0.080000 0.000000
0.060000 0.090000 0.000000
0.060000 0.100000 0.000000
0.060000 0.110000 0.000000
0.060000 0.120000 0.000000
0.060000 0.130000 0.000000
0.060000 0.140000 0.000000
0.060000 0.150000 0.000000
0.060000 0.160000 0.000000
0.060000 0.170000 0.000000
0.060000 0.180000 0.000000
0.060000 0.190000 0.000000
0.060000 0.200000 0.000000
0.060000 0.210000 0.000000
0.060000 0.220000 0.000000
0.060000 0.230000 0.000000
0.060000 0.240000 0.000000
0.060000 0.250000 0.000000
0.060000 0.260000 0.000000
0.060000 0.270000 0.000000
0.060000 0.280000 0.000000
0.060000 0.290000 0.000000
0.060000 0.300000 0.000000
0.060000 0.310000 0.000000
0.060000 0.320000 0.000000
0.060000 0.330000 0.000000
0.060000 0.340000 0.000000
0.060000 0.350000 0.000000
0.060000 0.360000 0.000000
0.060000 0.370000 0.000000
0.060000 0.380000 0.000000
0.060000 0.390000 0.000000
0.060000 0.400000 0.000000
0.350000 0.410000 0.000000
0.350000 0.420000 0.000000
0.350000 0.430000 0.000000
0.350000 0.440000 0.000000
0.110000 -0.030000 0.000000
0.110000 -0.020000 0.000000
0.110000 -0.010000 0.000000
0.110000 0.000000 0.000000
0.110000 0.010000 0.000000
0.110000 0.020000 0.000000
0.110000 0.030000 0.000000
0.110000 0.040000 0.000000
0.110000 0.050000 0.000000
0.110000 0.060000 0.000000
0.110000 0.070000 0.000000
0.110000 0.080000 0.000000
0.110000 0.090000 0.000000
0.110000 0.100000 0.000000
0.110000 0.110000 0.000000
0.110000 0.120000 0.000000
0.110000 0.130000 0.000000
0.110000 0.140000 0.000000
0.110000 0.150000 0.000000
0.110000 0.160000 0.000000
0.110000 0.170000 0.000000
0.110000 0.180000 0.000000
0.110000 0.190000 0.000000
0.110000 0.200000 0.000000
0.110000 0.210000 0.000000
0.110000 0.220000 0.000000
0.110000 0.230000 0.000000
0.110000 0.240000 0.000000
0.110000 0.250000 0.000000
0.110000 0.260000 0.000000
0.110000 0.270000 0.000000
0.110000 0.280000 0.000000
0.110000 0.290000 0.000000
0.110000 0.300000 0.000000
0.110000 0.310000 0.000000
0.110000 0.320000 0.000000
0.110000 0.330000 0.000000
0.110000 0.340000 0.000000
0.110000 0.350000 0.000000
0.110000 0.360000 0.000000
0.110000 0.370000 0.000000
0.110000 0.380000 0.000000
0.110000 0.390000 0.000000
0.110000 0.400000 0.000000
0.400000 0.410000 0.000000
0.400000 0.420000 0.000000
0.400000 0.430000 0.000000
0.400000 0.440000 0.000000
0.160000 -0.030000 0.000000
0.160000 -0.020000 0.000000
0.160000 -0.010000 0.000000
0.160000 0.000000 0.000000
0.160000 0.010000 0.000000
0.160000 0.020000 0.000000
0.160000 0.030000 0.000000
0.160000 0.040000 0.000000
0.160000 0.050000 0.000000
0.160000 0.060000 0.000000
0.160000 0.070000 0.000000
0.160000 0.080000 0.000000
0.160000 0.090000 0.000000
0.160000 0.100000 0.000000
0.160000 0.110000 0.000000
0.160000 0.120000 0.000000
0.160000 0.130000 0.000000
0.160000 0.140000 0.000000
0.160000 0.150000 0.000000
0.160000 0.160000 0.000000
0.160000 0.170000 0.000000
0.160000 0.180000 0.000000
0.160000 0.190000 0.000000
0.160000 0.200000 0.000000
0.160000 0.210000 0.000000
0.160000 0.220000 0.000000
0.160000 0.230000 0.000000
0.160000 0.240000 0.000000
0.160000 0.250000 0.000000
0.160000 0.260000 0.000000
0.160000 0.270000 0.000000
0.160000 0.280000 0.000000
0.160000 0.290000 0.000000
0.160000 0.300000 0.000000
0.160000 0.310000 0.000000
0.160000 0.320000 0.000000
0.160000 0.330000 0.000000
0.160000 0.340000 0.000000
0.160000 0.350000 0.000000
0.160000 0.360000 0.000000
0.160000 0.370000 0.000000
0.160000 0.380000 0.000000
0.160000 0.390000 0.000000
0.160000 0.400000 0.000000
0.450000 0.410000 0.000000
0.450000 0.420000 0.000000
0.450000 0.430000 0.000000
0.450000 0.440000 0.000000
0.210000 -0.030000 0.000000
0.210000 -0.020000 0.000000
0.210000 -0.010000 0.000000
0.210000 0.000000 0.000000
0.210000 0.010000 0.000000
0.210000 0.020000 0.000000
0.210000 0.030000 0.000000
0.210000 0.040000 0.000000
0.210000 0.050000 0.000000
0.210000 0.060000 0.000000
0.210000 0.070000 0.000000
0.210000 0.080000 0.000000
0.210000 0.090000 0.000000
0.210000 0.100000 0.000000
0.210000 0.110000 0.000000
0.210000 0.120000 0.000000
0.210000 0.130000 0.000000
0.210000 0.140000 0.000000
0.210000 0.150000 0.000000
0.210000 0.160000 0.000000
0.210000 0.170000 0.000000
0.210000 0.180000 0.000000
0.210000 0.190000 0.000000
0.210000 0.200000 0.000000
0.210000 0.210000 0.000000
0.210000 0.220000 0.000000
0.210000 0.230000 0.000000
0.210000 0.240000 0.000000
0.210000 0.250000 0.000000
0.210000 0.260000 0.000000
0.210000 0.270000 0.000000
0.210000 0.280000 0.000000
0.210000 0.290000 0.000000
0.210000 0.300000 0.000000
0.210000 0.310000 0.000000
0.210000 0.320000 0.000000
0.210000 0.330000 0.000000
0.210000 0.340000 0.000000
0.210000 0.350000 0.000000
0.210000 0.360000 0.000000
0.210000 0.370000 0.000000
0.210000 0.380000 0.000000
0.210000 0.390000 0.000000
0.210000 0.400000 0.000000
0.500000 0.410000 0.000000
0.500000 0.420000 0.000000
0.500000 0.430000 0.000000
0.500000 0.440000 0.000000
0.260000 -0.030000 0.000000
0.260000 -0.020000 0.000000
0.260000 -0.010000 0.000000
0.260000 0.000000 0.000000
0.260000 0.010000 0.000000
0.260000 0.020000 0.000000
0.260000 0.030000 0.000000
0.260000 0.040000 0.000000
0.260000 0.050000 0.000000
0.260000 0.060000 0.000000
0.260000 0.070000 0.000000
0.260000 0.080000 0.000000
0.260000 0.090000 0.000000
0.260000 0.100000 0.000000
0.260000 0.110000 0.000000
0.260000 0.120000 0.000000
0.260000 0.130000 0.000000
0.260000 0.140000 0.000000
0.260000 0.150000 0.000000
0.260000 0.160000 0.000000
0.260000 0.170000 0.000000
0.260000 0.180000 0.000000
0.260000 0.190000 0.000000
0.260000 0.200000 0.000000
0.260000 0.210000 0.000000
0.260000 0.220000 0.000000
0.260000 0.230000 0.000000
0.260000 0.240000 0.000000
0.260000 0.250000 0.000000
0.260000 0.260000 0.000000
0.260000 0.270000 0.000000
0.260000 0.280000 0.000000
0.260000 0.290000 0.000000
0.260000 0.300000 0.000000
0.260000 0.310000 0.000000
0.260000 0.320000 0.000000
0.260000 0.330000 0.000000
0.260000 0.340000 0.000000
0.260000 0.350000 0.000000
0.260000 0.360000 0.000000
0.260000 0.370000 0.000000
0.260000 0.380000 0.000000
0.260000 0.390000 0.000000
0.260000 0.400000 0.000000
0.550000 0.410000 0.000000
0.550000 0.420000 0.000000
0.550000 0.430000 0.000000
0.550000 0.440000 0.000000
0.310000 -0.030000 0.000000
0.310000 -0.020000 0.000000
0.310000 -0.010000 0.000000
0.310000 0.000000 0.000000
0.310000 0.010000 0.000000
0.310000 0.020000 0.000000
0.310000 0.030000 0.000000
0.310000 0.040000 0.000000
0.310000 0.050000 0.000000
0.310000 0.060000 0.000000
0.310000 0.070000 0.000000
0.310000 0.080000 0.000000
0.310000 0.090000 0.000000
0.310000 0.100000 0.000000
0.310000 0.110000 0.000000
0.310000 0.120000 0.000000
0.310000 0.130000 0.000000
0.310000 0.140000 0.000000
0.310000 0.150000 0.000000
0.310000 0.160000 0.000000
0.310000 0.170000 0.000000
0.310000 0.180000 0.000000
0.310000 0.190000 0.000000
0.310000 0.200000 0.000000
0.310000 0.210000 0.000000
[...]
<PointData>
<DataArray NumberOfComponents='1' type='Int32' Name='ParticleType' format='ascii'>
4
4
4
4
4
4
4
4
4
4
4
4
4
4
4
4
4
4
4
4
4
4
4
4
4
4
4
4
4
4
4
4
4
4
4
4
4
4
4
4
4
4
4
4
4
4
3
3
2
2
2
2
2
2
2
2
2
2
2
2
2
2
2
2
2
2
2
2
2
2
2
2
2
2
2
2
2
2
2
2
2
2
2
2
2
2
2
2
5
5
5
5
4
4
3
3
2
2
2
2
2
2
2
2
2
2
2
2
2
2
2
2
2
2
2
2
2
2
2
2
2
2
2
2
2
2
2
2
2
2
2
2
2
2
2
2
5
5
5
5
4
4
3
3
2
2
2
2
2
2
2
2
2
2
2
2
2
2
2
2
2
2
2
2
2
2
2
2
2
2
2
2
2
2
2
2
2
2
2
2
2
2
2
2
5
5
5
5
4
4
3
3
2
2
2
2
2
2
2
2
2
2
2
2
2
2
2
2
2
2
2
2
2
2
2
2
2
2
2
2
2
2
2
2
2
2
2
2
2
2
2
2
5
5
5
5
4
4
3
3
2
2
2
2
2
2
2
2
2
2
2
2
2
2
2
2
2
2
2
2
2
2
2
2
2
2
2
2
2
2
2
2
2
2
2
2
2
2
2
2
5
5
5
5
4
4
3
3
2
2
2
2
2
2
2
2
2
2
2
2
2
2
2
2
2
2
2
2
2
2
2
2
2
2
2
2
2
2
2
2
2
2
2
2
2
2
2
2
5
5
5
5
4
4
3
3
2
2
2
2
2
2
2
2
2
2
2
2
2
2
2
2
2
2
2
2
2
2
2
2
2
2
2
2
2
2
2
2
2
2
2
2
2
2
2
2
5
5
5
5
4
4
3
3
2
2
2
2
2
2
2
2
2
2
2
2
2
2
2
2
2
2
2
2
2
2
2
2
2
2
2
2
2
2
2
2
2
2
2
2
2
2
2
2
5
5
5
5
4
4
3
3
2
2
2
2
2
2
2
2
2
2
2
2
2
2
2
2
2
2
2
2
2
2
2
2
2
2
2
2
2
2
2
2
2
2
2
2
2
2
2
2
5
5
5
5
4
4
3
3
2
2
2
2
2
2
2
2
2
2
2
2
2
2
2
2
2
2
2
2
2
2
2
2
2
2
2
2
2
2
2
2
2
2
2
2
2
2
2
2
5
5
5
5
4
4
3
3
2
2
2
2
2
2
2
2
2
2
2
2
2
2
2
2
2
2
2
2
2
2
2
2
2
2
2
2
2
2
2
2
2
2
2
2
2
2
2
2
4
4
3
3
2
2
2
2
2
2
2
2
2
2
2
2
2
2
2
2
2
2
2
2
2
2
2
2
2
2
2
2
2
2
2
2
2
2
2
2
2
2
2
2
4
4
3
3
2
2
2
2
2
2
2
2
2
2
2
2
2
2
2
2
2
2
2
2
2
2
2
2
2
2
2
2
2
2
2
2
2
2
2
2
2
2
2
2
4
4
3
3
2
2
2
2
2
2
2
2
2
2
2
2
2
2
2
2
2
2
2
2
2
2
2
2
2
2
2
2
2
2
2
2
2
2
2
2
2
2
2
2
4
4
3
3
2
2
2
2
2
2
2
2
2
2
2
2
2
2
2
2
2
2
2
2
2
2
2
2
2
2
2
2
2
2
2
2
2
2
2
2
2
2
2
2
4
4
3
3
2
2
2
2
2
2
2
2
2
2
2
2
2
2
2
2
2
2
2
2
2
2
2
2
2
2
2
2
2
2
2
2
2
2
2
2
2
2
2
2
4
4
3
3
2
2
2
2
2
2
2
2
2
2
2
2
2
2
2
2
2
2
2
2
2
2
2
2
2
2
2
2
2
2
2
2
2
2
2
2
2
2
2
2
4
4
3
3
2
2
2
2
2
2
2
2
2
2
2
2
2
2
2
2
2
2
2
2
2
2
2
2
2
2
2
2
2
2
2
2
2
2
2
2
2
2
2
2
4
4
3
3
2
2
2
2
2
2
2
2
2
2
2
2
2
2
2
2
2
2
2
2
2
2
2
2
2
2
2
2
2
2
2
2
2
2
2
2
2
2
2
2
4
4
3
3
2
2
2
2
2
2
2
2
2
2
2
2
2
2
2
2
2
2
2
2
2
2
2
2
2
2
2
2
2
2
2
2
2
2
2
2
2
2
2
2
4
4
3
3
2
2
2
2
2
2
2
2
2
2
2
2
2
2
2
2
2
2
2
2
2
2
2
2
2
2
2
2
2
2
2
2
2
2
2
2
2
2
2
2
4
4
3
3
2
2
2
2
2
2
2
2
2
2
2
2
2
2
2
2
2
2
2
2
2
2
2
2
2
2
2
2
2
2
2
2
2
2
2
2
2
2
2
2
4
4
3
3
2
2
2
2
2
2
2
2
2
2
2
2
2
2
2
2
2
2
2
2
2
2
2
2
2
2
2
2
2
2
2
2
2
2
2
2
2
2
2
2
4
4
3
3
2
2
2
2
2
2
2
2
2
2
2
2
2
2
2
2
2
2
2
2
2
2
2
2
2
2
2
2
2
2
2
2
2
2
2
2
2
2
2
2
4
4
3
3
2
2
2
2
2
2
2
2
2
2
2
2
2
2
2
2
2
2
2
2
2
2
2
2
2
2
2
2
2
2
2
2
2
2
2
2
2
2
2
2
4
4
3
3
2
2
2
2
2
2
2
2
2
2
2
2
2
2
2
2
2
2
2
2
2
2
2
2
2
2
2
2
2
2
2
2
2
2
2
2
2
2
2
2
4
4
3
3
2
2
2
2
2
2
2
2
2
2
2
2
2
2
2
2
2
2
2
2
2
2
2
2
2
2
2
2
2
2
2
2
2
2
2
2
2
2
2
2
4
4
3
3
2
2
2
2
2
2
2
2
2
2
2
2
2
2
2
2
2
2
2
2
2
2
2
2
2
2
2
2
2
2
2
2
2
2
2
2
2
2
2
2
4
4
3
3
2
2
2
2
2
2
2
2
2
2
2
2
2
2
2
2
2
2
2
2
2
2
2
2
2
2
2
2
2
2
2
2
2
2
2
2
2
2
2
2
4
4
3
3
2
2
2
2
2
2
2
2
2
2
2
2
2
2
2
2
2
2
2
2
2
2
2
2
2
2
2
2
2
2
2
2
2
2
2
2
2
2
2
2
4
4
3
3
2
2
2
2
2
2
2
2
2
2
2
2
2
2
2
2
2
2
2
2
2
2
2
2
2
2
2
2
2
2
2
2
2
2
2
2
2
2
2
2
4
4
3
3
2
2
2
2
2
2
2
2
2
2
2
2
2
2
2
2
2
2
2
2
2
2
2
2
2
2
2
2
2
2
2
2
2
2
2
2
2
2
2
2
4
4
3
3
2
2
2
2
2
2
2
2
2
2
2
2
2
2
2
2
2
2
2
2
2
2
2
2
2
2
2
2
2
2
2
2
2
2
2
2
2
2
2
2
4
4
3
3
2
2
2
2
2
2
2
2
2
2
2
2
2
2
2
2
2
2
2
2
2
2
2
2
2
2
2
2
2
2
2
2
2
2
2
2
2
2
2
2
4
4
3
3
2
2
2
2
2
2
2
2
2
2
2
2
2
2
2
2
2
2
2
2
2
2
2
2
2
2
2
2
2
2
2
2
2
2
2
2
2
2
2
2
4
4
3
3
2
2
2
2
2
2
2
2
2
2
2
2
2
2
2
2
2
2
2
2
2
2
2
2
2
2
2
2
2
2
2
2
2
2
2
2
2
2
2
2
4
4
3
3
2
2
2
2
2
2
2
2
2
2
2
2
2
2
2
2
2
2
2
2
2
2
2
2
2
2
2
2
2
2
2
2
2
2
2
2
2
2
2
2
4
4
3
3
2
2
2
2
2
2
2
2
2
2
2
2
2
2
2
2
2
2
2
2
2
2
2
2
2
2
2
2
2
2
2
2
2
2
2
2
2
2
2
2
4
4
3
3
2
2
2
2
2
2
2
2
2
2
2
2
2
2
2
2
2
2
2
2
2
2
2
2
2
2
2
2
2
2
2
2
2
2
2
2
2
2
2
2
4
4
3
3
2
2
2
2
2
2
2
2
2
2
2
2
2
2
2
2
2
2
2
2
2
2
2
2
2
2
2
2
2
2
2
2
2
2
2
2
2
2
2
2
4
4
3
3
3
3
3
3
3
3
3
3
3
3
3
3
3
3
3
3
3
3
3
3
3
3
3
3
3
3
3
3
3
3
3
3
3
3
3
3
3
3
3
3
</DataArray>
<DataArray NumberOfComponents='1' type='Float32' Name='Temperature' format='ascii'>
0.000000
0.000000
0.000000
0.000000
0.000000
0.000000
0.000000
0.000000
0.000000
0.000000
0.000000
0.000000
0.000000
0.000000
0.000000
0.000000
0.000000
0.000000
0.000000
0.000000
0.000000
0.000000
0.000000
0.000000
0.000000
0.000000
0.000000
0.000000
0.000000
0.000000
0.000000
0.000000
0.000000
0.000000
0.000000
0.000000
0.000000
0.000000
0.000000
0.000000
0.000000
0.000000
0.000000
0.000000
0.000000
0.000000
0.000000
0.000000
-0.284710
-0.513666
-0.748131
-0.978866
-1.205983
-1.428587
-1.645932
-1.857318
-2.062109
-2.259732
-2.449689
-2.631552
-2.804970
-2.969670
-3.125454
-3.272199
-3.409856
-3.538443
-3.658048
-3.768815
-3.870946
-3.964692
-4.050346
-4.128239
-4.198731
-4.262202
-4.319051
-4.369683
-4.414508
-4.453928
-4.488335
-4.518108
-4.543599
-4.565137
-4.583019
-4.597504
-4.608818
-4.617139
-4.622572
-4.625938
-3.000000
-3.000000
-3.000000
-3.000000
0.000000
0.000000
0.000000
0.000000
-0.281585
-0.507956
-0.739651
-0.967477
-1.191491
-1.410754
-1.624478
-1.831925
-2.032417
-2.225350
-2.410193
-2.586490
-2.753871
-2.912045
-3.060804
-3.200023
-3.329659
-3.449745
-3.560389
-3.661771
-3.754133
-3.837779
-3.913063
-3.980386
-4.040188
-4.092937
-4.139124
-4.179256
-4.213844
-4.243397
-4.268414
-4.289376
-4.306741
-4.320931
-4.332333
-4.341287
-4.348088
-4.352972
-4.356104
-4.358014
-3.000000
-3.000000
-3.000000
-3.000000
0.000000
0.000000
0.000000
0.000000
-0.280318
-0.505621
-0.736140
-0.962684
-1.185271
-1.402925
-1.614822
-1.820186
-2.018304
-2.208533
-2.390304
-2.563130
-2.726603
-2.880405
-3.024300
-3.158144
-3.281877
-3.395526
-3.499202
-3.593094
-3.677469
-3.752663
-3.819078
-3.877173
-3.927457
-3.970483
-4.006837
-4.037127
-4.061977
-4.082016
-4.097865
-4.110130
-4.119390
-4.126187
-4.131019
-4.134330
-4.136500
-4.137843
-4.138596
-4.139000
-3.000000
-3.000000
-3.000000
-3.000000
0.000000
0.000000
0.000000
0.000000
-0.279969
-0.504967
-0.735131
-0.961258
-1.183344
-1.400389
-1.611541
-1.815991
-2.012995
-2.201869
-2.382006
-2.552870
-2.714010
-2.865055
-3.005722
-3.135815
-3.255229
-3.363947
-3.462044
-3.549681
-3.627110
-3.694666
-3.752765
-3.801901
-3.842636
-3.875600
-3.901474
-3.920987
-3.934903
-3.944006
-3.949090
-3.950943
-3.950330
-3.947983
-3.944581
-3.940736
-3.936983
-3.933763
-3.931435
-3.929878
-3.000000
-3.000000
-3.000000
-3.000000
0.000000
0.000000
0.000000
0.000000
-0.279940
-0.504910
-0.735037
-0.961115
-1.183132
-1.400082
-1.611101
-1.815370
-2.012123
-2.200659
-2.380340
-2.550598
-2.710938
-2.860940
-3.000261
-3.128635
-3.245878
-3.351886
-3.446639
-3.530200
-3.602721
-3.664441
-3.715694
-3.756905
-3.788598
-3.811394
-3.826011
-3.833263
-3.834049
-3.829349
-3.820208
-3.807712
-3.792975
-3.777099
-3.761154
-3.746138
-3.732945
-3.722336
-3.714961
-3.710163
-3.000000
-3.000000
-3.000000
-3.000000
0.000000
0.000000
0.000000
0.000000
-0.279940
-0.504910
-0.735037
-0.961114
-1.183131
-1.400080
-1.611098
-1.815364
-2.012113
-2.200642
-2.380310
-2.550548
-2.710855
-2.860804
-3.000040
-3.128280
-3.245315
-3.351005
-3.445276
-3.528120
-3.599590
-3.659793
-3.708889
-3.747087
-3.774644
-3.791867
-3.799119
-3.796833
-3.785539
-3.765899
-3.738751
-3.705165
-3.666505
-3.624474
-3.581140
-3.538911
-3.500436
-3.468417
-3.445532
-3.430258
-3.000000
-3.000000
-3.000000
-3.000000
0.000000
0.000000
0.000000
0.000000
-0.279940
-0.504910
-0.735037
-0.961114
-1.183131
-1.400080
-1.611098
-1.815364
-2.012113
-2.200642
-2.380310
-2.550548
-2.710855
-2.860804
-3.000040
-3.128280
-3.245315
-3.351005
-3.445276
-3.528120
-3.599590
-3.659792
-3.708888
-3.747085
-3.774641
-3.791858
-3.799096
-3.796781
-3.785420
-3.765633
-3.738170
-3.703927
-3.663934
-3.619280
-3.570942
-3.519491
-3.464511
-3.404811
-3.332498
-3.247007
-3.000000
-3.000000
-3.000000
-3.000000
0.000000
0.000000
0.000000
0.000000
-0.279940
-0.504910
-0.735037
-0.961114
-1.183131
-1.400080
-1.611098
-1.815364
-2.012113
-2.200642
-2.380310
-2.550548
-2.710855
-2.860804
-3.000040
-3.128280
-3.245315
-3.351005
-3.445276
-3.528120
-3.599590
-3.659792
-3.708888
-3.747085
-3.774641
-3.791858
-3.799096
-3.796781
-3.785420
-3.765633
-3.738170
-3.703927
-3.663934
-3.619280
-3.570942
-3.519491
-3.464511
-3.404811
-3.332498
-3.247007
-3.000000
-3.000000
-3.000000
-3.000000
0.000000
0.000000
0.000000
0.000000
-0.279940
-0.504910
-0.735037
-0.961114
-1.183131
-1.400080
-1.611098
-1.815364
-2.012113
-2.200642
-2.380310
-2.550548
-2.710855
-2.860804
-3.000040
-3.128280
-3.245315
-3.351005
-3.445276
-3.528120
-3.599590
-3.659792
-3.708888
-3.747085
-3.774641
-3.791858
-3.799096
-3.796781
-3.785420
-3.765633
-3.738170
-3.703927
-3.663934
-3.619280
-3.570942
-3.519491
-3.464511
-3.404811
-3.332498
-3.247007
-3.000000
-3.000000
-3.000000
-3.000000
0.000000
0.000000
0.000000
0.000000
-0.279940
-0.504910
-0.735037
-0.961114
-1.183131
-1.400080
-1.611098
-1.815364
-2.012113
-2.200642
-2.380310
-2.550548
-2.710855
-2.860804
-3.000040
-3.128280
-3.245315
-3.351005
-3.445276
-3.528120
-3.599590
-3.659792
-3.708888
-3.747085
-3.774641
-3.791858
-3.799096
-3.796781
-3.785420
-3.765633
-3.738170
-3.703927
-3.663934
-3.619280
-3.570942
-3.519491
-3.464511
-3.404811
-3.332498
-3.247007
-3.000000
-3.000000
-3.000000
-3.000000
0.000000
0.000000
0.000000
0.000000
-0.282167
-0.508951
-0.740972
-0.968970
-1.192947
-1.411901
-1.624975
-1.831349
-2.030258
-2.220996
-2.402916
-2.575439
-2.738053
-2.890315
-3.031852
-3.162359
-3.281604
-3.389417
-3.485699
-3.570410
-3.643569
-3.705251
-3.755585
-3.794745
-3.822957
-3.840496
-3.847696
-3.844963
-3.832792
-3.811800
-3.782746
-3.746550
-3.704277
-3.657060
-3.605921
-3.551450
-3.493197
-3.429892
-3.353151
-3.262376
0.000000
0.000000
0.000000
0.000000
-0.285448
-0.514924
-0.749794
-0.980732
-1.207777
-1.429953
-1.646421
-1.856378
-2.059070
-2.253793
-2.439900
-2.616802
-2.783969
-2.940932
-3.087283
-3.222678
-3.346829
-3.459511
-3.560556
-3.649849
-3.727332
-3.792994
-3.846875
-3.889062
-3.919692
-3.938954
-3.947105
-3.944484
-3.931539
-3.908857
-3.877202
-3.837527
-3.790963
-3.738734
-3.681949
-3.621248
-3.556103
-3.485073
-3.398697
-3.296324
0.000000
0.000000
0.000000
0.000000
-0.287577
-0.518834
-0.755643
-0.988659
-1.217976
-1.442656
-1.661902
-1.874948
-2.081071
-2.279596
-2.469896
-2.651395
-2.823565
-2.985930
-3.138062
-3.279582
-3.410153
-3.529486
-3.637331
-3.733478
-3.817752
-3.890017
-3.950171
-3.998148
-4.033926
-4.057534
-4.069071
-4.068731
-4.056839
-4.033891
-4.000600
-3.957922
-3.907043
-3.849281
-3.785850
-3.717442
-3.643423
-3.562114
-3.462551
-3.344054
0.000000
0.000000
0.000000
0.000000
-0.288399
-0.520370
-0.758003
-0.991972
-1.222420
-1.448457
-1.669339
-1.884355
-2.092844
-2.294192
-2.487834
-2.673256
-2.849991
-3.017614
-3.175740
-3.324016
-3.462118
-3.589738
-3.706585
-3.812372
-3.906811
-3.989613
-4.060480
-4.119112
-4.165213
-4.198509
-4.218776
-4.225878
-4.219823
-4.200828
-4.169387
-4.126316
-4.072753
-4.010049
-3.939486
-3.861777
-3.776075
-3.680318
-3.561235
-3.418177
0.000000
0.000000
0.000000
0.000000
-0.288489
-0.520546
-0.758291
-0.992411
-1.223065
-1.449386
-1.670660
-1.886214
-2.095433
-2.297763
-2.492715
-2.679866
-2.858856
-3.029389
-3.191224
-3.344172
-3.488081
-3.622823
-3.748278
-3.864313
-3.970757
-4.067376
-4.153852
-4.229756
-4.294542
-4.347544
-4.388006
-4.415125
-4.428135
-4.426418
-4.409628
-4.377807
-4.331433
-4.271341
-4.198398
-4.112871
-4.013144
-3.896173
-3.744277
-3.557116
0.000000
0.000000
0.000000
0.000000
-0.288489
-0.520547
-0.758293
-0.992414
-1.223069
-1.449394
-1.670674
-1.886237
-2.095473
-2.297832
-2.492832
-2.680061
-2.859178
-3.029914
-3.192070
-3.345518
-3.490196
-3.626105
-3.753307
-3.871916
-3.982096
-4.084056
-4.178039
-4.264319
-4.343192
-4.414967
-4.479950
-4.538427
-4.590623
-4.636641
-4.676344
-4.709151
-4.733690
-4.747252
-4.744961
-4.718696
-4.655330
-4.538676
-4.328061
-4.021699
0.000000
0.000000
0.000000
0.000000
-0.288489
-0.520547
-0.758293
-0.992414
-1.223069
-1.449394
-1.670674
-1.886237
-2.095473
-2.297832
-2.492832
-2.680061
-2.859178
-3.029914
-3.192070
-3.345518
-3.490196
-3.626105
-3.753307
-3.871916
-3.982097
-4.084058
-4.178043
-4.264329
-4.343216
-4.415023
-4.480082
-4.538729
-4.591303
-4.638137
-4.679553
-4.715860
-4.747346
-4.774277
-4.796894
-4.815408
-4.829999
-4.840810
-4.847908
-4.852325
0.000000
0.000000
0.000000
0.000000
-0.288489
-0.520547
-0.758293
-0.992414
-1.223069
-1.449394
-1.670674
-1.886237
-2.095473
-2.297832
-2.492832
-2.680061
-2.859178
-3.029914
-3.192070
-3.345518
-3.490196
-3.626105
-3.753307
-3.871916
-3.982097
-4.084058
-4.178043
-4.264329
-4.343216
-4.415023
-4.480082
-4.538729
-4.591303
-4.638137
-4.679553
-4.715860
-4.747346
-4.774277
-4.796894
-4.815408
-4.829999
-4.840810
-4.847908
-4.852325
0.000000
0.000000
0.000000
0.000000
-0.288489
-0.520547
-0.758293
-0.992414
-1.223069
-1.449394
-1.670674
-1.886237
-2.095473
-2.297832
-2.492832
-2.680061
-2.859178
-3.029914
-3.192070
-3.345518
-3.490196
-3.626105
-3.753307
-3.871916
-3.982097
-4.084058
-4.178043
-4.264329
-4.343216
-4.415023
-4.480082
-4.538729
-4.591303
-4.638137
-4.679553
-4.715860
-4.747346
-4.774277
-4.796894
-4.815408
-4.829999
-4.840810
-4.847908
-4.852325
0.000000
0.000000
0.000000
0.000000
-0.288489
-0.520547
-0.758293
-0.992414
-1.223069
-1.449394
-1.670674
-1.886237
-2.095473
-2.297832
-2.492832
-2.680061
-2.859178
-3.029914
-3.192070
-3.345518
-3.490196
-3.626105
-3.753307
-3.871916
-3.982097
-4.084058
-4.178043
-4.264329
-4.343216
-4.415023
-4.480082
-4.538729
-4.591303
-4.638137
-4.679553
-4.715860
-4.747346
-4.774277
-4.796894
-4.815408
-4.829999
-4.840810
-4.847908
-4.852325
0.000000
0.000000
0.000000
0.000000
-0.288489
-0.520547
-0.758293
-0.992414
-1.223069
-1.449394
-1.670674
-1.886237
-2.095473
-2.297832
-2.492832
-2.680061
-2.859178
-3.029914
-3.192070
-3.345518
-3.490196
-3.626105
-3.753307
-3.871916
-3.982097
-4.084058
-4.178043
-4.264329
-4.343216
-4.415023
-4.480082
-4.538729
-4.591303
-4.638137
-4.679553
-4.715860
-4.747346
-4.774277
-4.796894
-4.815408
-4.829999
-4.840810
-4.847908
-4.852325
0.000000
0.000000
0.000000
0.000000
-0.288489
-0.520547
-0.758293
-0.992414
-1.223069
-1.449394
-1.670674
-1.886237
-2.095473
-2.297832
-2.492832
-2.680061
-2.859178
-3.029914
-3.192070
-3.345518
-3.490196
-3.626105
-3.753307
-3.871916
-3.982097
-4.084058
-4.178043
-4.264329
-4.343216
-4.415023
-4.480082
-4.538729
-4.591303
-4.638137
-4.679553
-4.715860
-4.747346
-4.774277
-4.796894
-4.815408
-4.829999
-4.840810
-4.847908
-4.852325
0.000000
0.000000
0.000000
0.000000
-0.288489
-0.520547
-0.758293
-0.992414
-1.223069
-1.449394
-1.670674
-1.886237
-2.095473
-2.297832
-2.492832
-2.680061
-2.859178
-3.029914
-3.192070
-3.345518
-3.490196
-3.626105
-3.753307
-3.871916
-3.982097
-4.084058
-4.178043
-4.264329
-4.343216
-4.415023
-4.480082
-4.538729
-4.591303
-4.638137
-4.679553
-4.715860
-4.747346
-4.774277
-4.796894
-4.815408
-4.829999
-4.840810
-4.847908
-4.852325
0.000000
0.000000
0.000000
0.000000
-0.288489
-0.520547
-0.758293
-0.992414
-1.223069
-1.449394
-1.670674
-1.886237
-2.095473
-2.297832
-2.492832
-2.680061
-2.859178
-3.029914
-3.192070
-3.345518
-3.490196
-3.626105
-3.753307
-3.871916
-3.982097
-4.084058
-4.178043
-4.264329
-4.343216
-4.415023
-4.480082
-4.538729
-4.591303
-4.638137
-4.679553
-4.715860
-4.747346
-4.774277
-4.796894
-4.815408
-4.829999
-4.840810
-4.847908
-4.852325
0.000000
0.000000
0.000000
0.000000
-0.288489
-0.520547
-0.758293
-0.992414
-1.223069
-1.449394
-1.670674
-1.886237
-2.095473
-2.297832
-2.492832
-2.680061
-2.859178
-3.029914
-3.192070
-3.345518
-3.490196
-3.626105
-3.753307
-3.871916
-3.982097
-4.084058
-4.178043
-4.264329
-4.343216
-4.415023
-4.480082
-4.538729
-4.591303
-4.638137
-4.679553
-4.715860
-4.747346
-4.774277
-4.796894
-4.815408
-4.829999
-4.840810
-4.847908
-4.852325
0.000000
0.000000
0.000000
0.000000
-0.288489
-0.520547
-0.758293
-0.992414
-1.223069
-1.449394
-1.670674
-1.886237
-2.095473
-2.297832
-2.492832
-2.680061
-2.859178
-3.029914
-3.192070
-3.345518
-3.490196
-3.626105
-3.753307
-3.871916
-3.982097
-4.084058
-4.178043
-4.264329
-4.343216
-4.415023
-4.480082
-4.538729
-4.591303
-4.638137
-4.679553
-4.715860
-4.747346
-4.774277
-4.796894
-4.815408
-4.829999
-4.840810
-4.847908
-4.852325
0.000000
0.000000
0.000000
0.000000
-0.288489
-0.520547
-0.758293
-0.992414
-1.223069
-1.449394
-1.670674
-1.886237
-2.095473
-2.297832
-2.492832
-2.680061
-2.859178
-3.029914
-3.192070
-3.345518
-3.490196
-3.626105
-3.753307
-3.871916
-3.982097
-4.084058
-4.178043
-4.264329
-4.343216
-4.415023
-4.480082
-4.538729
-4.591303
-4.638137
-4.679553
-4.715860
-4.747346
-4.774277
-4.796894
-4.815408
-4.829999
-4.840810
-4.847908
-4.852325
0.000000
0.000000
0.000000
0.000000
-0.288489
-0.520547
-0.758293
-0.992414
-1.223069
-1.449394
-1.670674
-1.886237
-2.095473
-2.297832
-2.492832
-2.680061
-2.859178
-3.029914
-3.192070
-3.345518
-3.490196
-3.626105
-3.753307
-3.871916
-3.982097
-4.084058
-4.178043
-4.264329
-4.343216
-4.415023
-4.480082
-4.538729
-4.591303
-4.638137
-4.679553
-4.715860
-4.747346
-4.774277
-4.796894
-4.815408
-4.829999
-4.840810
-4.847908
-4.852325
0.000000
0.000000
0.000000
0.000000
-0.288489
-0.520547
-0.758293
-0.992414
-1.223069
-1.449394
-1.670674
-1.886237
-2.095473
-2.297832
-2.492832
-2.680061
-2.859178
-3.029914
-3.192070
-3.345518
-3.490196
-3.626105
-3.753307
-3.871916
-3.982097
-4.084058
-4.178043
-4.264329
-4.343216
-4.415023
-4.480082
-4.538729
-4.591303
-4.638137
-4.679553
-4.715860
-4.747346
-4.774277
-4.796894
-4.815408
-4.829999
-4.840810
-4.847908
-4.852325
0.000000
0.000000
0.000000
0.000000
-0.288489
-0.520547
-0.758293
-0.992414
-1.223069
-1.449394
-1.670674
-1.886237
-2.095473
-2.297832
-2.492832
-2.680061
-2.859178
-3.029914
-3.192070
-3.345518
-3.490196
-3.626105
-3.753307
-3.871916
-3.982097
-4.084058
-4.178043
-4.264329
-4.343216
-4.415023
-4.480082
-4.538729
-4.591303
-4.638137
-4.679553
-4.715860
-4.747346
-4.774277
-4.796894
-4.815408
-4.829999
-4.840810
-4.847908
-4.852325
0.000000
0.000000
0.000000
0.000000
-0.288489
-0.520547
-0.758293
-0.992414
-1.223069
-1.449394
-1.670674
-1.886237
-2.095473
-2.297832
-2.492832
-2.680061
-2.859178
-3.029914
-3.192070
-3.345518
-3.490196
-3.626105
-3.753307
-3.871916
-3.982097
-4.084058
-4.178043
-4.264329
-4.343216
-4.415023
-4.480082
-4.538729
-4.591303
-4.638137
-4.679553
-4.715860
-4.747346
-4.774277
-4.796894
-4.815408
-4.829999
-4.840810
-4.847908
-4.852325
0.000000
0.000000
0.000000
0.000000
-0.288489
-0.520547
-0.758293
-0.992414
-1.223069
-1.449394
-1.670674
-1.886237
-2.095473
-2.297832
-2.492832
-2.680061
-2.859178
-3.029914
-3.192070
-3.345518
-3.490196
-3.626105
-3.753307
-3.871916
-3.982097
-4.084058
-4.178043
-4.264329
-4.343216
-4.415023
-4.480082
-4.538729
-4.591303
-4.638137
-4.679553
-4.715860
-4.747346
-4.774277
-4.796894
-4.815408
-4.829999
-4.840810
-4.847908
-4.852325
0.000000
0.000000
0.000000
0.000000
-0.288489
-0.520547
-0.758293
-0.992414
-1.223069
-1.449394
-1.670674
-1.886237
-2.095473
-2.297832
-2.492832
-2.680061
-2.859178
-3.029914
-3.192070
-3.345518
-3.490196
-3.626105
-3.753307
-3.871916
-3.982097
-4.084058
-4.178043
-4.264329
-4.343216
-4.415023
-4.480082
-4.538729
-4.591303
-4.638137
-4.679553
-4.715860
-4.747346
-4.774277
-4.796894
-4.815408
-4.829999
-4.840810
-4.847908
-4.852325
0.000000
0.000000
0.000000
0.000000
-0.288489
-0.520547
-0.758293
-0.992414
-1.223069
-1.449394
-1.670674
-1.886237
-2.095473
-2.297832
-2.492832
-2.680061
-2.859178
-3.029914
-3.192070
-3.345518
-3.490196
-3.626105
-3.753307
-3.871916
-3.982097
-4.084058
-4.178043
-4.264329
-4.343216
-4.415023
-4.480082
-4.538729
-4.591303
-4.638137
-4.679553
-4.715860
-4.747346
-4.774277
-4.796894
-4.815408
-4.829999
-4.840810
-4.847908
-4.852325
0.000000
0.000000
0.000000
0.000000
-0.288489
-0.520547
-0.758293
-0.992414
-1.223069
-1.449394
-1.670674
-1.886237
-2.095473
-2.297832
-2.492832
-2.680061
-2.859178
-3.029914
-3.192070
-3.345518
-3.490196
-3.626105
-3.753307
-3.871916
-3.982097
-4.084058
-4.178043
-4.264329
-4.343216
-4.415023
-4.480082
-4.538729
-4.591303
-4.638137
-4.679553
-4.715860
-4.747346
-4.774277
-4.796894
-4.815408
-4.829999