<?xml version='1.0' encoding='UTF-8'?>
<VTKFile xmlns='VTK' byte_order='LittleEndian' version='0.1' type='UnstructuredGrid'>
<UnstructuredGrid>
<Piece NumberOfCells='1888' NumberOfPoints='1888'>
<Points>
<DataArray NumberOfComponents='3' type='Float32' Name='Position' format='ascii'>
-0.040000 -0.030000 0.000000
-0.040000 -0.020000 0.000000
-0.040000 -0.010000 0.000000
-0.040000 0.000000 0.000000
-0.040000 0.010000 0.000000
-0.040000 0.020000 0.000000
-0.040000 0.030000 0.000000
-0.040000 0.040000 0.000000
-0.040000 0.050000 0.000000
-0.040000 0.060000 0.000000
-0.040000 0.070000 0.000000
-0.040000 0.080000 0.000000
-0.040000 0.090000 0.000000
-0.040000 0.100000 0.000000
-0.040000 0.110000 0.000000
-0.040000 0.120000 0.000000
-0.040000 0.130000 0.000000
-0.040000 0.140000 0.000000
-0.040000 0.150000 0.000000
-0.040000 0.160000 0.000000
-0.040000 0.170000 0.000000
-0.040000 0.180000 0.000000
-0.040000 0.190000 0.000000
-0.040000 0.200000 0.000000
-0.040000 0.210000 0.000000
-0.040000 0.220000 0.000000
-0.040000 0.230000 0.000000
-0.040000 0.240000 0.000000
-0.040000 0.250000 0.000000
-0.040000 0.260000 0.000000
-0.040000 0.270000 0.000000
-0.040000 0.280000 0.000000
-0.040000 0.290000 0.000000
-0.040000 0.300000 0.000000
-0.040000 0.310000 0.000000
-0.040000 0.320000 0.000000
-0.040000 0.330000 0.000000
-0.040000 0.340000 0.000000
-0.040000 0.350000 0.000000
-0.040000 0.360000 0.000000
-0.040000 0.370000 0.000000
-0.040000 0.380000 0.000000
-0.040000 0.390000 0.000000
-0.040000 0.400000 0.000000
0.010000 -0.030000 0.000000
0.010000 -0.020000 0.000000
0.010000 -0.010000 0.000000
0.010000 0.000000 0.000000
0.010000 0.010000 0.000000
0.010000 0.020000 0.000000
0.010000 0.030000 0.000000
0.010000 0.040000 0.000000
0.010000 0.050000 0.000000
0.010000 0.060000 0.000000
0.010000 0.070000 0.000000
0.010000 0.080000 0.000000
0.010000 0.090000 0.000000
0.010000 0.100000 0.000000
0.010000 0.110000 0.000000
0.010000 0.120000 0.000000
0.010000 0.130000 0.000000
0.010000 0.140000 0.000000
0.010000 0.150000 0.000000
0.010000 0.160000 0.000000
0.010000 0.170000 0.000000
0.010000 0.180000 0.000000
0.010000 0.190000 0.000000
0.010000 0.200000 0.000000
0.010000 0.210000 0.000000
0.010000 0.220000 0.000000
0.010000 0.230000 0.000000
0.010000 0.240000 0.000000
0.010000 0.250000 0.000000
0.010000 0.260000 0.000000
0.010000 0.270000 0.000000
0.010000 0.280000 0.000000
0.010000 0.290000 0.000000
0.010000 0.300000 0.000000
0.010000 0.310000 0.000000
0.010000 0.320000 0.000000
0.010000 0.330000 0.000000
0.010000 0.340000 0.000000
0.010000 0.350000 0.000000
0.010000 0.360000 0.000000
0.010000 0.370000 0.000000
0.010000 0.380000 0.000000
0.010000 0.390000 0.000000
0.010000 0.400000 0.000000
0.404000 0.410000 0.000000
0.404000 0.420000 0.000000
0.404000 0.430000 0.000000
0.404000 0.440000 0.000000
0.060000 -0.030000 0.000000
0.060000 -0.020000 0.000000
0.060000 -0.010000 0.000000
0.060000 0.000000 0.000000
0.060000 0.010000 0.000000
0.060000 0.020000 0.000000
0.060000 0.030000 0.000000
0.060000 0.040000 0.000000
0.060000 0.050000 0.000000
0.060000 0.060000 0.000000
0.060000 0.070000 0.000000
0.060000 0.080000 0.000000
0.060000 0.090000 0.000000
0.060000 0.100000 0.000000
0.060000 0.110000 0.000000
0.060000 0.120000 0.000000
0.060000 0.130000 0.000000
0.060000 0.140000 0.000000
0.060000 0.150000 0.000000
0.060000 0.160000 0.000000
0.060000 0.170000 0.000000
0.060000 0.180000 0.000000
0.060000 0.190000 0.000000
0.060000 0.200000 0.000000
0.060000 0.210000 0.000000
0.060000 0.220000 0.000000
0.060000 0.230000 0.000000
0.060000 0.240000 0.000000
0.060000 0.250000 0.000000
0.060000 0.260000 0.000000
0.060000 0.270000 0.000000
0.060000 0.280000 0.000000
0.060000 0.290000 0.000000
0.060000 0.300000 0.000000
0.060000 0.310000 0.000000
0.060000 0.320000 0.000000
0.060000 0.330000 0.000000
0.060000 0.340000 0.000000
0.060000 0.350000 0.000000
0.060000 0.360000 0.000000
0.060000 0.370000 0.000000
0.060000 0.380000 0.000000
0.060000 0.390000 0.000000
0.060000 0.400000 0.000000
0.454000 0.410000 0.000000
0.454000 0.420000 0.000000
0.454000 0.430000 0.000000
0.454000 0.440000 0.000000
0.110000 -0.030000 0.000000
0.110000 -0.020000 0.000000
0.110000 -0.010000 0.000000
0.110000 0.000000 0.000000
0.110000 0.010000 0.000000
0.110000 0.020000 0.000000
0.110000 0.030000 0.000000
0.110000 0.040000 0.000000
0.110000 0.050000 0.000000
0.110000 0.060000 0.000000
0.110000 0.070000 0.000000
0.110000 0.080000 0.000000
0.110000 0.090000 0.000000
0.110000 0.100000 0.000000
0.110000 0.110000 0.000000
0.110000 0.120000 0.000000
0.110000 0.130000 0.000000
0.110000 0.140000 0.000000
0.110000 0.150000 0.000000
0.110000 0.160000 0.000000
0.110000 0.170000 0.000000
0.110000 0.180000 0.000000
0.110000 0.190000 0.000000
0.110000 0.200000 0.000000
0.110000 0.210000 0.000000
0.110000 0.220000 0.000000
0.110000 0.230000 0.000000
0.110000 0.240000 0.000000
0.110000 0.250000 0.000000
0.110000 0.260000 0.000000
0.110000 0.270000 0.000000
0.110000 0.280000 0.000000
0.110000 0.290000 0.000000
0.110000 0.300000 0.000000
0.110000 0.310000 0.000000
0.110000 0.320000 0.000000
0.110000 0.330000 0.000000
0.110000 0.340000 0.000000
0.110000 0.350000 0.000000
0.110000 0.360000 0.000000
0.110000 0.370000 0.000000
0.110000 0.380000 0.000000
0.110000 0.390000 0.000000
0.110000 0.400000 0.000000
0.504000 0.410000 0.000000
0.504000 0.420000 0.000000
0.504000 0.430000 0.000000
0.504000 0.440000 0.000000
0.160000 -0.030000 0.000000
0.160000 -0.020000 0.000000
0.160000 -0.010000 0.000000
0.160000 0.000000 0.000000
0.160000 0.010000 0.000000
0.160000 0.020000 0.000000
0.160000 0.030000 0.000000
0.160000 0.040000 0.000000
0.160000 0.050000 0.000000
0.160000 0.060000 0.000000
0.160000 0.070000 0.000000
0.160000 0.080000 0.000000
0.160000 0.090000 0.000000
0.160000 0.100000 0.000000
0.160000 0.110000 0.000000
0.160000 0.120000 0.000000
0.160000 0.130000 0.000000
0.160000 0.140000 0.000000
0.160000 0.150000 0.000000
0.160000 0.160000 0.000000
0.160000 0.170000 0.000000
0.160000 0.180000 0.000000
0.160000 0.190000 0.000000
0.160000 0.200000 0.000000
0.160000 0.210000 0.000000
0.160000 0.220000 0.000000
0.160000 0.230000 0.000000
0.160000 0.240000 0.000000
0.160000 0.250000 0.000000
0.160000 0.260000 0.000000
0.160000 0.270000 0.000000
0.160000 0.280000 0.000000
0.160000 0.290000 0.000000
0.160000 0.300000 0.000000
0.160000 0.310000 0.000000
0.160000 0.320000 0.000000
0.160000 0.330000 0.000000
0.160000 0.340000 0.000000
0.160000 0.350000 0.000000
0.160000 0.360000 0.000000
0.160000 0.370000 0.000000
0.160000 0.380000 0.000000
0.160000 0.390000 0.000000
0.160000 0.400000 0.000000
0.554000 0.410000 0.000000
0.554000 0.420000 0.000000
0.554000 0.430000 0.000000
0.554000 0.440000 0.000000
0.210000 -0.030000 0.000000
0.210000 -0.020000 0.000000
0.210000 -0.010000 0.000000
0.210000 0.000000 0.000000
0.210000 0.010000 0.000000
0.210000 0.020000 0.000000
0.210000 0.030000 0.000000
0.210000 0.040000 0.000000
0.210000 0.050000 0.000000
0.210000 0.060000 0.000000
0.210000 0.070000 0.000000
0.210000 0.080000 0.000000
0.210000 0.090000 0.000000
0.210000 0.100000 0.000000
0.210000 0.110000 0.000000
0.210000 0.120000 0.000000
0.210000 0.130000 0.000000
0.210000 0.140000 0.000000
0.210000 0.150000 0.000000
0.210000 0.160000 0.000000
0.210000 0.170000 0.000000
0.210000 0.180000 0.000000
0.210000 0.190000 0.000000
0.210000 0.200000 0.000000
0.210000 0.210000 0.000000
0.210000 0.220000 0.000000
0.210000 0.230000 0.000000
0.210000 0.240000 0.000000
0.210000 0.250000 0.000000
0.210000 0.260000 0.000000
0.210000 0.270000 0.000000
0.210000 0.280000 0.000000
0.210000 0.290000 0.000000
0.210000 0.300000 0.000000
0.210000 0.310000 0.000000
0.210000 0.320000 0.000000
0.210000 0.330000 0.000000
0.210000 0.340000 0.000000
0.210000 0.350000 0.000000
0.210000 0.360000 0.000000
0.210000 0.370000 0.000000
0.210000 0.380000 0.000000
0.210000 0.390000 0.000000
0.210000 0.400000 0.000000
0.604000 0.410000 0.000000
0.604000 0.420000 0.000000
0.604000 0.430000 0.000000
0.604000 0.440000 0.000000
0.260000 -0.030000 0.000000
0.260000 -0.020000 0.000000
0.260000 -0.010000 0.000000
0.260000 0.000000 0.000000
0.260000 0.010000 0.000000
0.260000 0.020000 0.000000
0.260000 0.030000 0.000000
0.260000 0.040000 0.000000
0.260000 0.050000 0.000000
0.260000 0.060000 0.000000
0.260000 0.070000 0.000000
0.260000 0.080000 0.000000
0.260000 0.090000 0.000000
0.260000 0.100000 0.000000
0.260000 0.110000 0.000000
0.260000 0.120000 0.000000
0.260000 0.130000 0.000000
0.260000 0.140000 0.000000
0.260000 0.150000 0.000000
0.260000 0.160000 0.000000
0.260000 0.170000 0.000000
0.260000 0.180000 0.000000
0.260000 0.190000 0.000000
0.260000 0.200000 0.000000
0.260000 0.210000 0.000000
0.260000 0.220000 0.000000
0.260000 0.230000 0.000000
0.260000 0.240000 0.000000
0.260000 0.250000 0.000000
0.260000 0.260000 0.000000
0.260000 0.270000 0.000000
0.260000 0.280000 0.000000
0.260000 0.290000 0.000000
0.260000 0.300000 0.000000
0.260000 0.310000 0.000000
0.260000 0.320000 0.000000
0.260000 0.330000 0.000000
0.260000 0.340000 0.000000
0.260000 0.350000 0.000000
0.260000 0.360000 0.000000
0.260000 0.370000 0.000000
0.260000 0.380000 0.000000
0.260000 0.390000 0.000000
0.260000 0.400000 0.000000
0.654000 0.410000 0.000000
0.654000 0.420000 0.000000
0.654000 0.430000 0.000000
0.654000 0.440000 0.000000
0.310000 -0.030000 0.000000
0.310000 -0.020000 0.000000
0.310000 -0.010000 0.000000
0.310000 0.000000 0.000000
0.310000 0.010000 0.000000
0.310000 0.020000 0.000000
0.310000 0.030000 0.000000
0.310000 0.040000 0.000000
0.310000 0.050000 0.000000
0.310000 0.060000 0.000000
0.310000 0.070000 0.000000
0.310000 0.080000 0.000000
0.310000 0.090000 0.000000
0.310000 0.100000 0.000000
0.310000 0.110000 0.000000
0.310000 0.120000 0.000000
0.310000 0.130000 0.000000
0.310000 0.140000 0.000000
0.310000 0.150000 0.000000
0.310000 0.160000 0.000000
0.310000 0.170000 0.000000
0.310000 0.180000 0.000000
0.310000 0.190000 0.000000
0.310000 0.200000 0.000000
0.310000 0.210000 0.000000
[...]
<PointData>
<DataArray NumberOfComponents='1' type='Int32' Name='ParticleType' format='ascii'>
4
4
4
4
4
4
4
4
4
4
4
4
4
4
4
4
4
4
4
4
4
4
4
4
4
4
4
4
4
4
4
4
4
4
4
4
4
4
4
4
4
4
4
4
4
4
3
3
2
2
2
2
2
2
2
2
2
2
2
2
2
2
2
2
2
2
2
2
2
2
2
2
2
2
2
2
2
2
2
2
2
2
2
2
2
2
2
2
5
5
5
5
4
4
3
3
2
2
2
2
2
2
2
2
2
2
2
2
2
2
2
2
2
2
2
2
2
2
2
2
2
2
2
2
2
2
2
2
2
2
2
2
2
2
2
2
5
5
5
5
4
4
3
3
2
2
2
2
2
2
2
2
2
2
2
2
2
2
2
2
2
2
2
2
2
2
2
2
2
2
2
2
2
2
2
2
2
2
2
2
2
2
2
2
5
5
5
5
4
4
3
3
2
2
2
2
2
2
2
2
2
2
2
2
2
2
2
2
2
2
2
2
2
2
2
2
2
2
2
2
2
2
2
2
2
2
2
2
2
2
2
2
5
5
5
5
4
4
3
3
2
2
2
2
2
2
2
2
2
2
2
2
2
2
2
2
2
2
2
2
2
2
2
2
2
2
2
2
2
2
2
2
2
2
2
2
2
2
2
2
5
5
5
5
4
4
3
3
2
2
2
2
2
2
2
2
2
2
2
2
2
2
2
2
2
2
2
2
2
2
2
2
2
2
2
2
2
2
2
2
2
2
2
2
2
2
2
2
5
5
5
5
4
4
3
3
2
2
2
2
2
2
2
2
2
2
2
2
2
2
2
2
2
2
2
2
2
2
2
2
2
2
2
2
2
2
2
2
2
2
2
2
2
2
2
2
5
5
5
5
4
4
3
3
2
2
2
2
2
2
2
2
2
2
2
2
2
2
2
2
2
2
2
2
2
2
2
2
2
2
2
2
2
2
2
2
2
2
2
2
2
2
2
2
5
5
5
5
4
4
3
3
2
2
2
2
2
2
2
2
2
2
2
2
2
2
2
2
2
2
2
2
2
2
2
2
2
2
2
2
2
2
2
2
2
2
2
2
2
2
2
2
5
5
5
5
4
4
3
3
2
2
2
2
2
2
2
2
2
2
2
2
2
2
2
2
2
2
2
2
2
2
2
2
2
2
2
2
2
2
2
2
2
2
2
2
2
2
2
2
5
5
5
5
4
4
3
3
2
2
2
2
2
2
2
2
2
2
2
2
2
2
2
2
2
2
2
2
2
2
2
2
2
2
2
2
2
2
2
2
2
2
2
2
2
2
2
2
4
4
3
3
2
2
2
2
2
2
2
2
2
2
2
2
2
2
2
2
2
2
2
2
2
2
2
2
2
2
2
2
2
2
2
2
2
2
2
2
2
2
2
2
4
4
3
3
2
2
2
2
2
2
2
2
2
2
2
2
2
2
2
2
2
2
2
2
2
2
2
2
2
2
2
2
2
2
2
2
2
2
2
2
2
2
2
2
4
4
3
3
2
2
2
2
2
2
2
2
2
2
2
2
2
2
2
2
2
2
2
2
2
2
2
2
2
2
2
2
2
2
2
2
2
2
2
2
2
2
2
2
4
4
3
3
2
2
2
2
2
2
2
2
2
2
2
2
2
2
2
2
2
2
2
2
2
2
2
2
2
2
2
2
2
2
2
2
2
2
2
2
2
2
2
2
4
4
3
3
2
2
2
2
2
2
2
2
2
2
2
2
2
2
2
2
2
2
2
2
2
2
2
2
2
2
2
2
2
2
2
2
2
2
2
2
2
2
2
2
4
4
3
3
2
2
2
2
2
2
2
2
2
2
2
2
2
2
2
2
2
2
2
2
2
2
2
2
2
2
2
2
2
2
2
2
2
2
2
2
2
2
2
2
4
4
3
3
2
2
2
2
2
2
2
2
2
2
2
2
2
2
2
2
2
2
2
2
2
2
2
2
2
2
2
2
2
2
2
2
2
2
2
2
2
2
2
2
4
4
3
3
2
2
2
2
2
2
2
2
2
2
2
2
2
2
2
2
2
2
2
2
2
2
2
2
2
2
2
2
2
2
2
2
2
2
2
2
2
2
2
2
4
4
3
3
2
2
2
2
2
2
2
2
2
2
2
2
2
2
2
2
2
2
2
2
2
2
2
2
2
2
2
2
2
2
2
2
2
2
2
2
2
2
2
2
4
4
3
3
2
2
2
2
2
2
2
2
2
2
2
2
2
2
2
2
2
2
2
2
2
2
2
2
2
2
2
2
2
2
2
2
2
2
2
2
2
2
2
2
4
4
3
3
2
2
2
2
2
2
2
2
2
2
2
2
2
2
2
2
2
2
2
2
2
2
2
2
2
2
2
2
2
2
2
2
2
2
2
2
2
2
2
2
4
4
3
3
2
2
2
2
2
2
2
2
2
2
2
2
2
2
2
2
2
2
2
2
2
2
2
2
2
2
2
2
2
2
2
2
2
2
2
2
2
2
2
2
4
4
3
3
2
2
2
2
2
2
2
2
2
2
2
2
2
2
2
2
2
2
2
2
2
2
2
2
2
2
2
2
2
2
2
2
2
2
2
2
2
2
2
2
4
4
3
3
2
2
2
2
2
2
2
2
2
2
2
2
2
2
2
2
2
2
2
2
2
2
2
2
2
2
2
2
2
2
2
2
2
2
2
2
2
2
2
2
4
4
3
3
2
2
2
2
2
2
2
2
2
2
2
2
2
2
2
2
2
2
2
2
2
2
2
2
2
2
2
2
2
2
2
2
2
2
2
2
2
2
2
2
4
4
3
3
2
2
2
2
2
2
2
2
2
2
2
2
2
2
2
2
2
2
2
2
2
2
2
2
2
2
2
2
2
2
2
2
2
2
2
2
2
2
2
2
4
4
3
3
2
2
2
2
2
2
2
2
2
2
2
2
2
2
2
2
2
2
2
2
2
2
2
2
2
2
2
2
2
2
2
2
2
2
2
2
2
2
2
2
4
4
3
3
2
2
2
2
2
2
2
2
2
2
2
2
2
2
2
2
2
2
2
2
2
2
2
2
2
2
2
2
2
2
2
2
2
2
2
2
2
2
2
2
4
4
3
3
2
2
2
2
2
2
2
2
2
2
2
2
2
2
2
2
2
2
2
2
2
2
2
2
2
2
2
2
2
2
2
2
2
2
2
2
2
2
2
2
4
4
3
3
2
2
2
2
2
2
2
2
2
2
2
2
2
2
2
2
2
2
2
2
2
2
2
2
2
2
2
2
2
2
2
2
2
2
2
2
2
2
2
2
4
4
3
3
2
2
2
2
2
2
2
2
2
2
2
2
2
2
2
2
2
2
2
2
2
2
2
2
2
2
2
2
2
2
2
2
2
2
2
2
2
2
2
2
4
4
3
3
2
2
2
2
2
2
2
2
2
2
2
2
2
2
2
2
2
2
2
2
2
2
2
2
2
2
2
2
2
2
2
2
2
2
2
2
2
2
2
2
4
4
3
3
2
2
2
2
2
2
2
2
2
2
2
2
2
2
2
2
2
2
2
2
2
2
2
2
2
2
2
2
2
2
2
2
2
2
2
2
2
2
2
2
4
4
3
3
2
2
2
2
2
2
2
2
2
2
2
2
2
2
2
2
2
2
2
2
2
2
2
2
2
2
2
2
2
2
2
2
2
2
2
2
2
2
2
2
4
4
3
3
2
2
2
2
2
2
2
2
2
2
2
2
2
2
2
2
2
2
2
2
2
2
2
2
2
2
2
2
2
2
2
2
2
2
2
2
2
2
2
2
4
4
3
3
2
2
2
2
2
2
2
2
2
2
2
2
2
2
2
2
2
2
2
2
2
2
2
2
2
2
2
2
2
2
2
2
2
2
2
2
2
2
2
2
4
4
3
3
2
2
2
2
2
2
2
2
2
2
2
2
2
2
2
2
2
2
2
2
2
2
2
2
2
2
2
2
2
2
2
2
2
2
2
2
2
2
2
2
4
4
3
3
2
2
2
2
2
2
2
2
2
2
2
2
2
2
2
2
2
2
2
2
2
2
2
2
2
2
2
2
2
2
2
2
2
2
2
2
2
2
2
2
4
4
3
3
2
2
2
2
2
2
2
2
2
2
2
2
2
2
2
2
2
2
2
2
2
2
2
2
2
2
2
2
2
2
2
2
2
2
2
2
2
2
2
2
4
4
3
3
3
3
3
3
3
3
3
3
3
3
3
3
3
3
3
3
3
3
3
3
3
3
3
3
3
3
3
3
3
3
3
3
3
3
3
3
3
3
3
3
</DataArray>
<DataArray NumberOfComponents='1' type='Float32' Name='Temperature' format='ascii'>
0.000000
0.000000
0.000000
0.000000
0.000000
0.000000
0.000000
0.000000
0.000000
0.000000
0.000000
0.000000
0.000000
0.000000
0.000000
0.000000
0.000000
0.000000
0.000000
0.000000
0.000000
0.000000
0.000000
0.000000
0.000000
0.000000
0.000000
0.000000
0.000000
0.000000
0.000000
0.000000
0.000000
0.000000
0.000000
0.000000
0.000000
0.000000
0.000000
0.000000
0.000000
0.000000
0.000000
0.000000
0.000000
0.000000
0.000000
0.000000
-0.242022
-0.436906
-0.636908
-0.834366
-1.029550
-1.221860
-1.410806
-1.595915
-1.776747
-1.952893
-2.123979
-2.289670
-2.449667
-2.603712
-2.751587
-2.893112
-3.028151
-3.156602
-3.278404
-3.393529
-3.501983
-3.603804
-3.699056
-3.787831
-3.870239
-3.946410
-4.016489
-4.080632
-4.139001
-4.191762
-4.239083
-4.281128
-4.318052
-4.350005
-4.377122
-4.399524
-4.417316
-4.430582
-4.439330
-4.444794
-3.000000
-3.000000
-3.000000
-3.000000
0.000000
0.000000
0.000000
0.000000
-0.236653
-0.427163
-0.622589
-0.815401
-1.005827
-1.193244
-1.377140
-1.557026
-1.732445
-1.902976
-2.068235
-2.227882
-2.381616
-2.529181
-2.670366
-2.805005
-2.932974
-3.054194
-3.168627
-3.276275
-3.377176
-3.471406
-3.559068
-3.640297
-3.715250
-3.784104
-3.847054
-3.904306
-3.956072
-4.002570
-4.044015
-4.080619
-4.112582
-4.140095
-4.163332
-4.182446
-4.197572
-4.208817
-4.216217
-4.220830
-3.000000
-3.000000
-3.000000
-3.000000
0.000000
0.000000
0.000000
0.000000
-0.233436
-0.421310
-0.613957
-0.803912
-0.991368
-1.175680
-1.356313
-1.532757
-1.704538
-1.871217
-2.032399
-2.187734
-2.336916
-2.479686
-2.615835
-2.745203
-2.867676
-2.983190
-3.091727
-3.193312
-3.288013
-3.375936
-3.457225
-3.532051
-3.600618
-3.663148
-3.719885
-3.771084
-3.817011
-3.857932
-3.894116
-3.925821
-3.953297
-3.976778
-3.996477
-4.012585
-4.025267
-4.034656
-4.040816
-4.044647
-3.000000
-3.000000
-3.000000
-3.000000
0.000000
0.000000
0.000000
0.000000
-0.231522
-0.417813
-0.608767
-0.796947
-0.982514
-1.164796
-1.343235
-1.517297
-1.686484
-1.850340
-2.008452
-2.160452
-2.306022
-2.444896
-2.576859
-2.701750
-2.819459
-2.929931
-3.033162
-3.129196
-3.218127
-3.300092
-3.375270
-3.443875
-3.506156
-3.562387
-3.612866
-3.657907
-3.697835
-3.732979
-3.763666
-3.790219
-3.812944
-3.832131
-3.848046
-3.860925
-3.870973
-3.878356
-3.883173
-3.886154
-3.000000
-3.000000
-3.000000
-3.000000
0.000000
0.000000
0.000000
0.000000
-0.230595
-0.416108
-0.606206
-0.793457
-0.977993
-1.159119
-1.336251
-1.508829
-1.676332
-1.838277
-1.994226
-2.143789
-2.286627
-2.422453
-2.551035
-2.672199
-2.785828
-2.891863
-2.990301
-3.081198
-3.164661
-3.240854
-3.309986
-3.372313
-3.428131
-3.477772
-3.521595
-3.559986
-3.593343
-3.622075
-3.646591
-3.667295
-3.684575
-3.698800
-3.710308
-3.719404
-3.726349
-3.731361
-3.734585
-3.736558
-3.000000
-3.000000
-3.000000
-3.000000
0.000000
0.000000
0.000000
0.000000
-0.230319
-0.415591
-0.605411
-0.792339
-0.976489
-1.157148
-1.333714
-1.505603
-1.672271
-1.833208
-1.987948
-2.136069
-2.277201
-2.411023
-2.537270
-2.655736
-2.766273
-2.868794
-2.963275
-3.049755
-3.128335
-3.199179
-3.262510
-3.318611
-3.367815
-3.410510
-3.447122
-3.478118
-3.503993
-3.525260
-3.542445
-3.556072
-3.566655
-3.574687
-3.580626
-3.584889
-3.587837
-3.589772
-3.590920
-3.591572
-3.000000
-3.000000
-3.000000
-3.000000
0.000000
0.000000
0.000000
0.000000
-0.230293
-0.415541
-0.605328
-0.792213
-0.976305
-1.156885
-1.333342
-1.505083
-1.671550
-1.832218
-1.986600
-2.134251
-2.274769
-2.407799
-2.533037
-2.650226
-2.759168
-2.859718
-2.951792
-3.035365
-3.110479
-3.177239
-3.235822
-3.286473
-3.329510
-3.365324
-3.394376
-3.417193
-3.434367
-3.446545
-3.454415
-3.458696
-3.460122
-3.459420
-3.457291
-3.454390
-3.451301
-3.448519
-3.446451
-3.445040
-3.000000
-3.000000
-3.000000
-3.000000
0.000000
0.000000
0.000000
0.000000
-0.230293
-0.415540
-0.605328
-0.792212
-0.976304
-1.156883
-1.333338
-1.505076
-1.671539
-1.832199
-1.986568
-2.134199
-2.274684
-2.407663
-2.532820
-2.649886
-2.758642
-2.858913
-2.950576
-3.033552
-3.107811
-3.173366
-3.230276
-3.278646
-3.318624
-3.350413
-3.374268
-3.390515
-3.399563
-3.401925
-3.398243
-3.389313
-3.376105
-3.359775
-3.341654
-3.323210
-3.305971
-3.291421
-3.280948
-3.273935
-3.000000
-3.000000
-3.000000
-3.000000
0.000000
0.000000
0.000000
0.000000
-0.230293
-0.415540
-0.605328
-0.792212
-0.976304
-1.156883
-1.333338
-1.505076
-1.671539
-1.832199
-1.986568
-2.134199
-2.274684
-2.407663
-2.532820
-2.649886
-2.758642
-2.858913
-2.950576
-3.033552
-3.107810
-3.173365
-3.230274
-3.278641
-3.318613
-3.350388
-3.374214
-3.390399
-3.399319
-3.401424
-3.397240
-3.387350
-3.372360
-3.352815
-3.329070
-3.301103
-3.268216
-3.229263
-3.179547
-3.120302
-3.000000
-3.000000
-3.000000
-3.000000
0.000000
0.000000
0.000000
0.000000
-0.230293
-0.415540
-0.605328
-0.792212
-0.976304
-1.156883
-1.333338
-1.505076
-1.671539
-1.832199
-1.986568
-2.134199
-2.274684
-2.407663
-2.532820
-2.649886
-2.758642
-2.858913
-2.950576
-3.033552
-3.107810
-3.173365
-3.230274
-3.278641
-3.318613
-3.350388
-3.374214
-3.390399
-3.399319
-3.401424
-3.397240
-3.387350
-3.372360
-3.352815
-3.329070
-3.301103
-3.268216
-3.229263
-3.179547
-3.120302
-3.000000
-3.000000
-3.000000
-3.000000
0.000000
0.000000
0.000000
0.000000
-0.232695
-0.419880
-0.611663
-0.800526
-0.986585
-1.169115
-1.347500
-1.521142
-1.689474
-1.851963
-2.008113
-2.157466
-2.299606
-2.434160
-2.560802
-2.679252
-2.789275
-2.890686
-2.983347
-3.067168
-3.142104
-3.208157
-3.265374
-3.313848
-3.353718
-3.385173
-3.408456
-3.423876
-3.431811
-3.432718
-3.427134
-3.415663
-3.398927
-3.377489
-3.351706
-3.321538
-3.286226
-3.244533
-3.191438
-3.128240
0.000000
0.000000
0.000000
0.000000
-0.236914
-0.427512
-0.622824
-0.815208
-1.004794
-1.190853
-1.372765
-1.549927
-1.721761
-1.887725
-2.047307
-2.200033
-2.345466
-2.483213
-2.612922
-2.734286
-2.847041
-2.950972
-3.045910
-3.131733
-3.208362
-3.275769
-3.333970
-3.383028
-3.423057
-3.454224
-3.476756
-3.490952
-3.497190
-3.495938
-3.487755
-3.473275
-3.453160
-3.428001
-3.398167
-3.363577
-3.323346
-3.276054
-3.216011
-3.144656
0.000000
0.000000
0.000000
0.000000
-0.240907
-0.434752
-0.633445
-0.829243
-1.022297
-1.211886
-1.397394
-1.578218
-1.753781
-1.923530
-2.086943
-2.243529
-2.392831
-2.534429
-2.667940
-2.793020
-2.909370
-3.016728
-3.114881
-3.203656
-3.282926
-3.352610
-3.412675
-3.463133
-3.504052
-3.535559
-3.557845
-3.571184
-3.575943
-3.572591
-3.561706
-3.543955
-3.520038
-3.490586
-3.455975
-3.416076
-3.369847
-3.315637
-3.246924
-3.165332
0.000000
0.000000
0.000000
0.000000
-0.244246
-0.440827
-0.642413
-0.841188
-1.037343
-1.230177
-1.419093
-1.603503
-1.782838
-1.956550
-2.124112
-2.285024
-2.438809
-2.585023
-2.723246
-2.853096
-2.974219
-3.086299
-3.189055
-3.282243
-3.365659
-3.439143
-3.502574
-3.555883
-3.599054
-3.632136
-3.655252
-3.668620
-3.672564
-3.667536
-3.654118
-3.633001
-3.604928
-3.570566
-3.530298
-3.483931
-3.430215
-3.367207
-3.287302
-3.192386
0.000000
0.000000
0.000000
0.000000
-0.246442
-0.444856
-0.648430
-0.849329
-1.047793
-1.243160
-1.434872
-1.622375
-1.805129
-1.982611
-2.154312
-2.319741
-2.478422
-2.629899
-2.773734
-2.909504
-3.036809
-3.155268
-3.264519
-3.364225
-3.454073
-3.533779
-3.603090
-3.661794
-3.709729
-3.746797
-3.772981
-3.788372
-3.793192
-3.787817
-3.772786
-3.748785
-3.716577
-3.676853
-3.629985
-3.575677
-3.512393
-3.437787
-3.342780
-3.229652
0.000000
0.000000
0.000000
0.000000
-0.247320
-0.446495
-0.650940
-0.852839
-1.052478
-1.249244
-1.442629
-1.632130
-1.817265
-1.997567
-2.172583
-2.341878
-2.505027
-2.661617
-2.811242
-2.953500
-3.087990
-3.214308
-3.332044
-3.440781
-3.540092
-3.629544
-3.708701
-3.777132
-3.834426
-3.880213
-3.914193
-3.936173
-3.946108
-3.944141
-3.930624
-3.906112
-3.871282
-3.826761
-3.772822
-3.708955
-3.633155
-3.542459
-3.425602
-3.285531
0.000000
0.000000
0.000000
0.000000
-0.247429
-0.446707
-0.651284
-0.853358
-1.053234
-1.250321
-1.444142
-1.634234
-1.820162
-2.001517
-2.177921
-2.349024
-2.514504
-2.674065
-2.827432
-2.974345
-3.114551
-3.247794
-3.373801
-3.492265
-3.602834
-3.705092
-3.798543
-3.882607
-3.956621
-4.019848
-4.071512
-4.110844
-4.137149
-4.149878
-4.148689
-4.133473
-4.104291
-4.061183
-4.003798
-3.930848
-3.839178
-3.724521
-3.571686
-3.385012
0.000000
0.000000
0.000000
0.000000
-0.247430
-0.446708
-0.651287
-0.853363
-1.053241
-1.250334
-1.444164
-1.634271
-1.820225
-2.001622
-2.178094
-2.349306
-2.514958
-2.674787
-2.828569
-2.976113
-3.117267
-3.251915
-3.379973
-3.501391
-3.616150
-3.724258
-3.825744
-3.920662
-4.009073
-4.091041
-4.166611
-4.235775
-4.298415
-4.354203
-4.402440
-4.441796
-4.469935
-4.482981
-4.474849
-4.436549
-4.355189
-4.216335
-3.988646
-3.679647
0.000000
0.000000
0.000000
0.000000
-0.247430
-0.446708
-0.651287
-0.853363
-1.053241
-1.250334
-1.444164
-1.634271
-1.820225
-2.001622
-2.178094
-2.349306
-2.514958
-2.674787
-2.828569
-2.976113
-3.117267
-3.251915
-3.379973
-3.501393
-3.616154
-3.724265
-3.825762
-3.920703
-4.009164
-4.091242
-4.167045
-4.236693
-4.300312
-4.358033
-4.409989
-4.456310
-4.497123
-4.532546
-4.562689
-4.587650
-4.607513
-4.622347
-4.632141
-4.638263
0.000000
0.000000
0.000000
0.000000
-0.247430
-0.446708
-0.651287
-0.853363
-1.053241
-1.250334
-1.444164
-1.634271
-1.820225
-2.001622
-2.178094
-2.349306
-2.514958
-2.674787
-2.828569
-2.976113
-3.117267
-3.251915
-3.379973
-3.501393
-3.616154
-3.724265
-3.825762
-3.920703
-4.009164
-4.091242
-4.167045
-4.236693
-4.300312
-4.358033
-4.409989
-4.456310
-4.497123
-4.532546
-4.562689
-4.587650
-4.607513
-4.622347
-4.632141
-4.638263
0.000000
0.000000
0.000000
0.000000
-0.247430
-0.446708
-0.651287
-0.853363
-1.053241
-1.250334
-1.444164
-1.634271
-1.820225
-2.001622
-2.178094
-2.349306
-2.514958
-2.674787
-2.828569
-2.976113
-3.117267
-3.251915
-3.379973
-3.501393
-3.616154
-3.724265
-3.825762
-3.920703
-4.009164
-4.091242
-4.167045
-4.236693
-4.300312
-4.358033
-4.409989
-4.456310
-4.497123
-4.532546
-4.562689
-4.587650
-4.607513
-4.622347
-4.632141
-4.638263
0.000000
0.000000
0.000000
0.000000
-0.247430
-0.446708
-0.651287
-0.853363
-1.053241
-1.250334
-1.444164
-1.634271
-1.820225
-2.001622
-2.178094
-2.349306
-2.514958
-2.674787
-2.828569
-2.976113
-3.117267
-3.251915
-3.379973
-3.501393
-3.616154
-3.724265
-3.825762
-3.920703
-4.009164
-4.091242
-4.167045
-4.236693
-4.300312
-4.358033
-4.409989
-4.456310
-4.497123
-4.532546
-4.562689
-4.587650
-4.607513
-4.622347
-4.632141
-4.638263
0.000000
0.000000
0.000000
0.000000
-0.247430
-0.446708
-0.651287
-0.853363
-1.053241
-1.250334
-1.444164
-1.634271
-1.820225
-2.001622
-2.178094
-2.349306
-2.514958
-2.674787
-2.828569
-2.976113
-3.117267
-3.251915
-3.379973
-3.501393
-3.616154
-3.724265
-3.825762
-3.920703
-4.009164
-4.091242
-4.167045
-4.236693
-4.300312
-4.358033
-4.409989
-4.456310
-4.497123
-4.532546
-4.562689
-4.587650
-4.607513
-4.622347
-4.632141
-4.638263
0.000000
0.000000
0.000000
0.000000
-0.247430
-0.446708
-0.651287
-0.853363
-1.053241
-1.250334
-1.444164
-1.634271
-1.820225
-2.001622
-2.178094
-2.349306
-2.514958
-2.674787
-2.828569
-2.976113
-3.117267
-3.251915
-3.379973
-3.501393
-3.616154
-3.724265
-3.825762
-3.920703
-4.009164
-4.091242
-4.167045
-4.236693
-4.300312
-4.358033
-4.409989
-4.456310
-4.497123
-4.532546
-4.562689
-4.587650
-4.607513
-4.622347
-4.632141
-4.638263
0.000000
0.000000
0.000000
0.000000
-0.247430
-0.446708
-0.651287
-0.853363
-1.053241
-1.250334
-1.444164
-1.634271
-1.820225
-2.001622
-2.178094
-2.349306
-2.514958
-2.674787
-2.828569
-2.976113
-3.117267
-3.251915
-3.379973
-3.501393
-3.616154
-3.724265
-3.825762
-3.920703
-4.009164
-4.091242
-4.167045
-4.236693
-4.300312
-4.358033
-4.409989
-4.456310
-4.497123
-4.532546
-4.562689
-4.587650
-4.607513
-4.622347
-4.632141
-4.638263
0.000000
0.000000
0.000000
0.000000
-0.247430
-0.446708
-0.651287
-0.853363
-1.053241
-1.250334
-1.444164
-1.634271
-1.820225
-2.001622
-2.178094
-2.349306
-2.514958
-2.674787
-2.828569
-2.976113
-3.117267
-3.251915
-3.379973
-3.501393
-3.616154
-3.724265
-3.825762
-3.920703
-4.009164
-4.091242
-4.167045
-4.236693
-4.300312
-4.358033
-4.409989
-4.456310
-4.497123
-4.532546
-4.562689
-4.587650
-4.607513
-4.622347
-4.632141
-4.638263
0.000000
0.000000
0.000000
0.000000
-0.247430
-0.446708
-0.651287
-0.853363
-1.053241
-1.250334
-1.444164
-1.634271
-1.820225
-2.001622
-2.178094
-2.349306
-2.514958
-2.674787
-2.828569
-2.976113
-3.117267
-3.251915
-3.379973
-3.501393
-3.616154
-3.724265
-3.825762
-3.920703
-4.009164
-4.091242
-4.167045
-4.236693
-4.300312
-4.358033
-4.409989
-4.456310
-4.497123
-4.532546
-4.562689
-4.587650
-4.607513
-4.622347
-4.632141
-4.638263
0.000000
0.000000
0.000000
0.000000
-0.247430
-0.446708
-0.651287
-0.853363
-1.053241
-1.250334
-1.444164
-1.634271
-1.820225
-2.001622
-2.178094
-2.349306
-2.514958
-2.674787
-2.828569
-2.976113
-3.117267
-3.251915
-3.379973
-3.501393
-3.616154
-3.724265
-3.825762
-3.920703
-4.009164
-4.091242
-4.167045
-4.236693
-4.300312
-4.358033
-4.409989
-4.456310
-4.497123
-4.532546
-4.562689
-4.587650
-4.607513
-4.622347
-4.632141
-4.638263
0.000000
0.000000
0.000000
0.000000
-0.247430
-0.446708
-0.651287
-0.853363
-1.053241
-1.250334
-1.444164
-1.634271
-1.820225
-2.001622
-2.178094
-2.349306
-2.514958
-2.674787
-2.828569
-2.976113
-3.117267
-3.251915
-3.379973
-3.501393
-3.616154
-3.724265
-3.825762
-3.920703
-4.009164
-4.091242
-4.167045
-4.236693
-4.300312
-4.358033
-4.409989
-4.456310
-4.497123
-4.532546
-4.562689
-4.587650
-4.607513
-4.622347
-4.632141
-4.638263
0.000000
0.000000
0.000000
0.000000
-0.247430
-0.446708
-0.651287
-0.853363
-1.053241
-1.250334
-1.444164
-1.634271
-1.820225
-2.001622
-2.178094
-2.349306
-2.514958
-2.674787
-2.828569
-2.976113
-3.117267
-3.251915
-3.379973
-3.501393
-3.616154
-3.724265
-3.825762
-3.920703
-4.009164
-4.091242
-4.167045
-4.236693
-4.300312
-4.358033
-4.409989
-4.456310
-4.497123
-4.532546
-4.562689
-4.587650
-4.607513
-4.622347
-4.632141
-4.638263
0.000000
0.000000
0.000000
0.000000
-0.247430
-0.446708
-0.651287
-0.853363
-1.053241
-1.250334
-1.444164
-1.634271
-1.820225
-2.001622
-2.178094
-2.349306
-2.514958
-2.674787
-2.828569
-2.976113
-3.117267
-3.251915
-3.379973
-3.501393
-3.616154
-3.724265
-3.825762
-3.920703
-4.009164
-4.091242
-4.167045
-4.236693
-4.300312
-4.358033
-4.409989
-4.456310
-4.497123
-4.532546
-4.562689
-4.587650
-4.607513
-4.622347
-4.632141
-4.638263
0.000000
0.000000
0.000000
0.000000
-0.247430
-0.446708
-0.651287
-0.853363
-1.053241
-1.250334
-1.444164
-1.634271
-1.820225
-2.001622
-2.178094
-2.349306
-2.514958
-2.674787
-2.828569
-2.976113
-3.117267
-3.251915
-3.379973
-3.501393
-3.616154
-3.724265
-3.825762
-3.920703
-4.009164
-4.091242
-4.167045
-4.236693
-4.300312
-4.358033
-4.409989
-4.456310
-4.497123
-4.532546
-4.562689
-4.587650
-4.607513
-4.622347
-4.632141
-4.638263
0.000000
0.000000
0.000000
0.000000
-0.247430
-0.446708
-0.651287
-0.853363
-1.053241
-1.250334
-1.444164
-1.634271
-1.820225
-2.001622
-2.178094
-2.349306
-2.514958
-2.674787
-2.828569
-2.976113
-3.117267
-3.251915
-3.379973
-3.501393
-3.616154
-3.724265
-3.825762
-3.920703
-4.009164
-4.091242
-4.167045
-4.236693
-4.300312
-4.358033
-4.409989
-4.456310
-4.497123
-4.532546
-4.562689
-4.587650
-4.607513
-4.622347
-4.632141
-4.638263
0.000000
0.000000
0.000000
0.000000
-0.247430
-0.446708
-0.651287
-0.853363
-1.053241
-1.250334
-1.444164
-1.634271
-1.820225
-2.001622
-2.178094
-2.349306
-2.514958
-2.674787
-2.828569
-2.976113
-3.117267
-3.251915
-3.379973
-3.501393
-3.616154
-3.724265
-3.825762
-3.920703
-4.009164
-4.091242
-4.167045
-4.236693
-4.300312
-4.358033
-4.409989
-4.456310
-4.497123
-4.532546
-4.562689
-4.587650
-4.607513
-4.622347
-4.632141
-4.638263
0.000000
0.000000
0.000000
0.000000
-0.247430
-0.446708
-0.651287
-0.853363
-1.053241
-1.250334
-1.444164
-1.634271
-1.820225
-2.001622
-2.178094
-2.349306
-2.514958
-2.674787
-2.828569
-2.976113
-3.117267
-3.251915
-3.379973
-3.501393
-3.616154
-3.724265
-3.825762
-3.920703
-4.009164
-4.091242
-4.167045
-4.236693
-4.300312
-4.358033
-4.409989
-4.456310
-4.497123
-4.532546
-4.562689
-4.587650
-4.607513