<?xml version='1.0' encoding='UTF-8'?>
<VTKFile xmlns='VTK' byte_order='LittleEndian' version='0.1' type='UnstructuredGrid'>
<UnstructuredGrid>
<Piece NumberOfCells='1888' NumberOfPoints='1888'>
<Points>
<DataArray NumberOfComponents='3' type='Float32' Name='Position' format='ascii'>
-0.040000 -0.030000 0.000000
-0.040000 -0.020000 0.000000
-0.040000 -0.010000 0.000000
-0.040000 0.000000 0.000000
-0.040000 0.010000 0.000000
-0.040000 0.020000 0.000000
-0.040000 0.030000 0.000000
-0.040000 0.040000 0.000000
-0.040000 0.050000 0.000000
-0.040000 0.060000 0.000000
-0.040000 0.070000 0.000000
-0.040000 0.080000 0.000000
-0.040000 0.090000 0.000000
-0.040000 0.100000 0.000000
-0.040000 0.110000 0.000000
-0.040000 0.120000 0.000000
-0.040000 0.130000 0.000000
-0.040000 0.140000 0.000000
-0.040000 0.150000 0.000000
-0.040000 0.160000 0.000000
-0.040000 0.170000 0.000000
-0.040000 0.180000 0.000000
-0.040000 0.190000 0.000000
-0.040000 0.200000 0.000000
-0.040000 0.210000 0.000000
-0.040000 0.220000 0.000000
-0.040000 0.230000 0.000000
-0.040000 0.240000 0.000000
-0.040000 0.250000 0.000000
-0.040000 0.260000 0.000000
-0.040000 0.270000 0.000000
-0.040000 0.280000 0.000000
-0.040000 0.290000 0.000000
-0.040000 0.300000 0.000000
-0.040000 0.310000 0.000000
-0.040000 0.320000 0.000000
-0.040000 0.330000 0.000000
-0.040000 0.340000 0.000000
-0.040000 0.350000 0.000000
-0.040000 0.360000 0.000000
-0.040000 0.370000 0.000000
-0.040000 0.380000 0.000000
-0.040000 0.390000 0.000000
-0.040000 0.400000 0.000000
0.010000 -0.030000 0.000000
0.010000 -0.020000 0.000000
0.010000 -0.010000 0.000000
0.010000 0.000000 0.000000
0.010000 0.010000 0.000000
0.010000 0.020000 0.000000
0.010000 0.030000 0.000000
0.010000 0.040000 0.000000
0.010000 0.050000 0.000000
0.010000 0.060000 0.000000
0.010000 0.070000 0.000000
0.010000 0.080000 0.000000
0.010000 0.090000 0.000000
0.010000 0.100000 0.000000
0.010000 0.110000 0.000000
0.010000 0.120000 0.000000
0.010000 0.130000 0.000000
0.010000 0.140000 0.000000
0.010000 0.150000 0.000000
0.010000 0.160000 0.000000
0.010000 0.170000 0.000000
0.010000 0.180000 0.000000
0.010000 0.190000 0.000000
0.010000 0.200000 0.000000
0.010000 0.210000 0.000000
0.010000 0.220000 0.000000
0.010000 0.230000 0.000000
0.010000 0.240000 0.000000
0.010000 0.250000 0.000000
0.010000 0.260000 0.000000
0.010000 0.270000 0.000000
0.010000 0.280000 0.000000
0.010000 0.290000 0.000000
0.010000 0.300000 0.000000
0.010000 0.310000 0.000000
0.010000 0.320000 0.000000
0.010000 0.330000 0.000000
0.010000 0.340000 0.000000
0.010000 0.350000 0.000000
0.010000 0.360000 0.000000
0.010000 0.370000 0.000000
0.010000 0.380000 0.000000
0.010000 0.390000 0.000000
0.010000 0.400000 0.000000
0.368000 0.410000 0.000000
0.368000 0.420000 0.000000
0.368000 0.430000 0.000000
0.368000 0.440000 0.000000
0.060000 -0.030000 0.000000
0.060000 -0.020000 0.000000
0.060000 -0.010000 0.000000
0.060000 0.000000 0.000000
0.060000 0.010000 0.000000
0.060000 0.020000 0.000000
0.060000 0.030000 0.000000
0.060000 0.040000 0.000000
0.060000 0.050000 0.000000
0.060000 0.060000 0.000000
0.060000 0.070000 0.000000
0.060000 0.080000 0.000000
0.060000 0.090000 0.000000
0.060000 0.100000 0.000000
0.060000 0.110000 0.000000
0.060000 0.120000 0.000000
0.060000 0.130000 0.000000
0.060000 0.140000 0.000000
0.060000 0.150000 0.000000
0.060000 0.160000 0.000000
0.060000 0.170000 0.000000
0.060000 0.180000 0.000000
0.060000 0.190000 0.000000
0.060000 0.200000 0.000000
0.060000 0.210000 0.000000
0.060000 0.220000 0.000000
0.060000 0.230000 0.000000
0.060000 0.240000 0.000000
0.060000 0.250000 0.000000
0.060000 0.260000 0.000000
0.060000 0.270000 0.000000
0.060000 0.280000 0.000000
0.060000 0.290000 0.000000
0.060000 0.300000 0.000000
0.060000 0.310000 0.000000
0.060000 0.320000 0.000000
0.060000 0.330000 0.000000
0.060000 0.340000 0.000000
0.060000 0.350000 0.000000
0.060000 0.360000 0.000000
0.060000 0.370000 0.000000
0.060000 0.380000 0.000000
0.060000 0.390000 0.000000
0.060000 0.400000 0.000000
0.418000 0.410000 0.000000
0.418000 0.420000 0.000000
0.418000 0.430000 0.000000
0.418000 0.440000 0.000000
0.110000 -0.030000 0.000000
0.110000 -0.020000 0.000000
0.110000 -0.010000 0.000000
0.110000 0.000000 0.000000
0.110000 0.010000 0.000000
0.110000 0.020000 0.000000
0.110000 0.030000 0.000000
0.110000 0.040000 0.000000
0.110000 0.050000 0.000000
0.110000 0.060000 0.000000
0.110000 0.070000 0.000000
0.110000 0.080000 0.000000
0.110000 0.090000 0.000000
0.110000 0.100000 0.000000
0.110000 0.110000 0.000000
0.110000 0.120000 0.000000
0.110000 0.130000 0.000000
0.110000 0.140000 0.000000
0.110000 0.150000 0.000000
0.110000 0.160000 0.000000
0.110000 0.170000 0.000000
0.110000 0.180000 0.000000
0.110000 0.190000 0.000000
0.110000 0.200000 0.000000
0.110000 0.210000 0.000000
0.110000 0.220000 0.000000
0.110000 0.230000 0.000000
0.110000 0.240000 0.000000
0.110000 0.250000 0.000000
0.110000 0.260000 0.000000
0.110000 0.270000 0.000000
0.110000 0.280000 0.000000
0.110000 0.290000 0.000000
0.110000 0.300000 0.000000
0.110000 0.310000 0.000000
0.110000 0.320000 0.000000
0.110000 0.330000 0.000000
0.110000 0.340000 0.000000
0.110000 0.350000 0.000000
0.110000 0.360000 0.000000
0.110000 0.370000 0.000000
0.110000 0.380000 0.000000
0.110000 0.390000 0.000000
0.110000 0.400000 0.000000
0.468000 0.410000 0.000000
0.468000 0.420000 0.000000
0.468000 0.430000 0.000000
0.468000 0.440000 0.000000
0.160000 -0.030000 0.000000
0.160000 -0.020000 0.000000
0.160000 -0.010000 0.000000
0.160000 0.000000 0.000000
0.160000 0.010000 0.000000
0.160000 0.020000 0.000000
0.160000 0.030000 0.000000
0.160000 0.040000 0.000000
0.160000 0.050000 0.000000
0.160000 0.060000 0.000000
0.160000 0.070000 0.000000
0.160000 0.080000 0.000000
0.160000 0.090000 0.000000
0.160000 0.100000 0.000000
0.160000 0.110000 0.000000
0.160000 0.120000 0.000000
0.160000 0.130000 0.000000
0.160000 0.140000 0.000000
0.160000 0.150000 0.000000
0.160000 0.160000 0.000000
0.160000 0.170000 0.000000
0.160000 0.180000 0.000000
0.160000 0.190000 0.000000
0.160000 0.200000 0.000000
0.160000 0.210000 0.000000
0.160000 0.220000 0.000000
0.160000 0.230000 0.000000
0.160000 0.240000 0.000000
0.160000 0.250000 0.000000
0.160000 0.260000 0.000000
0.160000 0.270000 0.000000
0.160000 0.280000 0.000000
0.160000 0.290000 0.000000
0.160000 0.300000 0.000000
0.160000 0.310000 0.000000
0.160000 0.320000 0.000000
0.160000 0.330000 0.000000
0.160000 0.340000 0.000000
0.160000 0.350000 0.000000
0.160000 0.360000 0.000000
0.160000 0.370000 0.000000
0.160000 0.380000 0.000000
0.160000 0.390000 0.000000
0.160000 0.400000 0.000000
0.518000 0.410000 0.000000
0.518000 0.420000 0.000000
0.518000 0.430000 0.000000
0.518000 0.440000 0.000000
0.210000 -0.030000 0.000000
0.210000 -0.020000 0.000000
0.210000 -0.010000 0.000000
0.210000 0.000000 0.000000
0.210000 0.010000 0.000000
0.210000 0.020000 0.000000
0.210000 0.030000 0.000000
0.210000 0.040000 0.000000
0.210000 0.050000 0.000000
0.210000 0.060000 0.000000
0.210000 0.070000 0.000000
0.210000 0.080000 0.000000
0.210000 0.090000 0.000000
0.210000 0.100000 0.000000
0.210000 0.110000 0.000000
0.210000 0.120000 0.000000
0.210000 0.130000 0.000000
0.210000 0.140000 0.000000
0.210000 0.150000 0.000000
0.210000 0.160000 0.000000
0.210000 0.170000 0.000000
0.210000 0.180000 0.000000
0.210000 0.190000 0.000000
0.210000 0.200000 0.000000
0.210000 0.210000 0.000000
0.210000 0.220000 0.000000
0.210000 0.230000 0.000000
0.210000 0.240000 0.000000
0.210000 0.250000 0.000000
0.210000 0.260000 0.000000
0.210000 0.270000 0.000000
0.210000 0.280000 0.000000
0.210000 0.290000 0.000000
0.210000 0.300000 0.000000
0.210000 0.310000 0.000000
0.210000 0.320000 0.000000
0.210000 0.330000 0.000000
0.210000 0.340000 0.000000
0.210000 0.350000 0.000000
0.210000 0.360000 0.000000
0.210000 0.370000 0.000000
0.210000 0.380000 0.000000
0.210000 0.390000 0.000000
0.210000 0.400000 0.000000
0.568000 0.410000 0.000000
0.568000 0.420000 0.000000
0.568000 0.430000 0.000000
0.568000 0.440000 0.000000
0.260000 -0.030000 0.000000
0.260000 -0.020000 0.000000
0.260000 -0.010000 0.000000
0.260000 0.000000 0.000000
0.260000 0.010000 0.000000
0.260000 0.020000 0.000000
0.260000 0.030000 0.000000
0.260000 0.040000 0.000000
0.260000 0.050000 0.000000
0.260000 0.060000 0.000000
0.260000 0.070000 0.000000
0.260000 0.080000 0.000000
0.260000 0.090000 0.000000
0.260000 0.100000 0.000000
0.260000 0.110000 0.000000
0.260000 0.120000 0.000000
0.260000 0.130000 0.000000
0.260000 0.140000 0.000000
0.260000 0.150000 0.000000
0.260000 0.160000 0.000000
0.260000 0.170000 0.000000
0.260000 0.180000 0.000000
0.260000 0.190000 0.000000
0.260000 0.200000 0.000000
0.260000 0.210000 0.000000
0.260000 0.220000 0.000000
0.260000 0.230000 0.000000
0.260000 0.240000 0.000000
0.260000 0.250000 0.000000
0.260000 0.260000 0.000000
0.260000 0.270000 0.000000
0.260000 0.280000 0.000000
0.260000 0.290000 0.000000
0.260000 0.300000 0.000000
0.260000 0.310000 0.000000
0.260000 0.320000 0.000000
0.260000 0.330000 0.000000
0.260000 0.340000 0.000000
0.260000 0.350000 0.000000
0.260000 0.360000 0.000000
0.260000 0.370000 0.000000
0.260000 0.380000 0.000000
0.260000 0.390000 0.000000
0.260000 0.400000 0.000000
0.618000 0.410000 0.000000
0.618000 0.420000 0.000000
0.618000 0.430000 0.000000
0.618000 0.440000 0.000000
0.310000 -0.030000 0.000000
0.310000 -0.020000 0.000000
0.310000 -0.010000 0.000000
0.310000 0.000000 0.000000
0.310000 0.010000 0.000000
0.310000 0.020000 0.000000
0.310000 0.030000 0.000000
0.310000 0.040000 0.000000
0.310000 0.050000 0.000000
0.310000 0.060000 0.000000
0.310000 0.070000 0.000000
0.310000 0.080000 0.000000
0.310000 0.090000 0.000000
0.310000 0.100000 0.000000
0.310000 0.110000 0.000000
0.310000 0.120000 0.000000
0.310000 0.130000 0.000000
0.310000 0.140000 0.000000
0.310000 0.150000 0.000000
0.310000 0.160000 0.000000
0.310000 0.170000 0.000000
0.310000 0.180000 0.000000
0.310000 0.190000 0.000000
0.310000 0.200000 0.000000
0.310000 0.210000 0.000000
[...]
<PointData>
<DataArray NumberOfComponents='1' type='Int32' Name='ParticleType' format='ascii'>
4
4
4
4
4
4
4
4
4
4
4
4
4
4
4
4
4
4
4
4
4
4
4
4
4
4
4
4
4
4
4
4
4
4
4
4
4
4
4
4
4
4
4
4
4
4
3
3
2
2
2
2
2
2
2
2
2
2
2
2
2
2
2
2
2
2
2
2
2
2
2
2
2
2
2
2
2
2
2
2
2
2
2
2
2
2
2
2
5
5
5
5
4
4
3
3
2
2
2
2
2
2
2
2
2
2
2
2
2
2
2
2
2
2
2
2
2
2
2
2
2
2
2
2
2
2
2
2
2
2
2
2
2
2
2
2
5
5
5
5
4
4
3
3
2
2
2
2
2
2
2
2
2
2
2
2
2
2
2
2
2
2
2
2
2
2
2
2
2
2
2
2
2
2
2
2
2
2
2
2
2
2
2
2
5
5
5
5
4
4
3
3
2
2
2
2
2
2
2
2
2
2
2
2
2
2
2
2
2
2
2
2
2
2
2
2
2
2
2
2
2
2
2
2
2
2
2
2
2
2
2
2
5
5
5
5
4
4
3
3
2
2
2
2
2
2
2
2
2
2
2
2
2
2
2
2
2
2
2
2
2
2
2
2
2
2
2
2
2
2
2
2
2
2
2
2
2
2
2
2
5
5
5
5
4
4
3
3
2
2
2
2
2
2
2
2
2
2
2
2
2
2
2
2
2
2
2
2
2
2
2
2
2
2
2
2
2
2
2
2
2
2
2
2
2
2
2
2
5
5
5
5
4
4
3
3
2
2
2
2
2
2
2
2
2
2
2
2
2
2
2
2
2
2
2
2
2
2
2
2
2
2
2
2
2
2
2
2
2
2
2
2
2
2
2
2
5
5
5
5
4
4
3
3
2
2
2
2
2
2
2
2
2
2
2
2
2
2
2
2
2
2
2
2
2
2
2
2
2
2
2
2
2
2
2
2
2
2
2
2
2
2
2
2
5
5
5
5
4
4
3
3
2
2
2
2
2
2
2
2
2
2
2
2
2
2
2
2
2
2
2
2
2
2
2
2
2
2
2
2
2
2
2
2
2
2
2
2
2
2
2
2
5
5
5
5
4
4
3
3
2
2
2
2
2
2
2
2
2
2
2
2
2
2
2
2
2
2
2
2
2
2
2
2
2
2
2
2
2
2
2
2
2
2
2
2
2
2
2
2
5
5
5
5
4
4
3
3
2
2
2
2
2
2
2
2
2
2
2
2
2
2
2
2
2
2
2
2
2
2
2
2
2
2
2
2
2
2
2
2
2
2
2
2
2
2
2
2
4
4
3
3
2
2
2
2
2
2
2
2
2
2
2
2
2
2
2
2
2
2
2
2
2
2
2
2
2
2
2
2
2
2
2
2
2
2
2
2
2
2
2
2
4
4
3
3
2
2
2
2
2
2
2
2
2
2
2
2
2
2
2
2
2
2
2
2
2
2
2
2
2
2
2
2
2
2
2
2
2
2
2
2
2
2
2
2
4
4
3
3
2
2
2
2
2
2
2
2
2
2
2
2
2
2
2
2
2
2
2
2
2
2
2
2
2
2
2
2
2
2
2
2
2
2
2
2
2
2
2
2
4
4
3
3
2
2
2
2
2
2
2
2
2
2
2
2
2
2
2
2
2
2
2
2
2
2
2
2
2
2
2
2
2
2
2
2
2
2
2
2
2
2
2
2
4
4
3
3
2
2
2
2
2
2
2
2
2
2
2
2
2
2
2
2
2
2
2
2
2
2
2
2
2
2
2
2
2
2
2
2
2
2
2
2
2
2
2
2
4
4
3
3
2
2
2
2
2
2
2
2
2
2
2
2
2
2
2
2
2
2
2
2
2
2
2
2
2
2
2
2
2
2
2
2
2
2
2
2
2
2
2
2
4
4
3
3
2
2
2
2
2
2
2
2
2
2
2
2
2
2
2
2
2
2
2
2
2
2
2
2
2
2
2
2
2
2
2
2
2
2
2
2
2
2
2
2
4
4
3
3
2
2
2
2
2
2
2
2
2
2
2
2
2
2
2
2
2
2
2
2
2
2
2
2
2
2
2
2
2
2
2
2
2
2
2
2
2
2
2
2
4
4
3
3
2
2
2
2
2
2
2
2
2
2
2
2
2
2
2
2
2
2
2
2
2
2
2
2
2
2
2
2
2
2
2
2
2
2
2
2
2
2
2
2
4
4
3
3
2
2
2
2
2
2
2
2
2
2
2
2
2
2
2
2
2
2
2
2
2
2
2
2
2
2
2
2
2
2
2
2
2
2
2
2
2
2
2
2
4
4
3
3
2
2
2
2
2
2
2
2
2
2
2
2
2
2
2
2
2
2
2
2
2
2
2
2
2
2
2
2
2
2
2
2
2
2
2
2
2
2
2
2
4
4
3
3
2
2
2
2
2
2
2
2
2
2
2
2
2
2
2
2
2
2
2
2
2
2
2
2
2
2
2
2
2
2
2
2
2
2
2
2
2
2
2
2
4
4
3
3
2
2
2
2
2
2
2
2
2
2
2
2
2
2
2
2
2
2
2
2
2
2
2
2
2
2
2
2
2
2
2
2
2
2
2
2
2
2
2
2
4
4
3
3
2
2
2
2
2
2
2
2
2
2
2
2
2
2
2
2
2
2
2
2
2
2
2
2
2
2
2
2
2
2
2
2
2
2
2
2
2
2
2
2
4
4
3
3
2
2
2
2
2
2
2
2
2
2
2
2
2
2
2
2
2
2
2
2
2
2
2
2
2
2
2
2
2
2
2
2
2
2
2
2
2
2
2
2
4
4
3
3
2
2
2
2
2
2
2
2
2
2
2
2
2
2
2
2
2
2
2
2
2
2
2
2
2
2
2
2
2
2
2
2
2
2
2
2
2
2
2
2
4
4
3
3
2
2
2
2
2
2
2
2
2
2
2
2
2
2
2
2
2
2
2
2
2
2
2
2
2
2
2
2
2
2
2
2
2
2
2
2
2
2
2
2
4
4
3
3
2
2
2
2
2
2
2
2
2
2
2
2
2
2
2
2
2
2
2
2
2
2
2
2
2
2
2
2
2
2
2
2
2
2
2
2
2
2
2
2
4
4
3
3
2
2
2
2
2
2
2
2
2
2
2
2
2
2
2
2
2
2
2
2
2
2
2
2
2
2
2
2
2
2
2
2
2
2
2
2
2
2
2
2
4
4
3
3
2
2
2
2
2
2
2
2
2
2
2
2
2
2
2
2
2
2
2
2
2
2
2
2
2
2
2
2
2
2
2
2
2
2
2
2
2
2
2
2
4
4
3
3
2
2
2
2
2
2
2
2
2
2
2
2
2
2
2
2
2
2
2
2
2
2
2
2
2
2
2
2
2
2
2
2
2
2
2
2
2
2
2
2
4
4
3
3
2
2
2
2
2
2
2
2
2
2
2
2
2
2
2
2
2
2
2
2
2
2
2
2
2
2
2
2
2
2
2
2
2
2
2
2
2
2
2
2
4
4
3
3
2
2
2
2
2
2
2
2
2
2
2
2
2
2
2
2
2
2
2
2
2
2
2
2
2
2
2
2
2
2
2
2
2
2
2
2
2
2
2
2
4
4
3
3
2
2
2
2
2
2
2
2
2
2
2
2
2
2
2
2
2
2
2
2
2
2
2
2
2
2
2
2
2
2
2
2
2
2
2
2
2
2
2
2
4
4
3
3
2
2
2
2
2
2
2
2
2
2
2
2
2
2
2
2
2
2
2
2
2
2
2
2
2
2
2
2
2
2
2
2
2
2
2
2
2
2
2
2
4
4
3
3
2
2
2
2
2
2
2
2
2
2
2
2
2
2
2
2
2
2
2
2
2
2
2
2
2
2
2
2
2
2
2
2
2
2
2
2
2
2
2
2
4
4
3
3
2
2
2
2
2
2
2
2
2
2
2
2
2
2
2
2
2
2
2
2
2
2
2
2
2
2
2
2
2
2
2
2
2
2
2
2
2
2
2
2
4
4
3
3
2
2
2
2
2
2
2
2
2
2
2
2
2
2
2
2
2
2
2
2
2
2
2
2
2
2
2
2
2
2
2
2
2
2
2
2
2
2
2
2
4
4
3
3
2
2
2
2
2
2
2
2
2
2
2
2
2
2
2
2
2
2
2
2
2
2
2
2
2
2
2
2
2
2
2
2
2
2
2
2
2
2
2
2
4
4
3
3
3
3
3
3
3
3
3
3
3
3
3
3
3
3
3
3
3
3
3
3
3
3
3
3
3
3
3
3
3
3
3
3
3
3
3
3
3
3
3
3
</DataArray>
<DataArray NumberOfComponents='1' type='Float32' Name='Temperature' format='ascii'>
0.000000
0.000000
0.000000
0.000000
0.000000
0.000000
0.000000
0.000000
0.000000
0.000000
0.000000
0.000000
0.000000
0.000000
0.000000
0.000000
0.000000
0.000000
0.000000
0.000000
0.000000
0.000000
0.000000
0.000000
0.000000
0.000000
0.000000
0.000000
0.000000
0.000000
0.000000
0.000000
0.000000
0.000000
0.000000
0.000000
0.000000
0.000000
0.000000
0.000000
0.000000
0.000000
0.000000
0.000000
0.000000
0.000000
0.000000
0.000000
-0.254651
-0.459628
-0.669861
-0.877229
-1.081966
-1.283389
-1.480939
-1.674082
-1.862322
-2.045204
-2.222317
-2.393296
-2.557826
-2.715639
-2.866517
-3.010294
-3.146850
-3.276113
-3.398056
-3.512696
-3.620088
-3.720325
-3.813532
-3.899863
-3.979498
-4.052634
-4.119486
-4.180279
-4.235245
-4.284619
-4.328631
-4.367506
-4.401459
-4.430690
-4.455383
-4.475700
-4.491780
-4.503736
-4.511605
-4.516511
-3.000000
-3.000000
-3.000000
-3.000000
0.000000
0.000000
0.000000
0.000000
-0.249924
-0.451035
-0.657202
-0.860409
-1.060842
-1.257790
-1.450666
-1.638910
-1.822004
-1.999475
-2.170896
-2.335894
-2.494146
-2.645384
-2.789395
-2.926020
-3.055155
-3.176750
-3.290805
-3.397366
-3.496529
-3.588427
-3.673234
-3.751156
-3.822426
-3.887303
-3.946062
-3.998991
-4.046386
-4.088544
-4.125761
-4.158321
-4.186497
-4.210543
-4.230694
-4.247153
-4.260100
-4.269679
-4.275960
-4.279864
-3.000000
-3.000000
-3.000000
-3.000000
0.000000
0.000000
0.000000
0.000000
-0.247322
-0.446289
-0.650173
-0.851003
-1.048925
-1.243200
-1.433213
-1.618378
-1.798152
-1.972041
-2.139599
-2.300436
-2.454219
-2.600671
-2.739576
-2.870777
-2.994178
-3.109740
-3.217482
-3.317476
-3.409846
-3.494764
-3.572444
-3.643141
-3.707142
-3.764761
-3.816336
-3.862217
-3.902768
-3.938353
-3.969332
-3.996057
-4.018865
-4.038069
-4.053957
-4.066785
-4.076772
-4.084099
-4.088873
-4.091826
-3.000000
-3.000000
-3.000000
-3.000000
0.000000
0.000000
0.000000
0.000000
-0.245993
-0.443849
-0.646524
-0.846057
-1.042560
-1.235266
-1.423531
-1.606741
-1.784325
-1.955761
-2.120580
-2.278366
-2.428764
-2.571481
-2.706286
-2.833011
-2.951556
-3.061883
-3.164018
-3.258048
-3.344119
-3.422435
-3.493249
-3.556861
-3.613613
-3.663881
-3.708073
-3.746614
-3.779946
-3.808516
-3.832770
-3.853145
-3.870059
-3.883906
-3.895049
-3.903811
-3.910471
-3.915257
-3.918326
-3.920200
-3.000000
-3.000000
-3.000000
-3.000000
0.000000
0.000000
0.000000
0.000000
-0.245519
-0.442967
-0.645179
-0.844186
-1.040077
-1.232062
-1.419472
-1.601666
-1.778043
-1.948053
-2.111191
-2.267012
-2.415126
-2.555205
-2.686986
-2.810273
-2.924937
-3.030919
-3.128230
-3.216949
-3.297225
-3.369271
-3.433366
-3.489847
-3.539105
-3.581583
-3.617762
-3.648160
-3.673320
-3.693798
-3.710161
-3.722966
-3.732757
-3.740051
-3.745326
-3.749014
-3.751490
-3.753063
-3.753969
-3.754467
-3.000000
-3.000000
-3.000000
-3.000000
0.000000
0.000000
0.000000
0.000000
-0.245448
-0.442832
-0.644964
-0.843869
-1.039628
-1.231439
-1.418620
-1.600514
-1.776500
-1.946004
-2.108494
-2.263490
-2.410564
-2.549346
-2.679524
-2.800849
-2.913136
-3.016267
-3.110196
-3.194946
-3.270617
-3.337380
-3.395487
-3.445261
-3.487106
-3.521494
-3.548969
-3.570138
-3.585660
-3.596243
-3.602624
-3.605560
-3.605807
-3.604102
-3.601150
-3.597596
-3.594012
-3.590877
-3.588585
-3.587039
-3.000000
-3.000000
-3.000000
-3.000000
0.000000
0.000000
0.000000
0.000000
-0.245447
-0.442830
-0.644960
-0.843863
-1.039617
-1.231423
-1.418593
-1.600471
-1.776433
-1.945899
-2.108331
-2.263241
-2.410188
-2.548784
-2.678692
-2.799630
-2.911372
-3.013744
-3.106628
-3.189963
-3.263742
-3.328015
-3.382892
-3.428548
-3.465226
-3.493247
-3.513022
-3.525059
-3.529981
-3.528531
-3.521586
-3.510150
-3.495352
-3.478415
-3.460629
-3.443289
-3.427635
-3.414782
-3.405717
-3.399747
-3.000000
-3.000000
-3.000000
-3.000000
0.000000
0.000000
0.000000
0.000000
-0.245447
-0.442830
-0.644960
-0.843863
-1.039617
-1.231423
-1.418593
-1.600471
-1.776433
-1.945899
-2.108331
-2.263241
-2.410188
-2.548783
-2.678691
-2.799629
-2.911369
-3.013739
-3.106620
-3.189946
-3.263708
-3.327950
-3.382768
-3.428315
-3.464797
-3.492474
-3.511650
-3.522672
-3.525907
-3.521719
-3.510430
-3.492275
-3.467361
-3.435636
-3.396910
-3.350982
-3.297831
-3.238536
-3.172894
-3.106638
-3.000000
-3.000000
-3.000000
-3.000000
0.000000
0.000000
0.000000
0.000000
-0.245447
-0.442830
-0.644960
-0.843863
-1.039617
-1.231423
-1.418593
-1.600471
-1.776433
-1.945899
-2.108331
-2.263241
-2.410188
-2.548783
-2.678691
-2.799629
-2.911369
-3.013739
-3.106620
-3.189946
-3.263708
-3.327950
-3.382768
-3.428315
-3.464797
-3.492474
-3.511650
-3.522672
-3.525907
-3.521719
-3.510430
-3.492275
-3.467361
-3.435636
-3.396910
-3.350982
-3.297831
-3.238536
-3.172894
-3.106638
-3.000000
-3.000000
-3.000000
-3.000000
0.000000
0.000000
0.000000
0.000000
-0.245447
-0.442830
-0.644960
-0.843863
-1.039617
-1.231423
-1.418593
-1.600471
-1.776433
-1.945899
-2.108331
-2.263241
-2.410188
-2.548783
-2.678691
-2.799629
-2.911369
-3.013739
-3.106620
-3.189946
-3.263708
-3.327950
-3.382768
-3.428315
-3.464797
-3.492474
-3.511650
-3.522672
-3.525907
-3.521719
-3.510430
-3.492275
-3.467361
-3.435636
-3.396910
-3.350982
-3.297831
-3.238536
-3.172894
-3.106638
-3.000000
-3.000000
-3.000000
-3.000000
0.000000
0.000000
0.000000
0.000000
-0.247871
-0.447214
-0.651369
-0.852289
-1.050063
-1.243886
-1.433070
-1.616952
-1.794904
-1.966340
-2.130714
-2.287527
-2.436328
-2.576715
-2.708338
-2.830901
-2.944160
-3.047924
-3.142059
-3.226481
-3.301163
-3.366133
-3.421471
-3.467317
-3.503864
-3.531360
-3.550105
-3.560439
-3.562726
-3.557326
-3.544558
-3.524650
-3.497692
-3.463610
-3.422186
-3.373188
-3.316581
-3.253499
-3.183712
-3.113300
0.000000
0.000000
0.000000
0.000000
-0.251965
-0.454631
-0.662237
-0.866629
-1.067914
-1.265288
-1.458069
-1.645590
-1.827219
-2.002361
-2.170457
-2.330992
-2.483492
-2.627531
-2.762731
-2.888761
-3.005341
-3.112242
-3.209287
-3.296349
-3.373358
-3.440296
-3.497205
-3.544181
-3.581382
-3.609027
-3.627389
-3.636787
-3.637570
-3.630084
-3.614631
-3.591416
-3.560494
-3.521739
-3.474871
-3.419598
-3.355855
-3.284894
-3.206440
-3.127307
0.000000
0.000000
0.000000
0.000000
-0.255545
-0.461137
-0.671822
-0.879361
-1.083895
-1.284639
-1.480923
-1.672092
-1.857519
-2.036606
-2.208791
-2.373542
-2.530368
-2.678815
-2.818470
-2.948962
-3.069962
-3.181188
-3.282401
-3.373411
-3.454080
-3.524320
-3.584101
-3.633451
-3.672463
-3.701294
-3.720163
-3.729344
-3.729144
-3.719874
-3.701799
-3.675079
-3.639711
-3.595496
-3.542066
-3.479049
-3.406346
-3.325369
-3.235799
-3.145426
0.000000
0.000000
0.000000
0.000000
-0.258124
-0.465855
-0.678839
-0.888802
-1.095934
-1.299483
-1.498813
-1.693296
-1.882330
-2.065334
-2.241755
-2.411063
-2.572760
-2.726375
-2.871465
-3.007618
-3.134452
-3.251620
-3.358804
-3.455726
-3.542145
-3.617865
-3.682741
-3.736681
-3.779660
-3.811716
-3.832959
-3.843560
-3.843731
-3.833693
-3.813624
-3.783590
-3.743479
-3.692967
-3.631549
-3.558740
-3.474389
-3.380145
-3.275653
-3.170069
0.000000
0.000000
0.000000
0.000000
-0.259372
-0.468169
-0.682350
-0.893653
-1.102319
-1.307645
-1.509043
-1.705937
-1.897774
-2.084022
-2.264173
-2.437739
-2.604255
-2.763273
-2.914361
-3.057103
-3.191095
-3.315943
-3.431261
-3.536676
-3.631828
-3.716372
-3.789990
-3.852399
-3.903361
-3.942693
-3.970274
-3.986045
-3.989989
-3.982102
-3.962334
-3.930517
-3.886293
-3.829073
-3.758090
-3.672647
-3.572508
-3.459676
-3.333806
-3.206144
0.000000
0.000000
0.000000
0.000000
-0.259615
-0.468634
-0.683090
-0.894739
-1.103849
-1.309754
-1.511908
-1.709783
-1.902885
-2.090751
-2.272952
-2.449091
-2.618800
-2.781737
-2.937583
-3.086029
-3.226772
-3.359508
-3.483913
-3.599645
-3.706326
-3.803543
-3.890841
-3.967730
-4.033691
-4.088180
-4.130646
-4.160525
-4.177241
-4.180168
-4.168587
-4.141612
-4.098128
-4.036769
-3.956026
-3.854599
-3.731959
-3.590672
-3.430523
-3.266523
0.000000
0.000000
0.000000
0.000000
-0.259620
-0.468644
-0.683107
-0.894767
-1.103895
-1.309829
-1.512028
-1.709972
-1.903181
-2.091211
-2.273657
-2.450160
-2.620406
-2.784123
-2.941088
-3.091121
-3.234088
-3.369893
-3.498483
-3.619835
-3.733953
-3.840856
-3.940563
-4.033067
-4.118299
-4.196074
-4.266018
-4.327459
-4.379296
-4.419833
-4.446596
-4.456181
-4.444168
-4.405229
-4.333558
-4.223807
-4.072450
-3.881839
-3.651819
-3.407316
0.000000
0.000000
0.000000
0.000000
-0.259620
-0.468644
-0.683107
-0.894767
-1.103895
-1.309829
-1.512028
-1.709972
-1.903181
-2.091211
-2.273657
-2.450161
-2.620406
-2.784124
-2.941091
-3.091128
-3.234101
-3.369920
-3.498537
-3.619941
-3.734159
-3.841251
-3.941305
-4.034438
-4.120787
-4.200508
-4.273772
-4.340759
-4.401656
-4.456653
-4.505937
-4.549693
-4.588094
-4.621305
-4.649475
-4.672736
-4.691204
-4.704970
-4.714046
-4.719714
0.000000
0.000000
0.000000
0.000000
-0.259620
-0.468644
-0.683107
-0.894767
-1.103895
-1.309829
-1.512028
-1.709972
-1.903181
-2.091211
-2.273657
-2.450161
-2.620406
-2.784124
-2.941091
-3.091128
-3.234101
-3.369920
-3.498537
-3.619941
-3.734159
-3.841251
-3.941305
-4.034438
-4.120787
-4.200508
-4.273772
-4.340759
-4.401656
-4.456653
-4.505937
-4.549693
-4.588094
-4.621305
-4.649475
-4.672736
-4.691204
-4.704970
-4.714046
-4.719714
0.000000
0.000000
0.000000
0.000000
-0.259620
-0.468644
-0.683107
-0.894767
-1.103895
-1.309829
-1.512028
-1.709972
-1.903181
-2.091211
-2.273657
-2.450161
-2.620406
-2.784124
-2.941091
-3.091128
-3.234101
-3.369920
-3.498537
-3.619941
-3.734159
-3.841251
-3.941305
-4.034438
-4.120787
-4.200508
-4.273772
-4.340759
-4.401656
-4.456653
-4.505937
-4.549693
-4.588094
-4.621305
-4.649475
-4.672736
-4.691204
-4.704970
-4.714046
-4.719714
0.000000
0.000000
0.000000
0.000000
-0.259620
-0.468644
-0.683107
-0.894767
-1.103895
-1.309829
-1.512028
-1.709972
-1.903181
-2.091211
-2.273657
-2.450161
-2.620406
-2.784124
-2.941091
-3.091128
-3.234101
-3.369920
-3.498537
-3.619941
-3.734159
-3.841251
-3.941305
-4.034438
-4.120787
-4.200508
-4.273772
-4.340759
-4.401656
-4.456653
-4.505937
-4.549693
-4.588094
-4.621305
-4.649475
-4.672736
-4.691204
-4.704970
-4.714046
-4.719714
0.000000
0.000000
0.000000
0.000000
-0.259620
-0.468644
-0.683107
-0.894767
-1.103895
-1.309829
-1.512028
-1.709972
-1.903181
-2.091211
-2.273657
-2.450161
-2.620406
-2.784124
-2.941091
-3.091128
-3.234101
-3.369920
-3.498537
-3.619941
-3.734159
-3.841251
-3.941305
-4.034438
-4.120787
-4.200508
-4.273772
-4.340759
-4.401656
-4.456653
-4.505937
-4.549693
-4.588094
-4.621305
-4.649475
-4.672736
-4.691204
-4.704970
-4.714046
-4.719714
0.000000
0.000000
0.000000
0.000000
-0.259620
-0.468644
-0.683107
-0.894767
-1.103895
-1.309829
-1.512028
-1.709972
-1.903181
-2.091211
-2.273657
-2.450161
-2.620406
-2.784124
-2.941091
-3.091128
-3.234101
-3.369920
-3.498537
-3.619941
-3.734159
-3.841251
-3.941305
-4.034438
-4.120787
-4.200508
-4.273772
-4.340759
-4.401656
-4.456653
-4.505937
-4.549693
-4.588094
-4.621305
-4.649475
-4.672736
-4.691204
-4.704970
-4.714046
-4.719714
0.000000
0.000000
0.000000
0.000000
-0.259620
-0.468644
-0.683107
-0.894767
-1.103895
-1.309829
-1.512028
-1.709972
-1.903181
-2.091211
-2.273657
-2.450161
-2.620406
-2.784124
-2.941091
-3.091128
-3.234101
-3.369920
-3.498537
-3.619941
-3.734159
-3.841251
-3.941305
-4.034438
-4.120787
-4.200508
-4.273772
-4.340759
-4.401656
-4.456653
-4.505937
-4.549693
-4.588094
-4.621305
-4.649475
-4.672736
-4.691204
-4.704970
-4.714046
-4.719714
0.000000
0.000000
0.000000
0.000000
-0.259620
-0.468644
-0.683107
-0.894767
-1.103895
-1.309829
-1.512028
-1.709972
-1.903181
-2.091211
-2.273657
-2.450161
-2.620406
-2.784124
-2.941091
-3.091128
-3.234101
-3.369920
-3.498537
-3.619941
-3.734159
-3.841251
-3.941305
-4.034438
-4.120787
-4.200508
-4.273772
-4.340759
-4.401656
-4.456653
-4.505937
-4.549693
-4.588094
-4.621305
-4.649475
-4.672736
-4.691204
-4.704970
-4.714046
-4.719714
0.000000
0.000000
0.000000
0.000000
-0.259620
-0.468644
-0.683107
-0.894767
-1.103895
-1.309829
-1.512028
-1.709972
-1.903181
-2.091211
-2.273657
-2.450161
-2.620406
-2.784124
-2.941091
-3.091128
-3.234101
-3.369920
-3.498537
-3.619941
-3.734159
-3.841251
-3.941305
-4.034438
-4.120787
-4.200508
-4.273772
-4.340759
-4.401656
-4.456653
-4.505937
-4.549693
-4.588094
-4.621305
-4.649475
-4.672736
-4.691204
-4.704970
-4.714046
-4.719714
0.000000
0.000000
0.000000
0.000000
-0.259620
-0.468644
-0.683107
-0.894767
-1.103895
-1.309829
-1.512028
-1.709972
-1.903181
-2.091211
-2.273657
-2.450161
-2.620406
-2.784124
-2.941091
-3.091128
-3.234101
-3.369920
-3.498537
-3.619941
-3.734159
-3.841251
-3.941305
-4.034438
-4.120787
-4.200508
-4.273772
-4.340759
-4.401656
-4.456653
-4.505937
-4.549693
-4.588094
-4.621305
-4.649475
-4.672736
-4.691204
-4.704970
-4.714046
-4.719714
0.000000
0.000000
0.000000
0.000000
-0.259620
-0.468644
-0.683107
-0.894767
-1.103895
-1.309829
-1.512028
-1.709972
-1.903181
-2.091211
-2.273657
-2.450161
-2.620406
-2.784124
-2.941091
-3.091128
-3.234101
-3.369920
-3.498537
-3.619941
-3.734159
-3.841251
-3.941305
-4.034438
-4.120787
-4.200508
-4.273772
-4.340759
-4.401656
-4.456653
-4.505937
-4.549693
-4.588094
-4.621305
-4.649475
-4.672736
-4.691204
-4.704970
-4.714046
-4.719714
0.000000
0.000000
0.000000
0.000000
-0.259620
-0.468644
-0.683107
-0.894767
-1.103895
-1.309829
-1.512028
-1.709972
-1.903181
-2.091211
-2.273657
-2.450161
-2.620406
-2.784124
-2.941091
-3.091128
-3.234101
-3.369920
-3.498537
-3.619941
-3.734159
-3.841251
-3.941305
-4.034438
-4.120787
-4.200508
-4.273772
-4.340759
-4.401656
-4.456653
-4.505937
-4.549693
-4.588094
-4.621305
-4.649475
-4.672736
-4.691204
-4.704970
-4.714046
-4.719714
0.000000
0.000000
0.000000
0.000000
-0.259620
-0.468644
-0.683107
-0.894767
-1.103895
-1.309829
-1.512028
-1.709972
-1.903181
-2.091211
-2.273657
-2.450161
-2.620406
-2.784124
-2.941091
-3.091128
-3.234101
-3.369920
-3.498537
-3.619941
-3.734159
-3.841251
-3.941305
-4.034438
-4.120787
-4.200508
-4.273772
-4.340759
-4.401656
-4.456653
-4.505937
-4.549693
-4.588094
-4.621305
-4.649475
-4.672736
-4.691204
-4.704970
-4.714046
-4.719714
0.000000
0.000000
0.000000
0.000000
-0.259620
-0.468644
-0.683107
-0.894767
-1.103895
-1.309829
-1.512028
-1.709972
-1.903181
-2.091211
-2.273657
-2.450161
-2.620406
-2.784124
-2.941091
-3.091128
-3.234101
-3.369920
-3.498537
-3.619941
-3.734159
-3.841251
-3.941305
-4.034438
-4.120787
-4.200508
-4.273772
-4.340759
-4.401656
-4.456653
-4.505937
-4.549693
-4.588094
-4.621305
-4.649475
-4.672736
-4.691204
-4.704970
-4.714046
-4.719714
0.000000
0.000000
0.000000
0.000000
-0.259620
-0.468644
-0.683107
-0.894767
-1.103895
-1.309829
-1.512028
-1.709972
-1.903181
-2.091211
-2.273657
-2.450161
-2.620406
-2.784124
-2.941091
-3.091128
-3.234101
-3.369920
-3.498537
-3.619941
-3.734159
-3.841251
-3.941305
-4.034438
-4.120787
-4.200508
-4.273772
-4.340759
-4.401656
-4.456653
-4.505937
-4.549693
-4.588094
-4.621305
-4.649475
-4.672736
-4.691204
-4.704970
-4.714046
-4.719714
0.000000
0.000000
0.000000
0.000000
-0.259620
-0.468644
-0.683107
-0.894767
-1.103895
-1.309829
-1.512028
-1.709972
-1.903181
-2.091211
-2.273657
-2.450161
-2.620406
-2.784124
-2.941091
-3.091128
-3.234101
-3.369920
-3.498537
-3.619941
-3.734159
-3.841251
-3.941305
-4.034438
-4.120787
-4.200508
-4.273772
-4.340759
-4.401656
-4.456653
-4.505937
-4.549693
-4.588094
-4.621305
-4.649475
-4.672736
-4.691204
-4.704970
-4.714046
-4.719714
0.000000
0.000000
0.000000
0.000000
-0.259620
-0.468644
-0.683107
-0.894767
-1.103895
-1.309829
-1.512028
-1.709972
-1.903181
-2.091211
-2.273657
-2.450161
-2.620406
-2.784124
-2.941091
-3.091128
-3.234101
-3.369920
-3.498537
-3.619941
-3.734159
-3.841251
-3.941305
-4.034438
-4.120787
-4.200508
-4.273772
-4.340759
-4.401656
-4.456653
-4.505937
-4.549693
-4.588094
-4.621305
-4.649475
-4.672736
-4.691204
-4.704970
-4.714046
-4.719714
0.000000
0.000000
0.000000
0.000000
-0.259620
-0.468644
-0.683107
-0.894767
-1.103895
-1.309829
-1.512028
-1.709972
-1.903181
-2.091211
-2.273657
-2.450161
-2.620406
-2.784124
-2.941091
-3.091128
-3.234101
-3.369920
-3.498537
-3.619941
-3.734159
-3.841251
-3.941305
-4.034438
-4.120787
-4.200508
-4.273772
-4.340759
-4.401656
-4.456653
-4.505937
-4.549693
-4.588094
-4.621305
-4.649475
-4.672736
-4.691204