<?xml version='1.0' encoding='UTF-8'?>
<VTKFile xmlns='VTK' byte_order='LittleEndian' version='0.1' type='UnstructuredGrid'>
<UnstructuredGrid>
<Piece NumberOfCells='1888' NumberOfPoints='1888'>
<Points>
<DataArray NumberOfComponents='3' type='Float32' Name='Position' format='ascii'>
-0.040000 -0.030000 0.000000
-0.040000 -0.020000 0.000000
-0.040000 -0.010000 0.000000
-0.040000 0.000000 0.000000
-0.040000 0.010000 0.000000
-0.040000 0.020000 0.000000
-0.040000 0.030000 0.000000
-0.040000 0.040000 0.000000
-0.040000 0.050000 0.000000
-0.040000 0.060000 0.000000
-0.040000 0.070000 0.000000
-0.040000 0.080000 0.000000
-0.040000 0.090000 0.000000
-0.040000 0.100000 0.000000
-0.040000 0.110000 0.000000
-0.040000 0.120000 0.000000
-0.040000 0.130000 0.000000
-0.040000 0.140000 0.000000
-0.040000 0.150000 0.000000
-0.040000 0.160000 0.000000
-0.040000 0.170000 0.000000
-0.040000 0.180000 0.000000
-0.040000 0.190000 0.000000
-0.040000 0.200000 0.000000
-0.040000 0.210000 0.000000
-0.040000 0.220000 0.000000
-0.040000 0.230000 0.000000
-0.040000 0.240000 0.000000
-0.040000 0.250000 0.000000
-0.040000 0.260000 0.000000
-0.040000 0.270000 0.000000
-0.040000 0.280000 0.000000
-0.040000 0.290000 0.000000
-0.040000 0.300000 0.000000
-0.040000 0.310000 0.000000
-0.040000 0.320000 0.000000
-0.040000 0.330000 0.000000
-0.040000 0.340000 0.000000
-0.040000 0.350000 0.000000
-0.040000 0.360000 0.000000
-0.040000 0.370000 0.000000
-0.040000 0.380000 0.000000
-0.040000 0.390000 0.000000
-0.040000 0.400000 0.000000
0.010000 -0.030000 0.000000
0.010000 -0.020000 0.000000
0.010000 -0.010000 0.000000
0.010000 0.000000 0.000000
0.010000 0.010000 0.000000
0.010000 0.020000 0.000000
0.010000 0.030000 0.000000
0.010000 0.040000 0.000000
0.010000 0.050000 0.000000
0.010000 0.060000 0.000000
0.010000 0.070000 0.000000
0.010000 0.080000 0.000000
0.010000 0.090000 0.000000
0.010000 0.100000 0.000000
0.010000 0.110000 0.000000
0.010000 0.120000 0.000000
0.010000 0.130000 0.000000
0.010000 0.140000 0.000000
0.010000 0.150000 0.000000
0.010000 0.160000 0.000000
0.010000 0.170000 0.000000
0.010000 0.180000 0.000000
0.010000 0.190000 0.000000
0.010000 0.200000 0.000000
0.010000 0.210000 0.000000
0.010000 0.220000 0.000000
0.010000 0.230000 0.000000
0.010000 0.240000 0.000000
0.010000 0.250000 0.000000
0.010000 0.260000 0.000000
0.010000 0.270000 0.000000
0.010000 0.280000 0.000000
0.010000 0.290000 0.000000
0.010000 0.300000 0.000000
0.010000 0.310000 0.000000
0.010000 0.320000 0.000000
0.010000 0.330000 0.000000
0.010000 0.340000 0.000000
0.010000 0.350000 0.000000
0.010000 0.360000 0.000000
0.010000 0.370000 0.000000
0.010000 0.380000 0.000000
0.010000 0.390000 0.000000
0.010000 0.400000 0.000000
0.410000 0.410000 0.000000
0.410000 0.420000 0.000000
0.410000 0.430000 0.000000
0.410000 0.440000 0.000000
0.060000 -0.030000 0.000000
0.060000 -0.020000 0.000000
0.060000 -0.010000 0.000000
0.060000 0.000000 0.000000
0.060000 0.010000 0.000000
0.060000 0.020000 0.000000
0.060000 0.030000 0.000000
0.060000 0.040000 0.000000
0.060000 0.050000 0.000000
0.060000 0.060000 0.000000
0.060000 0.070000 0.000000
0.060000 0.080000 0.000000
0.060000 0.090000 0.000000
0.060000 0.100000 0.000000
0.060000 0.110000 0.000000
0.060000 0.120000 0.000000
0.060000 0.130000 0.000000
0.060000 0.140000 0.000000
0.060000 0.150000 0.000000
0.060000 0.160000 0.000000
0.060000 0.170000 0.000000
0.060000 0.180000 0.000000
0.060000 0.190000 0.000000
0.060000 0.200000 0.000000
0.060000 0.210000 0.000000
0.060000 0.220000 0.000000
0.060000 0.230000 0.000000
0.060000 0.240000 0.000000
0.060000 0.250000 0.000000
0.060000 0.260000 0.000000
0.060000 0.270000 0.000000
0.060000 0.280000 0.000000
0.060000 0.290000 0.000000
0.060000 0.300000 0.000000
0.060000 0.310000 0.000000
0.060000 0.320000 0.000000
0.060000 0.330000 0.000000
0.060000 0.340000 0.000000
0.060000 0.350000 0.000000
0.060000 0.360000 0.000000
0.060000 0.370000 0.000000
0.060000 0.380000 0.000000
0.060000 0.390000 0.000000
0.060000 0.400000 0.000000
0.460000 0.410000 0.000000
0.460000 0.420000 0.000000
0.460000 0.430000 0.000000
0.460000 0.440000 0.000000
0.110000 -0.030000 0.000000
0.110000 -0.020000 0.000000
0.110000 -0.010000 0.000000
0.110000 0.000000 0.000000
0.110000 0.010000 0.000000
0.110000 0.020000 0.000000
0.110000 0.030000 0.000000
0.110000 0.040000 0.000000
0.110000 0.050000 0.000000
0.110000 0.060000 0.000000
0.110000 0.070000 0.000000
0.110000 0.080000 0.000000
0.110000 0.090000 0.000000
0.110000 0.100000 0.000000
0.110000 0.110000 0.000000
0.110000 0.120000 0.000000
0.110000 0.130000 0.000000
0.110000 0.140000 0.000000
0.110000 0.150000 0.000000
0.110000 0.160000 0.000000
0.110000 0.170000 0.000000
0.110000 0.180000 0.000000
0.110000 0.190000 0.000000
0.110000 0.200000 0.000000
0.110000 0.210000 0.000000
0.110000 0.220000 0.000000
0.110000 0.230000 0.000000
0.110000 0.240000 0.000000
0.110000 0.250000 0.000000
0.110000 0.260000 0.000000
0.110000 0.270000 0.000000
0.110000 0.280000 0.000000
0.110000 0.290000 0.000000
0.110000 0.300000 0.000000
0.110000 0.310000 0.000000
0.110000 0.320000 0.000000
0.110000 0.330000 0.000000
0.110000 0.340000 0.000000
0.110000 0.350000 0.000000
0.110000 0.360000 0.000000
0.110000 0.370000 0.000000
0.110000 0.380000 0.000000
0.110000 0.390000 0.000000
0.110000 0.400000 0.000000
0.510000 0.410000 0.000000
0.510000 0.420000 0.000000
0.510000 0.430000 0.000000
0.510000 0.440000 0.000000
0.160000 -0.030000 0.000000
0.160000 -0.020000 0.000000
0.160000 -0.010000 0.000000
0.160000 0.000000 0.000000
0.160000 0.010000 0.000000
0.160000 0.020000 0.000000
0.160000 0.030000 0.000000
0.160000 0.040000 0.000000
0.160000 0.050000 0.000000
0.160000 0.060000 0.000000
0.160000 0.070000 0.000000
0.160000 0.080000 0.000000
0.160000 0.090000 0.000000
0.160000 0.100000 0.000000
0.160000 0.110000 0.000000
0.160000 0.120000 0.000000
0.160000 0.130000 0.000000
0.160000 0.140000 0.000000
0.160000 0.150000 0.000000
0.160000 0.160000 0.000000
0.160000 0.170000 0.000000
0.160000 0.180000 0.000000
0.160000 0.190000 0.000000
0.160000 0.200000 0.000000
0.160000 0.210000 0.000000
0.160000 0.220000 0.000000
0.160000 0.230000 0.000000
0.160000 0.240000 0.000000
0.160000 0.250000 0.000000
0.160000 0.260000 0.000000
0.160000 0.270000 0.000000
0.160000 0.280000 0.000000
0.160000 0.290000 0.000000
0.160000 0.300000 0.000000
0.160000 0.310000 0.000000
0.160000 0.320000 0.000000
0.160000 0.330000 0.000000
0.160000 0.340000 0.000000
0.160000 0.350000 0.000000
0.160000 0.360000 0.000000
0.160000 0.370000 0.000000
0.160000 0.380000 0.000000
0.160000 0.390000 0.000000
0.160000 0.400000 0.000000
0.560000 0.410000 0.000000
0.560000 0.420000 0.000000
0.560000 0.430000 0.000000
0.560000 0.440000 0.000000
0.210000 -0.030000 0.000000
0.210000 -0.020000 0.000000
0.210000 -0.010000 0.000000
0.210000 0.000000 0.000000
0.210000 0.010000 0.000000
0.210000 0.020000 0.000000
0.210000 0.030000 0.000000
0.210000 0.040000 0.000000
0.210000 0.050000 0.000000
0.210000 0.060000 0.000000
0.210000 0.070000 0.000000
0.210000 0.080000 0.000000
0.210000 0.090000 0.000000
0.210000 0.100000 0.000000
0.210000 0.110000 0.000000
0.210000 0.120000 0.000000
0.210000 0.130000 0.000000
0.210000 0.140000 0.000000
0.210000 0.150000 0.000000
0.210000 0.160000 0.000000
0.210000 0.170000 0.000000
0.210000 0.180000 0.000000
0.210000 0.190000 0.000000
0.210000 0.200000 0.000000
0.210000 0.210000 0.000000
0.210000 0.220000 0.000000
0.210000 0.230000 0.000000
0.210000 0.240000 0.000000
0.210000 0.250000 0.000000
0.210000 0.260000 0.000000
0.210000 0.270000 0.000000
0.210000 0.280000 0.000000
0.210000 0.290000 0.000000
0.210000 0.300000 0.000000
0.210000 0.310000 0.000000
0.210000 0.320000 0.000000
0.210000 0.330000 0.000000
0.210000 0.340000 0.000000
0.210000 0.350000 0.000000
0.210000 0.360000 0.000000
0.210000 0.370000 0.000000
0.210000 0.380000 0.000000
0.210000 0.390000 0.000000
0.210000 0.400000 0.000000
0.610000 0.410000 0.000000
0.610000 0.420000 0.000000
0.610000 0.430000 0.000000
0.610000 0.440000 0.000000
0.260000 -0.030000 0.000000
0.260000 -0.020000 0.000000
0.260000 -0.010000 0.000000
0.260000 0.000000 0.000000
0.260000 0.010000 0.000000
0.260000 0.020000 0.000000
0.260000 0.030000 0.000000
0.260000 0.040000 0.000000
0.260000 0.050000 0.000000
0.260000 0.060000 0.000000
0.260000 0.070000 0.000000
0.260000 0.080000 0.000000
0.260000 0.090000 0.000000
0.260000 0.100000 0.000000
0.260000 0.110000 0.000000
0.260000 0.120000 0.000000
0.260000 0.130000 0.000000
0.260000 0.140000 0.000000
0.260000 0.150000 0.000000
0.260000 0.160000 0.000000
0.260000 0.170000 0.000000
0.260000 0.180000 0.000000
0.260000 0.190000 0.000000
0.260000 0.200000 0.000000
0.260000 0.210000 0.000000
0.260000 0.220000 0.000000
0.260000 0.230000 0.000000
0.260000 0.240000 0.000000
0.260000 0.250000 0.000000
0.260000 0.260000 0.000000
0.260000 0.270000 0.000000
0.260000 0.280000 0.000000
0.260000 0.290000 0.000000
0.260000 0.300000 0.000000
0.260000 0.310000 0.000000
0.260000 0.320000 0.000000
0.260000 0.330000 0.000000
0.260000 0.340000 0.000000
0.260000 0.350000 0.000000
0.260000 0.360000 0.000000
0.260000 0.370000 0.000000
0.260000 0.380000 0.000000
0.260000 0.390000 0.000000
0.260000 0.400000 0.000000
0.660000 0.410000 0.000000
0.660000 0.420000 0.000000
0.660000 0.430000 0.000000
0.660000 0.440000 0.000000
0.310000 -0.030000 0.000000
0.310000 -0.020000 0.000000
0.310000 -0.010000 0.000000
0.310000 0.000000 0.000000
0.310000 0.010000 0.000000
0.310000 0.020000 0.000000
0.310000 0.030000 0.000000
0.310000 0.040000 0.000000
0.310000 0.050000 0.000000
0.310000 0.060000 0.000000
0.310000 0.070000 0.000000
0.310000 0.080000 0.000000
0.310000 0.090000 0.000000
0.310000 0.100000 0.000000
0.310000 0.110000 0.000000
0.310000 0.120000 0.000000
0.310000 0.130000 0.000000
0.310000 0.140000 0.000000
0.310000 0.150000 0.000000
0.310000 0.160000 0.000000
0.310000 0.170000 0.000000
0.310000 0.180000 0.000000
0.310000 0.190000 0.000000
0.310000 0.200000 0.000000
0.310000 0.210000 0.000000
[...]
<PointData>
<DataArray NumberOfComponents='1' type='Int32' Name='ParticleType' format='ascii'>
4
4
4
4
4
4
4
4
4
4
4
4
4
4
4
4
4
4
4
4
4
4
4
4
4
4
4
4
4
4
4
4
4
4
4
4
4
4
4
4
4
4
4
4
4
4
3
3
2
2
2
2
2
2
2
2
2
2
2
2
2
2
2
2
2
2
2
2
2
2
2
2
2
2
2
2
2
2
2
2
2
2
2
2
2
2
2
2
5
5
5
5
4
4
3
3
2
2
2
2
2
2
2
2
2
2
2
2
2
2
2
2
2
2
2
2
2
2
2
2
2
2
2
2
2
2
2
2
2
2
2
2
2
2
2
2
5
5
5
5
4
4
3
3
2
2
2
2
2
2
2
2
2
2
2
2
2
2
2
2
2
2
2
2
2
2
2
2
2
2
2
2
2
2
2
2
2
2
2
2
2
2
2
2
5
5
5
5
4
4
3
3
2
2
2
2
2
2
2
2
2
2
2
2
2
2
2
2
2
2
2
2
2
2
2
2
2
2
2
2
2
2
2
2
2
2
2
2
2
2
2
2
5
5
5
5
4
4
3
3
2
2
2
2
2
2
2
2
2
2
2
2
2
2
2
2
2
2
2
2
2
2
2
2
2
2
2
2
2
2
2
2
2
2
2
2
2
2
2
2
5
5
5
5
4
4
3
3
2
2
2
2
2
2
2
2
2
2
2
2
2
2
2
2
2
2
2
2
2
2
2
2
2
2
2
2
2
2
2
2
2
2
2
2
2
2
2
2
5
5
5
5
4
4
3
3
2
2
2
2
2
2
2
2
2
2
2
2
2
2
2
2
2
2
2
2
2
2
2
2
2
2
2
2
2
2
2
2
2
2
2
2
2
2
2
2
5
5
5
5
4
4
3
3
2
2
2
2
2
2
2
2
2
2
2
2
2
2
2
2
2
2
2
2
2
2
2
2
2
2
2
2
2
2
2
2
2
2
2
2
2
2
2
2
5
5
5
5
4
4
3
3
2
2
2
2
2
2
2
2
2
2
2
2
2
2
2
2
2
2
2
2
2
2
2
2
2
2
2
2
2
2
2
2
2
2
2
2
2
2
2
2
5
5
5
5
4
4
3
3
2
2
2
2
2
2
2
2
2
2
2
2
2
2
2
2
2
2
2
2
2
2
2
2
2
2
2
2
2
2
2
2
2
2
2
2
2
2
2
2
5
5
5
5
4
4
3
3
2
2
2
2
2
2
2
2
2
2
2
2
2
2
2
2
2
2
2
2
2
2
2
2
2
2
2
2
2
2
2
2
2
2
2
2
2
2
2
2
4
4
3
3
2
2
2
2
2
2
2
2
2
2
2
2
2
2
2
2
2
2
2
2
2
2
2
2
2
2
2
2
2
2
2
2
2
2
2
2
2
2
2
2
4
4
3
3
2
2
2
2
2
2
2
2
2
2
2
2
2
2
2
2
2
2
2
2
2
2
2
2
2
2
2
2
2
2
2
2
2
2
2
2
2
2
2
2
4
4
3
3
2
2
2
2
2
2
2
2
2
2
2
2
2
2
2
2
2
2
2
2
2
2
2
2
2
2
2
2
2
2
2
2
2
2
2
2
2
2
2
2
4
4
3
3
2
2
2
2
2
2
2
2
2
2
2
2
2
2
2
2
2
2
2
2
2
2
2
2
2
2
2
2
2
2
2
2
2
2
2
2
2
2
2
2
4
4
3
3
2
2
2
2
2
2
2
2
2
2
2
2
2
2
2
2
2
2
2
2
2
2
2
2
2
2
2
2
2
2
2
2
2
2
2
2
2
2
2
2
4
4
3
3
2
2
2
2
2
2
2
2
2
2
2
2
2
2
2
2
2
2
2
2
2
2
2
2
2
2
2
2
2
2
2
2
2
2
2
2
2
2
2
2
4
4
3
3
2
2
2
2
2
2
2
2
2
2
2
2
2
2
2
2
2
2
2
2
2
2
2
2
2
2
2
2
2
2
2
2
2
2
2
2
2
2
2
2
4
4
3
3
2
2
2
2
2
2
2
2
2
2
2
2
2
2
2
2
2
2
2
2
2
2
2
2
2
2
2
2
2
2
2
2
2
2
2
2
2
2
2
2
4
4
3
3
2
2
2
2
2
2
2
2
2
2
2
2
2
2
2
2
2
2
2
2
2
2
2
2
2
2
2
2
2
2
2
2
2
2
2
2
2
2
2
2
4
4
3
3
2
2
2
2
2
2
2
2
2
2
2
2
2
2
2
2
2
2
2
2
2
2
2
2
2
2
2
2
2
2
2
2
2
2
2
2
2
2
2
2
4
4
3
3
2
2
2
2
2
2
2
2
2
2
2
2
2
2
2
2
2
2
2
2
2
2
2
2
2
2
2
2
2
2
2
2
2
2
2
2
2
2
2
2
4
4
3
3
2
2
2
2
2
2
2
2
2
2
2
2
2
2
2
2
2
2
2
2
2
2
2
2
2
2
2
2
2
2
2
2
2
2
2
2
2
2
2
2
4
4
3
3
2
2
2
2
2
2
2
2
2
2
2
2
2
2
2
2
2
2
2
2
2
2
2
2
2
2
2
2
2
2
2
2
2
2
2
2
2
2
2
2
4
4
3
3
2
2
2
2
2
2
2
2
2
2
2
2
2
2
2
2
2
2
2
2
2
2
2
2
2
2
2
2
2
2
2
2
2
2
2
2
2
2
2
2
4
4
3
3
2
2
2
2
2
2
2
2
2
2
2
2
2
2
2
2
2
2
2
2
2
2
2
2
2
2
2
2
2
2
2
2
2
2
2
2
2
2
2
2
4
4
3
3
2
2
2
2
2
2
2
2
2
2
2
2
2
2
2
2
2
2
2
2
2
2
2
2
2
2
2
2
2
2
2
2
2
2
2
2
2
2
2
2
4
4
3
3
2
2
2
2
2
2
2
2
2
2
2
2
2
2
2
2
2
2
2
2
2
2
2
2
2
2
2
2
2
2
2
2
2
2
2
2
2
2
2
2
4
4
3
3
2
2
2
2
2
2
2
2
2
2
2
2
2
2
2
2
2
2
2
2
2
2
2
2
2
2
2
2
2
2
2
2
2
2
2
2
2
2
2
2
4
4
3
3
2
2
2
2
2
2
2
2
2
2
2
2
2
2
2
2
2
2
2
2
2
2
2
2
2
2
2
2
2
2
2
2
2
2
2
2
2
2
2
2
4
4
3
3
2
2
2
2
2
2
2
2
2
2
2
2
2
2
2
2
2
2
2
2
2
2
2
2
2
2
2
2
2
2
2
2
2
2
2
2
2
2
2
2
4
4
3
3
2
2
2
2
2
2
2
2
2
2
2
2
2
2
2
2
2
2
2
2
2
2
2
2
2
2
2
2
2
2
2
2
2
2
2
2
2
2
2
2
4
4
3
3
2
2
2
2
2
2
2
2
2
2
2
2
2
2
2
2
2
2
2
2
2
2
2
2
2
2
2
2
2
2
2
2
2
2
2
2
2
2
2
2
4
4
3
3
2
2
2
2
2
2
2
2
2
2
2
2
2
2
2
2
2
2
2
2
2
2
2
2
2
2
2
2
2
2
2
2
2
2
2
2
2
2
2
2
4
4
3
3
2
2
2
2
2
2
2
2
2
2
2
2
2
2
2
2
2
2
2
2
2
2
2
2
2
2
2
2
2
2
2
2
2
2
2
2
2
2
2
2
4
4
3
3
2
2
2
2
2
2
2
2
2
2
2
2
2
2
2
2
2
2
2
2
2
2
2
2
2
2
2
2
2
2
2
2
2
2
2
2
2
2
2
2
4
4
3
3
2
2
2
2
2
2
2
2
2
2
2
2
2
2
2
2
2
2
2
2
2
2
2
2
2
2
2
2
2
2
2
2
2
2
2
2
2
2
2
2
4
4
3
3
2
2
2
2
2
2
2
2
2
2
2
2
2
2
2
2
2
2
2
2
2
2
2
2
2
2
2
2
2
2
2
2
2
2
2
2
2
2
2
2
4
4
3
3
2
2
2
2
2
2
2
2
2
2
2
2
2
2
2
2
2
2
2
2
2
2
2
2
2
2
2
2
2
2
2
2
2
2
2
2
2
2
2
2
4
4
3
3
2
2
2
2
2
2
2
2
2
2
2
2
2
2
2
2
2
2
2
2
2
2
2
2
2
2
2
2
2
2
2
2
2
2
2
2
2
2
2
2
4
4
3
3
3
3
3
3
3
3
3
3
3
3
3
3
3
3
3
3
3
3
3
3
3
3
3
3
3
3
3
3
3
3
3
3
3
3
3
3
3
3
3
3
</DataArray>
<DataArray NumberOfComponents='1' type='Float32' Name='Temperature' format='ascii'>
0.000000
0.000000
0.000000
0.000000
0.000000
0.000000
0.000000
0.000000
0.000000
0.000000
0.000000
0.000000
0.000000
0.000000
0.000000
0.000000
0.000000
0.000000
0.000000
0.000000
0.000000
0.000000
0.000000
0.000000
0.000000
0.000000
0.000000
0.000000
0.000000
0.000000
0.000000
0.000000
0.000000
0.000000
0.000000
0.000000
0.000000
0.000000
0.000000
0.000000
0.000000
0.000000
0.000000
0.000000
0.000000
0.000000
0.000000
0.000000
-0.240087
-0.433423
-0.631855
-0.827789
-1.021502
-1.212404
-1.400015
-1.583873
-1.763545
-1.938629
-2.108757
-2.273596
-2.432853
-2.586271
-2.733630
-2.874751
-3.009495
-3.137756
-3.259467
-3.374595
-3.483140
-3.585131
-3.680624
-3.769701
-3.852463
-3.929029
-3.999536
-4.064127
-4.122956
-4.176179
-4.223954
-4.266435
-4.303771
-4.336102
-4.363557
-4.386250
-4.404281
-4.417730
-4.426602
-4.432144
-3.000000
-3.000000
-3.000000
-3.000000
0.000000
0.000000
0.000000
0.000000
-0.234625
-0.423514
-0.617297
-0.808516
-0.997406
-1.183356
-1.365866
-1.544457
-1.718681
-1.888124
-2.052409
-2.211201
-2.364202
-2.511160
-2.651862
-2.786141
-2.913872
-3.034971
-3.149395
-3.257139
-3.358235
-3.452747
-3.540771
-3.622430
-3.697871
-3.767260
-3.830778
-3.888620
-3.940987
-3.988083
-4.030115
-4.067280
-4.099771
-4.127769
-4.151437
-4.170923
-4.186354
-4.197833
-4.205390
-4.210103
-3.000000
-3.000000
-3.000000
-3.000000
0.000000
0.000000
0.000000
0.000000
-0.231316
-0.417495
-0.608424
-0.796716
-0.982568
-1.165351
-1.344541
-1.519639
-1.690180
-1.855736
-2.015919
-2.170383
-2.318826
-2.460994
-2.596678
-2.725715
-2.847993
-2.963441
-3.072036
-3.173798
-3.268785
-3.357094
-3.438858
-3.514237
-3.583422
-3.646622
-3.704068
-3.756001
-3.802671
-3.844333
-3.881240
-3.913639
-3.941766
-3.965844
-3.986075
-4.002642
-4.015701
-4.025379
-4.031732
-4.035686
-3.000000
-3.000000
-3.000000
-3.000000
0.000000
0.000000
0.000000
0.000000
-0.229308
-0.413830
-0.602989
-0.789431
-0.973321
-1.154004
-1.330933
-1.503588
-1.671480
-1.834163
-1.991232
-2.142327
-2.287136
-2.425394
-2.556891
-2.681464
-2.799003
-2.909450
-3.012795
-3.109077
-3.198381
-3.280834
-3.356604
-3.425892
-3.488934
-3.545988
-3.597338
-3.643279
-3.684122
-3.720177
-3.751757
-3.779166
-3.802697
-3.822625
-3.839200
-3.852649
-3.863166
-3.870909
-3.875967
-3.879102
-3.000000
-3.000000
-3.000000
-3.000000
0.000000
0.000000
0.000000
0.000000
-0.228299
-0.411976
-0.600210
-0.785653
-0.968442
-1.147898
-1.323448
-1.494548
-1.660686
-1.821389
-1.976232
-2.124830
-2.266853
-2.402019
-2.530100
-2.650925
-2.764377
-2.870396
-2.968977
-3.060170
-3.144076
-3.220848
-3.290686
-3.353833
-3.410569
-3.461209
-3.506097
-3.545596
-3.580087
-3.609956
-3.635592
-3.657377
-3.675679
-3.690847
-3.703201
-3.713028
-3.720578
-3.726054
-3.729590
-3.731762
-3.000000
-3.000000
-3.000000
-3.000000
0.000000
0.000000
0.000000
0.000000
-0.227974
-0.411369
-0.599280
-0.784351
-0.966701
-1.145633
-1.320554
-1.490896
-1.656124
-1.815739
-1.969286
-2.116354
-2.256579
-2.389650
-2.515309
-2.633354
-2.743642
-2.846090
-2.940675
-3.027435
-3.106469
-3.177935
-3.242049
-3.299083
-3.349358
-3.393243
-3.431148
-3.463516
-3.490817
-3.513538
-3.532176
-3.547225
-3.559169
-3.568471
-3.575561
-3.580827
-3.584609
-3.587188
-3.588772
-3.589702
-3.000000
-3.000000
-3.000000
-3.000000
0.000000
0.000000
0.000000
0.000000
-0.227937
-0.411296
-0.599163
-0.784176
-0.966449
-1.145277
-1.320058
-1.490213
-1.655191
-1.814478
-1.967596
-2.114106
-2.253617
-2.385780
-2.510296
-2.626919
-2.735455
-2.835768
-2.927779
-3.011472
-3.086894
-3.154157
-3.213440
-3.264992
-3.309131
-3.346241
-3.376772
-3.401237
-3.420204
-3.434288
-3.444140
-3.450434
-3.453852
-3.455065
-3.454719
-3.453410
-3.451669
-3.449944
-3.448599
-3.447653
-3.000000
-3.000000
-3.000000
-3.000000
0.000000
0.000000
0.000000
0.000000
-0.227936
-0.411296
-0.599162
-0.784174
-0.966446
-1.145272
-1.320050
-1.490198
-1.655168
-1.814440
-1.967534
-2.114009
-2.253463
-2.385541
-2.509929
-2.626361
-2.734617
-2.834525
-2.925959
-3.008838
-3.083132
-3.148855
-3.206068
-3.254882
-3.295462
-3.328031
-3.352877
-3.370369
-3.380968
-3.385242
-3.383884
-3.377723
-3.367728
-3.355000
-3.340744
-3.326228
-3.312711
-3.301361
-3.293233
-3.287816
-3.000000
-3.000000
-3.000000
-3.000000
0.000000
0.000000
0.000000
0.000000
-0.227936
-0.411296
-0.599162
-0.784174
-0.966446
-1.145272
-1.320050
-1.490198
-1.655168
-1.814440
-1.967534
-2.114009
-2.253463
-2.385541
-2.509929
-2.626361
-2.734617
-2.834525
-2.925958
-3.008837
-3.083129
-3.148848
-3.206053
-3.254851
-3.295399
-3.327903
-3.352625
-3.369883
-3.380047
-3.383536
-3.380791
-3.372244
-3.358247
-3.338991
-3.314394
-3.284003
-3.246926
-3.201995
-3.147635
-3.086338
-3.000000
-3.000000
-3.000000
-3.000000
0.000000
0.000000
0.000000
0.000000
-0.227936
-0.411296
-0.599162
-0.784174
-0.966446
-1.145272
-1.320050
-1.490198
-1.655168
-1.814440
-1.967534
-2.114009
-2.253463
-2.385541
-2.509929
-2.626361
-2.734617
-2.834525
-2.925958
-3.008837
-3.083129
-3.148848
-3.206053
-3.254851
-3.295399
-3.327903
-3.352625
-3.369883
-3.380047
-3.383536
-3.380791
-3.372244
-3.358247
-3.338991
-3.314394
-3.284003
-3.246926
-3.201995
-3.147635
-3.086338
-3.000000
-3.000000
-3.000000
-3.000000
0.000000
0.000000
0.000000
0.000000
-0.230328
-0.415617
-0.605470
-0.792450
-0.976678
-1.157440
-1.334132
-1.506166
-1.672984
-1.834061
-1.988910
-2.137079
-2.278157
-2.411778
-2.537617
-2.655397
-2.764885
-2.865896
-2.958291
-3.041979
-3.116916
-3.183101
-3.240586
-3.289468
-3.329895
-3.362068
-3.386247
-3.402748
-3.411947
-3.414267
-3.410158
-3.400059
-3.384325
-3.363141
-3.336400
-3.303600
-3.263776
-3.215665
-3.157567
-3.092126
0.000000
0.000000
0.000000
0.000000
-0.234553
-0.423259
-0.616640
-0.807138
-0.994885
-1.179164
-1.359364
-1.534892
-1.705180
-1.869691
-2.027924
-2.179410
-2.323720
-2.460464
-2.589295
-2.709907
-2.822043
-2.925487
-3.020069
-3.105669
-3.182211
-3.249667
-3.308057
-3.357454
-3.397983
-3.429828
-3.453234
-3.468514
-3.476043
-3.476253
-3.469606
-3.456553
-3.437455
-3.412477
-3.381466
-3.343820
-3.298418
-3.243806
-3.178036
-3.104061
0.000000
0.000000
0.000000
0.000000
-0.238593
-0.430580
-0.627376
-0.821315
-1.012550
-1.200370
-1.384168
-1.563350
-1.737344
-1.905608
-2.067625
-2.222911
-2.371015
-2.511523
-2.644056
-2.768277
-2.883886
-2.990628
-3.088289
-3.176702
-3.255744
-3.325337
-3.385456
-3.436129
-3.477439
-3.509534
-3.532632
-3.547025
-3.553079
-3.551224
-3.541933
-3.525661
-3.502769
-3.473401
-3.437337
-3.393853
-3.341635
-3.278991
-3.203670
-3.119022
0.000000
0.000000
0.000000
0.000000
-0.242033
-0.436837
-0.636604
-0.833592
-1.027990
-1.219106
-1.406350
-1.589141
-1.766915
-1.939130
-2.105265
-2.264824
-2.417338
-2.562364
-2.699491
-2.828338
-2.948559
-3.059839
-3.161904
-3.254517
-3.337480
-3.410642
-3.473898
-3.527198
-3.570553
-3.604041
-3.627822
-3.642138
-3.647322
-3.643785
-3.631988
-3.612383
-3.585319
-3.550898
-3.508812
-3.458172
-3.397416
-3.324549
-3.236935
-3.138466
0.000000
0.000000
0.000000
0.000000
-0.244382
-0.441139
-0.643017
-0.842246
-1.039066
-1.232820
-1.422954
-1.608919
-1.790177
-1.966207
-2.136504
-2.300576
-2.457952
-2.608175
-2.750808
-2.885433
-3.011651
-3.129085
-3.237380
-3.336206
-3.425261
-3.504278
-3.573026
-3.631324
-3.679050
-3.716153
-3.742669
-3.758733
-3.764586
-3.760566
-3.747082
-3.724540
-3.693240
-3.653204
-3.603980
-3.544446
-3.472694
-3.386324
-3.282196
-3.164979
0.000000
0.000000
0.000000
0.000000
-0.245400
-0.443034
-0.645906
-0.846265
-1.044396
-1.239692
-1.431648
-1.619765
-1.803560
-1.982565
-2.156323
-2.324394
-2.486348
-2.641763
-2.790224
-2.931322
-3.064646
-3.189786
-3.306329
-3.413858
-3.511954
-3.600203
-3.678194
-3.745543
-3.801898
-3.846964
-3.880527
-3.902474
-3.912813
-3.911669
-3.899262
-3.875826
-3.841484
-3.796050
-3.738789
-3.668174
-3.581758
-3.476542
-3.348678
-3.204064
0.000000
0.000000
0.000000
0.000000
-0.245555
-0.443333
-0.646387
-0.846980
-1.045421
-1.241132
-1.433640
-1.622492
-1.807255
-1.987523
-2.162919
-2.333087
-2.497698
-2.656443
-2.809028
-2.955171
-3.094588
-3.226989
-3.352061
-3.469459
-3.578795
-3.679624
-3.771443
-3.853686
-3.925736
-3.986942
-4.036645
-4.074215
-4.099079
-4.110743
-4.108779
-4.092756
-4.062097
-4.015858
-3.952431
-3.869271
-3.762754
-3.628720
-3.462132
-3.271260
0.000000
0.000000
0.000000
0.000000
-0.245556
-0.443336
-0.646393
-0.846990
-1.045439
-1.241160
-1.433688
-1.622570
-1.807382
-1.987728
-2.163246
-2.333602
-2.498501
-2.657682
-2.810917
-2.958018
-3.098828
-3.233228
-3.361129
-3.482474
-3.597232
-3.705399
-3.806985
-3.902009
-3.990481
-4.072376
-4.147594
-4.215891
-4.276780
-4.329372
-4.372165
-4.402751
-4.417464
-4.410999
-4.376090
-4.303448
-4.182173
-4.001546
-3.751474
-3.447076
0.000000
0.000000
0.000000
0.000000
-0.245556
-0.443336
-0.646393
-0.846990
-1.045439
-1.241160
-1.433688
-1.622570
-1.807382
-1.987728
-2.163246
-2.333602
-2.498501
-2.657682
-2.810917
-2.958018
-3.098830
-3.233231
-3.361134
-3.482486
-3.597258
-3.705455
-3.807102
-3.902250
-3.990967
-4.073341
-4.149470
-4.219465
-4.283445
-4.341531
-4.393848
-4.440519
-4.481662
-4.517389
-4.547805
-4.573001
-4.593058
-4.608040
-4.617934
-4.624120
0.000000
0.000000
0.000000
0.000000
-0.245556
-0.443336
-0.646393
-0.846990
-1.045439
-1.241160
-1.433688
-1.622570
-1.807382
-1.987728
-2.163246
-2.333602
-2.498501
-2.657682
-2.810917
-2.958018
-3.098830
-3.233231
-3.361134
-3.482486
-3.597258
-3.705455
-3.807102
-3.902250
-3.990967
-4.073341
-4.149470
-4.219465
-4.283445
-4.341531
-4.393848
-4.440519
-4.481662
-4.517389
-4.547805
-4.573001
-4.593058
-4.608040
-4.617934
-4.624120
0.000000
0.000000
0.000000
0.000000
-0.245556
-0.443336
-0.646393
-0.846990
-1.045439
-1.241160
-1.433688
-1.622570
-1.807382
-1.987728
-2.163246
-2.333602
-2.498501
-2.657682
-2.810917
-2.958018
-3.098830
-3.233231
-3.361134
-3.482486
-3.597258
-3.705455
-3.807102
-3.902250
-3.990967
-4.073341
-4.149470
-4.219465
-4.283445
-4.341531
-4.393848
-4.440519
-4.481662
-4.517389
-4.547805
-4.573001
-4.593058
-4.608040
-4.617934
-4.624120
0.000000
0.000000
0.000000
0.000000
-0.245556
-0.443336
-0.646393
-0.846990
-1.045439
-1.241160
-1.433688
-1.622570
-1.807382
-1.987728
-2.163246
-2.333602
-2.498501
-2.657682
-2.810917
-2.958018
-3.098830
-3.233231
-3.361134
-3.482486
-3.597258
-3.705455
-3.807102
-3.902250
-3.990967
-4.073341
-4.149470
-4.219465
-4.283445
-4.341531
-4.393848
-4.440519
-4.481662
-4.517389
-4.547805
-4.573001
-4.593058
-4.608040
-4.617934
-4.624120
0.000000
0.000000
0.000000
0.000000
-0.245556
-0.443336
-0.646393
-0.846990
-1.045439
-1.241160
-1.433688
-1.622570
-1.807382
-1.987728
-2.163246
-2.333602
-2.498501
-2.657682
-2.810917
-2.958018
-3.098830
-3.233231
-3.361134
-3.482486
-3.597258
-3.705455
-3.807102
-3.902250
-3.990967
-4.073341
-4.149470
-4.219465
-4.283445
-4.341531
-4.393848
-4.440519
-4.481662
-4.517389
-4.547805
-4.573001
-4.593058
-4.608040
-4.617934
-4.624120
0.000000
0.000000
0.000000
0.000000
-0.245556
-0.443336
-0.646393
-0.846990
-1.045439
-1.241160
-1.433688
-1.622570
-1.807382
-1.987728
-2.163246
-2.333602
-2.498501
-2.657682
-2.810917
-2.958018
-3.098830
-3.233231
-3.361134
-3.482486
-3.597258
-3.705455
-3.807102
-3.902250
-3.990967
-4.073341
-4.149470
-4.219465
-4.283445
-4.341531
-4.393848
-4.440519
-4.481662
-4.517389
-4.547805
-4.573001
-4.593058
-4.608040
-4.617934
-4.624120
0.000000
0.000000
0.000000
0.000000
-0.245556
-0.443336
-0.646393
-0.846990
-1.045439
-1.241160
-1.433688
-1.622570
-1.807382
-1.987728
-2.163246
-2.333602
-2.498501
-2.657682
-2.810917
-2.958018
-3.098830
-3.233231
-3.361134
-3.482486
-3.597258
-3.705455
-3.807102
-3.902250
-3.990967
-4.073341
-4.149470
-4.219465
-4.283445
-4.341531
-4.393848
-4.440519
-4.481662
-4.517389
-4.547805
-4.573001
-4.593058
-4.608040
-4.617934
-4.624120
0.000000
0.000000
0.000000
0.000000
-0.245556
-0.443336
-0.646393
-0.846990
-1.045439
-1.241160
-1.433688
-1.622570
-1.807382
-1.987728
-2.163246
-2.333602
-2.498501
-2.657682
-2.810917
-2.958018
-3.098830
-3.233231
-3.361134
-3.482486
-3.597258
-3.705455
-3.807102
-3.902250
-3.990967
-4.073341
-4.149470
-4.219465
-4.283445
-4.341531
-4.393848
-4.440519
-4.481662
-4.517389
-4.547805
-4.573001
-4.593058
-4.608040
-4.617934
-4.624120
0.000000
0.000000
0.000000
0.000000
-0.245556
-0.443336
-0.646393
-0.846990
-1.045439
-1.241160
-1.433688
-1.622570
-1.807382
-1.987728
-2.163246
-2.333602
-2.498501
-2.657682
-2.810917
-2.958018
-3.098830
-3.233231
-3.361134
-3.482486
-3.597258
-3.705455
-3.807102
-3.902250
-3.990967
-4.073341
-4.149470
-4.219465
-4.283445
-4.341531
-4.393848
-4.440519
-4.481662
-4.517389
-4.547805
-4.573001
-4.593058
-4.608040
-4.617934
-4.624120
0.000000
0.000000
0.000000
0.000000
-0.245556
-0.443336
-0.646393
-0.846990
-1.045439
-1.241160
-1.433688
-1.622570
-1.807382
-1.987728
-2.163246
-2.333602
-2.498501
-2.657682
-2.810917
-2.958018
-3.098830
-3.233231
-3.361134
-3.482486
-3.597258
-3.705455
-3.807102
-3.902250
-3.990967
-4.073341
-4.149470
-4.219465
-4.283445
-4.341531
-4.393848
-4.440519
-4.481662
-4.517389
-4.547805
-4.573001
-4.593058
-4.608040
-4.617934
-4.624120
0.000000
0.000000
0.000000
0.000000
-0.245556
-0.443336
-0.646393
-0.846990
-1.045439
-1.241160
-1.433688
-1.622570
-1.807382
-1.987728
-2.163246
-2.333602
-2.498501
-2.657682
-2.810917
-2.958018
-3.098830
-3.233231
-3.361134
-3.482486
-3.597258
-3.705455
-3.807102
-3.902250
-3.990967
-4.073341
-4.149470
-4.219465
-4.283445
-4.341531
-4.393848
-4.440519
-4.481662
-4.517389
-4.547805
-4.573001
-4.593058
-4.608040
-4.617934
-4.624120
0.000000
0.000000
0.000000
0.000000
-0.245556
-0.443336
-0.646393
-0.846990
-1.045439
-1.241160
-1.433688
-1.622570
-1.807382
-1.987728
-2.163246
-2.333602
-2.498501
-2.657682
-2.810917
-2.958018
-3.098830
-3.233231
-3.361134
-3.482486
-3.597258
-3.705455
-3.807102
-3.902250
-3.990967
-4.073341
-4.149470
-4.219465
-4.283445
-4.341531
-4.393848
-4.440519
-4.481662
-4.517389
-4.547805
-4.573001
-4.593058
-4.608040
-4.617934
-4.624120
0.000000
0.000000
0.000000
0.000000
-0.245556
-0.443336
-0.646393
-0.846990
-1.045439
-1.241160
-1.433688
-1.622570
-1.807382
-1.987728
-2.163246
-2.333602
-2.498501
-2.657682
-2.810917
-2.958018
-3.098830
-3.233231
-3.361134
-3.482486
-3.597258
-3.705455
-3.807102
-3.902250
-3.990967
-4.073341
-4.149470
-4.219465
-4.283445
-4.341531
-4.393848
-4.440519
-4.481662
-4.517389
-4.547805
-4.573001
-4.593058
-4.608040
-4.617934
-4.624120
0.000000
0.000000
0.000000
0.000000
-0.245556
-0.443336
-0.646393
-0.846990
-1.045439
-1.241160
-1.433688
-1.622570
-1.807382
-1.987728
-2.163246
-2.333602
-2.498501
-2.657682
-2.810917
-2.958018
-3.098830
-3.233231
-3.361134
-3.482486
-3.597258
-3.705455
-3.807102
-3.902250
-3.990967
-4.073341
-4.149470
-4.219465
-4.283445
-4.341531
-4.393848
-4.440519
-4.481662
-4.517389
-4.547805
-4.573001
-4.593058
-4.608040
-4.617934
-4.624120
0.000000
0.000000
0.000000
0.000000
-0.245556
-0.443336
-0.646393
-0.846990
-1.045439
-1.241160
-1.433688
-1.622570
-1.807382
-1.987728
-2.163246
-2.333602
-2.498501
-2.657682
-2.810917
-2.958018
-3.098830
-3.233231
-3.361134
-3.482486
-3.597258
-3.705455
-3.807102
-3.902250
-3.990967
-4.073341
-4.149470
-4.219465
-4.283445
-4.341531
-4.393848
-4.440519
-4.481662
-4.517389
-4.547805
-4.573001
-4.593058
-4.608040
-4.617934
-4.624120
0.000000
0.000000
0.000000
0.000000
-0.245556
-0.443336
-0.646393
-0.846990
-1.045439
-1.241160
-1.433688
-1.622570
-1.807382
-1.987728
-2.163246
-2.333602
-2.498501
-2.657682
-2.810917
-2.958018
-3.098830
-3.233231
-3.361134
-3.482486
-3.597258
-3.705455
-3.807102
-3.902250
-3.990967
-4.073341
-4.149470
-4.219465
-4.283445
-4.341531
-4.393848
-4.440519
-4.481662
-4.517389
-4.547805
-4.573001
-4.593058
-4.608040
-4.617934
-4.624120
0.000000
0.000000
0.000000
0.000000
-0.245556
-0.443336
-0.646393
-0.846990
-1.045439
-1.241160
-1.433688
-1.622570
-1.807382
-1.987728
-2.163246
-2.333602
-2.498501
-2.657682
-2.810917
-2.958018
-3.098830
-3.233231
-3.361134
-3.482486
-3.597258
-3.705455
-3.807102
-3.902250
-3.990967
-4.073341
-4.149470
-4.219465
-4.283445
-4.341531
-4.393848
-4.440519
-4.481662
-4.517389
-4.547805
-4.573001
-4.593058