<?xml version='1.0' encoding='UTF-8'?>
<VTKFile xmlns='VTK' byte_order='LittleEndian' version='0.1' type='UnstructuredGrid'>
<UnstructuredGrid>
<Piece NumberOfCells='1816' NumberOfPoints='1816'>
<Points>
<DataArray NumberOfComponents='3' type='Float32' Name='Position' format='ascii'>
1.850000 0.400000 0.000000
1.850000 0.412500 0.000000
1.850000 0.425000 0.000000
1.850000 0.437500 0.000000
1.850000 0.450000 0.000000
1.850000 0.462500 0.000000
1.850000 0.475000 0.000000
1.850000 0.487500 0.000000
1.887500 0.400000 0.000000
1.887500 0.412500 0.000000
1.887500 0.425000 0.000000
1.887500 0.437500 0.000000
1.887500 0.450000 0.000000
1.887500 0.462500 0.000000
1.887500 0.475000 0.000000
1.887500 0.487500 0.000000
0.025000 0.000000 0.000000
0.025000 0.012500 0.000000
0.025000 0.025000 0.000000
0.025000 0.037500 0.000000
0.025000 0.050000 0.000000
0.025000 0.062500 0.000000
0.025000 0.075000 0.000000
0.025000 0.087500 0.000000
0.025000 0.100000 0.000000
0.025000 0.112500 0.000000
0.025000 0.125000 0.000000
0.025000 0.137500 0.000000
0.025000 0.150000 0.000000
0.025000 0.162500 0.000000
0.025000 0.175000 0.000000
0.025000 0.187500 0.000000
0.025000 0.200000 0.000000
0.025000 0.212500 0.000000
0.025000 0.225000 0.000000
0.025000 0.237500 0.000000
0.025000 0.250000 0.000000
0.025000 0.262500 0.000000
0.025000 0.275000 0.000000
0.025000 0.287500 0.000000
0.025000 0.300000 0.000000
0.025000 0.312500 0.000000
0.025000 0.325000 0.000000
0.025000 0.337500 0.000000
0.025000 0.350000 0.000000
0.025000 0.362500 0.000000
0.025000 0.375000 0.000000
0.025000 0.387500 0.000000
1.925000 0.400000 0.000000
1.925000 0.412500 0.000000
1.925000 0.425000 0.000000
1.925000 0.437500 0.000000
1.925000 0.450000 0.000000
1.925000 0.462500 0.000000
1.925000 0.475000 0.000000
1.925000 0.487500 0.000000
0.062500 0.000000 0.000000
0.062500 0.012500 0.000000
0.062500 0.025000 0.000000
0.062500 0.037500 0.000000
0.062500 0.050000 0.000000
0.062500 0.062500 0.000000
0.062500 0.075000 0.000000
0.062500 0.087500 0.000000
0.062500 0.100000 0.000000
0.062500 0.112500 0.000000
0.062500 0.125000 0.000000
0.062500 0.137500 0.000000
0.062500 0.150000 0.000000
0.062500 0.162500 0.000000
0.062500 0.175000 0.000000
0.062500 0.187500 0.000000
0.062500 0.200000 0.000000
0.062500 0.212500 0.000000
0.062500 0.225000 0.000000
0.062500 0.237500 0.000000
0.062500 0.250000 0.000000
0.062500 0.262500 0.000000
0.062500 0.275000 0.000000
0.062500 0.287500 0.000000
0.062500 0.300000 0.000000
0.062500 0.312500 0.000000
0.062500 0.325000 0.000000
0.062500 0.337500 0.000000
0.062500 0.350000 0.000000
0.062500 0.362500 0.000000
0.062500 0.375000 0.000000
0.062500 0.387500 0.000000
1.962500 0.400000 0.000000
1.962500 0.412500 0.000000
1.962500 0.425000 0.000000
1.962500 0.437500 0.000000
1.962500 0.450000 0.000000
1.962500 0.462500 0.000000
1.962500 0.475000 0.000000
1.962500 0.487500 0.000000
0.100000 0.000000 0.000000
0.100000 0.012500 0.000000
0.100000 0.025000 0.000000
0.100000 0.037500 0.000000
0.100000 0.050000 0.000000
0.100000 0.062500 0.000000
0.100000 0.075000 0.000000
0.100000 0.087500 0.000000
0.100000 0.100000 0.000000
0.100000 0.112500 0.000000
0.100000 0.125000 0.000000
0.100000 0.137500 0.000000
0.100000 0.150000 0.000000
0.100000 0.162500 0.000000
0.100000 0.175000 0.000000
0.100000 0.187500 0.000000
0.100000 0.200000 0.000000
0.100000 0.212500 0.000000
0.100000 0.225000 0.000000
0.100000 0.237500 0.000000
0.100000 0.250000 0.000000
0.100000 0.262500 0.000000
0.100000 0.275000 0.000000
0.100000 0.287500 0.000000
0.100000 0.300000 0.000000
0.100000 0.312500 0.000000
0.100000 0.325000 0.000000
0.100000 0.337500 0.000000
0.100000 0.350000 0.000000
0.100000 0.362500 0.000000
0.100000 0.375000 0.000000
0.100000 0.387500 0.000000
2.000000 0.400000 0.000000
2.000000 0.412500 0.000000
2.000000 0.425000 0.000000
2.000000 0.437500 0.000000
2.000000 0.450000 0.000000
2.000000 0.462500 0.000000
2.000000 0.475000 0.000000
2.000000 0.487500 0.000000
0.137500 0.000000 0.000000
0.137500 0.012500 0.000000
0.137500 0.025000 0.000000
0.137500 0.037500 0.000000
0.137500 0.050000 0.000000
0.137500 0.062500 0.000000
0.137500 0.075000 0.000000
0.137500 0.087500 0.000000
0.137500 0.100000 0.000000
0.137500 0.112500 0.000000
0.137500 0.125000 0.000000
0.137500 0.137500 0.000000
0.137500 0.150000 0.000000
0.137500 0.162500 0.000000
0.137500 0.175000 0.000000
0.137500 0.187500 0.000000
0.137500 0.200000 0.000000
0.137500 0.212500 0.000000
0.137500 0.225000 0.000000
0.137500 0.237500 0.000000
0.137500 0.250000 0.000000
0.137500 0.262500 0.000000
0.137500 0.275000 0.000000
0.137500 0.287500 0.000000
0.137500 0.300000 0.000000
0.137500 0.312500 0.000000
0.137500 0.325000 0.000000
0.137500 0.337500 0.000000
0.137500 0.350000 0.000000
0.137500 0.362500 0.000000
0.137500 0.375000 0.000000
0.137500 0.387500 0.000000
2.037500 0.400000 0.000000
2.037500 0.412500 0.000000
2.037500 0.425000 0.000000
2.037500 0.437500 0.000000
2.037500 0.450000 0.000000
2.037500 0.462500 0.000000
2.037500 0.475000 0.000000
2.037500 0.487500 0.000000
0.175000 0.000000 0.000000
0.175000 0.012500 0.000000
0.175000 0.025000 0.000000
0.175000 0.037500 0.000000
0.175000 0.050000 0.000000
0.175000 0.062500 0.000000
0.175000 0.075000 0.000000
0.175000 0.087500 0.000000
0.175000 0.100000 0.000000
0.175000 0.112500 0.000000
0.175000 0.125000 0.000000
0.175000 0.137500 0.000000
0.175000 0.150000 0.000000
0.175000 0.162500 0.000000
0.175000 0.175000 0.000000
0.175000 0.187500 0.000000
0.175000 0.200000 0.000000
0.175000 0.212500 0.000000
0.175000 0.225000 0.000000
0.175000 0.237500 0.000000
0.175000 0.250000 0.000000
0.175000 0.262500 0.000000
0.175000 0.275000 0.000000
0.175000 0.287500 0.000000
0.175000 0.300000 0.000000
0.175000 0.312500 0.000000
0.175000 0.325000 0.000000
0.175000 0.337500 0.000000
0.175000 0.350000 0.000000
0.175000 0.362500 0.000000
0.175000 0.375000 0.000000
0.175000 0.387500 0.000000
2.075000 0.400000 0.000000
2.075000 0.412500 0.000000
2.075000 0.425000 0.000000
2.075000 0.437500 0.000000
2.075000 0.450000 0.000000
2.075000 0.462500 0.000000
2.075000 0.475000 0.000000
2.075000 0.487500 0.000000
0.212500 0.000000 0.000000
0.212500 0.012500 0.000000
0.212500 0.025000 0.000000
0.212500 0.037500 0.000000
0.212500 0.050000 0.000000
0.212500 0.062500 0.000000
0.212500 0.075000 0.000000
0.212500 0.087500 0.000000
0.212500 0.100000 0.000000
0.212500 0.112500 0.000000
0.212500 0.125000 0.000000
0.212500 0.137500 0.000000
0.212500 0.150000 0.000000
0.212500 0.162500 0.000000
0.212500 0.175000 0.000000
0.212500 0.187500 0.000000
0.212500 0.200000 0.000000
0.212500 0.212500 0.000000
0.212500 0.225000 0.000000
0.212500 0.237500 0.000000
0.212500 0.250000 0.000000
0.212500 0.262500 0.000000
0.212500 0.275000 0.000000
0.212500 0.287500 0.000000
0.212500 0.300000 0.000000
0.212500 0.312500 0.000000
0.212500 0.325000 0.000000
0.212500 0.337500 0.000000
0.212500 0.350000 0.000000
0.212500 0.362500 0.000000
0.212500 0.375000 0.000000
0.212500 0.387500 0.000000
2.112500 0.400000 0.000000
2.112500 0.412500 0.000000
2.112500 0.425000 0.000000
2.112500 0.437500 0.000000
2.112500 0.450000 0.000000
2.112500 0.462500 0.000000
2.112500 0.475000 0.000000
2.112500 0.487500 0.000000
0.250000 0.000000 0.000000
0.250000 0.012500 0.000000
0.250000 0.025000 0.000000
0.250000 0.037500 0.000000
0.250000 0.050000 0.000000
0.250000 0.062500 0.000000
0.250000 0.075000 0.000000
0.250000 0.087500 0.000000
0.250000 0.100000 0.000000
0.250000 0.112500 0.000000
0.250000 0.125000 0.000000
0.250000 0.137500 0.000000
0.250000 0.150000 0.000000
0.250000 0.162500 0.000000
0.250000 0.175000 0.000000
0.250000 0.187500 0.000000
0.250000 0.200000 0.000000
0.250000 0.212500 0.000000
0.250000 0.225000 0.000000
0.250000 0.237500 0.000000
0.250000 0.250000 0.000000
0.250000 0.262500 0.000000
0.250000 0.275000 0.000000
0.250000 0.287500 0.000000
0.250000 0.300000 0.000000
0.250000 0.312500 0.000000
0.250000 0.325000 0.000000
0.250000 0.337500 0.000000
0.250000 0.350000 0.000000
0.250000 0.362500 0.000000
0.250000 0.375000 0.000000
0.250000 0.387500 0.000000
2.150000 0.400000 0.000000
2.150000 0.412500 0.000000
2.150000 0.425000 0.000000
2.150000 0.437500 0.000000
2.150000 0.450000 0.000000
2.150000 0.462500 0.000000
2.150000 0.475000 0.000000
2.150000 0.487500 0.000000
0.287500 0.000000 0.000000
0.287500 0.012500 0.000000
0.287500 0.025000 0.000000
0.287500 0.037500 0.000000
0.287500 0.050000 0.000000
0.287500 0.062500 0.000000
0.287500 0.075000 0.000000
0.287500 0.087500 0.000000
0.287500 0.100000 0.000000
0.287500 0.112500 0.000000
0.287500 0.125000 0.000000
0.287500 0.137500 0.000000
0.287500 0.150000 0.000000
0.287500 0.162500 0.000000
0.287500 0.175000 0.000000
0.287500 0.187500 0.000000
0.287500 0.200000 0.000000
0.287500 0.212500 0.000000
0.287500 0.225000 0.000000
0.287500 0.237500 0.000000
0.287500 0.250000 0.000000
0.287500 0.262500 0.000000
0.287500 0.275000 0.000000
0.287500 0.287500 0.000000
0.287500 0.300000 0.000000
0.287500 0.312500 0.000000
0.287500 0.325000 0.000000
0.287500 0.337500 0.000000
0.287500 0.350000 0.000000
0.287500 0.362500 0.000000
0.287500 0.375000 0.000000
0.287500 0.387500 0.000000
2.187500 0.400000 0.000000
2.187500 0.412500 0.000000
2.187500 0.425000 0.000000
2.187500 0.437500 0.000000
2.187500 0.450000 0.000000
2.187500 0.462500 0.000000
2.187500 0.475000 0.000000
2.187500 0.487500 0.000000
0.325000 0.000000 0.000000
0.325000 0.012500 0.000000
0.325000 0.025000 0.000000
0.325000 0.037500 0.000000
0.325000 0.050000 0.000000
0.325000 0.062500 0.000000
0.325000 0.075000 0.000000
0.325000 0.087500 0.000000
0.325000 0.100000 0.000000
0.325000 0.112500 0.000000
0.325000 0.125000 0.000000
0.325000 0.137500 0.000000
0.325000 0.150000 0.000000
0.325000 0.162500 0.000000
0.325000 0.175000 0.000000
0.325000 0.187500 0.000000
0.325000 0.200000 0.000000
0.325000 0.212500 0.000000
0.325000 0.225000 0.000000
0.325000 0.237500 0.000000
0.325000 0.250000 0.000000
0.325000 0.262500 0.000000
0.325000 0.275000 0.000000
[...]
<PointData>
<DataArray NumberOfComponents='1' type='Int32' Name='ParticleType' format='ascii'>
5
5
5
5
5
5
5
5
5
5
5
5
5
5
5
5
2
2
2
2
2
2
2
2
2
2
2
2
2
2
2
2
2
2
2
2
2
2
2
2
1
1
0
0
0
0
0
0
5
5
5
5
5
5
5
5
2
2
2
2
2
2
2
2
2
2
2
2
2
2
2
2
2
2
2
2
2
2
2
2
1
1
0
0
0
0
0
0
5
5
5
5
5
5
5
5
2
2
2
2
2
2
2
2
2
2
2
2
2
2
2
2
2
2
2
2
2
2
2
2
1
0
0
0
0
0
0
0
5
5
5
5
5
5
5
5
2
2
2
2
2
2
2
2
2
2
2
2
2
2
2
2
2
2
2
2
2
2
2
1
1
0
0
0
0
0
0
0
5
5
5
5
5
5
5
5
2
2
2
2
2
2
2
2
2
2
2
2
2
2
2
2
2
2
2
2
2
2
2
1
1
0
0
0
0
0
0
0
5
5
5
5
5
5
5
5
2
2
2
2
2
2
2
2
2
2
2
2
2
2
2
2
2
2
2
2
2
2
2
1
1
0
0
0
0
0
0
0
5
5
5
5
5
5
5
5
2
2
2
2
2
2
2
2
2
2
2
2
2
2
2
2
2
2
2
2
2
2
2
1
1
0
0
0
0
0
0
0
5
5
5
5
5
5
5
5
2
2
2
2
2
2
2
2
2
2
2
2
2
2
2
2
2
2
2
2
2
2
2
1
0
0
0
0
0
0
0
0
5
5
5
5
5
5
5
5
2
2
2
2
2
2
2
2
2
2
2
2
2
2
2
2
2
2
2
2
2
2
1
1
0
0
0
0
0
0
0
0
5
5
5
5
5
5
5
5
2
2
2
2
2
2
2
2
2
2
2
2
2
2
2
2
2
2
2
2
2
2
1
1
0
0
0
0
0
0
0
0
5
5
5
5
5
5
5
5
2
2
2
2
2
2
2
2
2
2
2
2
2
2
2
2
2
2
2
2
2
2
1
1
0
0
0
0
0
0
0
0
5
5
5
5
5
5
5
5
2
2
2
2
2
2
2
2
2
2
2
2
2
2
2
2
2
2
2
2
2
2
1
1
0
0
0
0
0
0
0
0
5
5
5
5
5
5
5
5
2
2
2
2
2
2
2
2
2
2
2
2
2
2
2
2
2
2
2
2
2
2
1
1
0
0
0
0
0
0
0
0
5
5
5
5
5
5
5
5
2
2
2
2
2
2
2
2
2
2
2
2
2
2
2
2
2
2
2
2
2
2
1
1
0
0
0
0
0
0
0
0
2
2
2
2
2
2
2
2
2
2
2
2
2
2
2
2
2
2
2
2
2
2
1
1
0
0
0
0
0
0
0
0
2
2
2
2
2
2
2
2
2
2
2
2
2
2
2
2
2
2
2
2
2
2
1
1
0
0
0
0
0
0
0
0
2
2
2
2
2
2
2
2
2
2
2
2
2
2
2
2
2
2
2
2
2
2
1
1
0
0
0
0
0
0
0
0
2
2
2
2
2
2
2
2
2
2
2
2
2
2
2
2
2
2
2
2
2
2
1
1
0
0
0
0
0
0
0
0
2
2
2
2
2
2
2
2
2
2
2
2
2
2
2
2
2
2
2
2
2
2
1
1
0
0
0
0
0
0
0
0
2
2
2
2
2
2
2
2
2
2
2
2
2
2
2
2
2
2
2
2
2
2
1
1
0
0
0
0
0
0
0
0
2
2
2
2
2
2
2
2
2
2
2
2
2
2
2
2
2
2
2
2
2
2
1
1
0
0
0
0
0
0
0
0
2
2
2
2
2
2
2
2
2
2
2
2
2
2
2
2
2
2
2
2
2
2
1
1
0
0
0
0
0
0
0
0
2
2
2
2
2
2
2
2
2
2
2
2
2
2
2
2
2
2
2
2
2
2
2
1
1
0
0
0
0
0
0
0
2
2
2
2
2
2
2
2
2
2
2
2
2
2
2
2
2
2
2
2
2
2
2
1
0
0
0
0
0
0
0
0
2
2
2
2
2
2
2
2
2
2
2
2
2
2
2
2
2
2
2
2
2
2
2
1
1
0
0
0
0
0
0
0
2
2
2
2
2
2
2
2
2
2
2
2
2
2
2
2
2
2
2
2
2
2
2
1
1
0
0
0
0
0
0
0
2
2
2
2
2
2
2
2
2
2
2
2
2
2
2
2
2
2
2
2
2
2
2
1
1
0
0
0
0
0
0
0
2
2
2
2
2
2
2
2
2
2
2
2
2
2
2
2
2
2
2
2
2
2
2
1
1
0
0
0
0
0
0
0
2
2
2
2
2
2
2
2
2
2
2
2
2
2
2
2
2
2
2
2
2
2
2
1
1
0
0
0
0
0
0
0
2
2
2
2
2
2
2
2
2
2
2
2
2
2
2
2
2
2
2
2
2
2
2
1
1
0
0
0
0
0
0
0
2
2
2
2
2
2
2
2
2
2
2
2
2
2
2
2
2
2
2
2
2
2
2
2
1
0
0
0
0
0
0
0
2
2
2
2
2
2
2
2
2
2
2
2
2
2
2
2
2
2
2
2
2
2
2
1
1
0
0
0
0
0
0
0
2
2
2
2
2
2
2
2
2
2
2
2
2
2
2
2
2
2
2
2
2
2
2
2
1
1
0
0
0
0
0
0
2
2
2
2
2
2
2
2
2
2
2
2
2
2
2
2
2
2
2
2
2
2
2
2
1
1
0
0
0
0
0
0
2
2
2
2
2
2
2
2
2
2
2
2
2
2
2
2
2
2
2
2
2
2
2
2
1
1
0
0
0
0
0
0
2
2
2
2
2
2
2
2
2
2
2
2
2
2
2
2
2
2
2
2
2
2
2
2
1
1
0
0
0
0
0
0
2
2
2
2
2
2
2
2
2
2
2
2
2
2
2
2
2
2
2
2
2
2
2
2
1
1
0
0
0
0
0
0
2
2
2
2
2
2
2
2
2
2
2
2
2
2
2
2
2
2
2
2
2
2
2
2
1
1
0
0
0
0
0
0
2
2
2
2
2
2
2
2
2
2
2
2
2
2
2
2
2
2
2
2
2
2
2
2
1
1
0
0
0
0
0
0
2
2
2
2
2
2
2
2
2
2
2
2
2
2
2
2
2
2
2
2
2
2
2
2
1
1
0
0
0
0
0
0
2
2
2
2
2
2
2
2
2
2
2
2
2
2
2
2
2
2
2
2
2
2
2
2
2
1
0
0
0
0
0
0
2
2
2
2
2
2
2
2
2
2
2
2
2
2
2
2
2
2
2
2
2
2
2
2
1
1
0
0
0
0
0
0
2
2
2
2
2
2
2
2
2
2
2
2
2
2
2
2
2
2
2
2
2
2
2
2
1
1
0
0
0
0
0
0
2
2
2
2
2
2
2
2
2
2
2
2
2
2
2
2
2
2
2
2
2
2
2
2
2
1
0
0
0
0
0
0
2
2
2
2
2
2
2
2
2
2
2
2
2
2
2
2
2
2
2
2
2
2
2
2
2
1
0
0
0
0
0
0
2
2
2
2
2
2
2
2
2
2
2
2
2
2
2
2
2
2
2
2
2
2
2
2
2
1
1
0
0
0
0
0
2
2
2
2
2
2
2
2
2
2
2
2
2
2
2
2
2
2
2
2
2
2
2
2
2
1
1
0
0
0
0
0
2
2
2
2
2
2
2
2
2
2
2
2
2
2
2
2
2
2
2
2
2
2
2
2
2
1
1
0
0
0
0
0
2
2
2
2
2
2
2
2
2
2
2
2
2
2
2
2
2
2
2
2
2
2
2
2
2
1
1
0
0
0
0
0
2
2
2
2
2
2
2
2
2
2
2
2
2
2
2
2
2
2
2
2
2
2
2
2
2
1
1
0
0
0
0
0
2
2
2
2
2
2
2
2
2
2
2
2
2
2
2
2
2
2
2
2
2
2
2
2
2
1
1
0
0
0
0
0
2
2
2
2
2
2
2
2
2
2
2
2
2
2
2
2
2
2
2
2
2
2
2
2
2
1
1
0
0
0
0
0
2
2
2
2
2
2
2
2
2
2
2
2
2
2
2
2
2
2
2
2
2
2
2
2
2
2
1
1
0
0
0
0
</DataArray>
<DataArray NumberOfComponents='1' type='Float32' Name='Temperature' format='ascii'>
-3.000000
-3.000000
-3.000000
-3.000000
-3.000000
-3.000000
-3.000000
-3.000000
-3.000000
-3.000000
-3.000000
-3.000000
-3.000000
-3.000000
-3.000000
-3.000000
-4.903030
-4.894298
-4.880119
-4.858084
-4.827472
-4.787233
-4.736073
-4.672484
-4.594769
-4.501074
-4.389440
-4.257851
-4.104293
-3.926809
-3.723544
-3.492770
-3.232884
-2.942390
-2.619906
-2.264266
-1.874839
-1.452003
-0.998896
-0.517140
-0.006320
0.000180
8.467972
22.618978
39.190137
56.208790
70.348465
81.176251
-3.000000
-3.000000
-3.000000
-3.000000
-3.000000
-3.000000
-3.000000
-3.000000
-4.899540
-4.890453
-4.875692
-4.852748
-4.820861
-4.778923
-4.725565
-4.659183
-4.577956
-4.479881
-4.362815
-4.224528
-4.062773
-3.875371
-3.660308
-3.415854
-3.140690
-2.834047
-2.495851
-2.126854
-1.728818
-1.303958
-0.860729
-0.371073
-0.001682
0.009369
19.313411
38.789160
61.798742
85.408173
105.243223
120.553406
-3.000000
-3.000000
-3.000000
-3.000000
-3.000000
-3.000000
-3.000000
-3.000000
-4.897689
-4.888419
-4.873361
-4.849950
-4.817406
-4.774594
-4.720108
-4.652304
-4.569317
-4.469099
-4.349466
-4.208157
-4.042909
-3.851548
-3.632094
-3.382888
-3.102721
-2.790961
-2.447635
-2.073301
-1.668452
-1.230056
-0.759110
-0.121735
-0.004460
3.068977
25.889883
51.122584
80.979312
111.732165
137.676592
157.781958
-3.000000
-3.000000
-3.000000
-3.000000
-3.000000
-3.000000
-3.000000
-3.000000
-4.895549
-4.886002
-4.870485
-4.846344
-4.812757
-4.768529
-4.712181
-4.641983
-4.555971
-4.451984
-4.327706
-4.180709
-4.008510
-3.808624
-3.578633
-3.316259
-3.019481
-2.686699
-2.316978
-1.910408
-1.468067
-0.995924
-0.479261
-0.008226
0.004807
15.220014
37.595845
67.370311
102.910583
139.927749
171.377542
195.917498
-3.000000
-3.000000
-3.000000
-3.000000
-3.000000
-3.000000
-3.000000
-3.000000
-4.894176
-4.884462
-4.868667
-4.844081
-4.809849
-4.764725
-4.707161
-4.635334
-4.547155
-4.440312
-4.312305
-4.160512
-3.982266
-3.774962
-3.536193
-3.263904
-2.956592
-2.613505
-2.234852
-1.822071
-1.377212
-0.909718
-0.385973
-0.005904
0.008921
22.298952
47.540517
81.531262
122.481013
165.634753
202.548919
231.507079
-3.000000
-3.000000
-3.000000
-3.000000
-3.000000
-3.000000
-3.000000
-3.000000
-4.893675
-4.883930
-4.868084
-4.843423
-4.809091
-4.763841
-4.706126
-4.634115
-4.545715
-4.438600
-4.310253
-4.158027
-3.979227
-3.771213
-3.531541
-3.258130
-2.949453
-2.604747
-2.224218
-1.809310
-1.361949
-0.892423
-0.360141
-0.003737
0.007954
25.091357
53.758827
92.814171
140.144121
190.186007
233.079354
266.802158
-3.000000
-3.000000
-3.000000
-3.000000
-3.000000
-3.000000
-3.000000
-3.000000
-4.892896
-4.883054
-4.867052
-4.842146
-4.807474
-4.761779
-4.703504
-4.630809
-4.541600
-4.433552
-4.304161
-4.150799
-3.970803
-3.761569
-3.520693
-3.246124
-2.936350
-2.590596
-2.209014
-1.792957
-1.344086
-0.873571
-0.332470
-0.005793
0.008469
28.315408
60.789433
104.715486
157.834102
214.051790
262.357455
300.468969
-3.000000
-3.000000
-3.000000
-3.000000
-3.000000
-3.000000
-3.000000
-3.000000
-4.892145
-4.882203
-4.866035
-4.840869
-4.805831
-4.759649
-4.700747
-4.627270
-4.537106
-4.427921
-4.297204
-4.142335
-3.960666
-3.749620
-3.506827
-3.230264
-2.918436
-2.570560
-2.186764
-1.768401
-1.317073
-0.845286
-0.295520
-0.005420
0.176102
31.790841
67.923947
116.607205
175.485720
237.959390
291.811242
334.466649
-3.000000
-3.000000
-3.000000
-3.000000
-3.000000
-3.000000
-3.000000
-3.000000
-4.891672
-4.881658
-4.865372
-4.840014
-4.804697
-4.758128
-4.698704
-4.624539
-4.533479
-4.423145
-4.290964
-4.134228
-3.950130
-3.735810
-3.488353
-3.204764
-2.881918
-2.516585
-2.105721
-1.647059
-1.142115
-0.587530
-0.005196
-0.001943
11.935811
37.135142
75.315646
127.712778
191.773555
260.157943
319.360533
366.458915
-3.000000
-3.000000
-3.000000
-3.000000
-3.000000
-3.000000
-3.000000
-3.000000
-4.891259
-4.881170
-4.864756
-4.839189
-4.803560
-4.756548
-4.696517
-4.621537
-4.529418
-4.417743
-4.283930
-4.125303
-3.939175
-3.722946
-3.474172
-3.190588
-2.870014
-2.510104
-2.108009
-1.660222
-1.164026
-0.618052
-0.007841
-0.002828
9.859392
40.509508
82.274443
138.967661
208.280024
282.643742
347.324829
399.037216
-3.000000
-3.000000
-3.000000
-3.000000
-3.000000
-3.000000
-3.000000
-3.000000
-4.890838
-4.880665
-4.864106
-4.838303
-4.802324
-4.754820
-4.694117
-4.618245
-4.524968
-4.411822
-4.276169
-4.115267
-3.926332
-3.706605
-3.453387
-3.164046
-2.836015
-2.466831
-2.054405
-1.597333
-1.098560
-0.548059
-0.004687
0.003684
14.323824
45.285374
89.383295
149.598860
223.727644
303.741511
373.675994
429.871288
-3.000000
-3.000000
-3.000000
-3.000000
-3.000000
-3.000000
-3.000000
-3.000000
-4.890507
-4.880308
-4.863710
-4.837847
-4.801790
-4.754189
-4.693368
-4.617350
-4.523881
-4.410460
-4.274379
-4.112773
-3.922667
-3.701028
-3.444829
-3.151137
-2.817274
-2.441091
-2.021461
-1.558407
-1.058074
-0.501426
-0.005376
0.002300
18.050113
48.607864
94.616101
158.509599
237.975112
324.245845
399.956369
461.060723
-3.000000
-3.000000
-3.000000
-3.000000
-3.000000
-3.000000
-3.000000
-3.000000
-4.887685
-4.877226
-4.860215
-4.833730
-4.796844
-4.748212
-4.686171
-4.608766
-4.513781
-4.398770
-4.261102
-4.098016
-3.906666
-3.684180
-3.427703
-3.134472
-2.801935
-2.427970
-2.011336
-1.551772
-1.055000
-0.501332
-0.008995
0.006393
18.075331
51.099403
100.333319
168.167720
252.347085
343.949256
424.661286
490.164548
-3.000000
-3.000000
-3.000000
-3.000000
-3.000000
-3.000000
-3.000000
-3.000000
-4.884891
-4.874270
-4.857002
-4.830133
-4.792739
-4.743475
-4.680670
-4.602350
-4.506257
-4.389867
-4.250428
-4.085005
-3.890531
-3.663904
-3.402102
-3.102371
-2.762474
-2.381015
-1.957892
-1.493963
-0.997934
-0.436841
-0.006986
0.006994
23.172510
55.985471
106.831809
177.698944
266.202000
362.803112
448.150352
517.708643
-4.891264
-4.881020
-4.864354
-4.838397
-4.802229
-4.754515
-4.693598
-4.617528
-4.524078
-4.410779
-4.274961
-4.113792
-3.924330
-3.703568
-3.448485
-3.156119
-2.823688
-2.448820
-2.030009
-1.566721
-1.064529
-0.503046
-0.003433
0.006289
18.571877
52.351505
103.640496
175.379437
265.459526
364.550527
452.728937
525.197908
-4.903171
-4.893678
-4.878205
-4.854055
-4.820309
-4.775638
-4.718388
-4.646602
-4.558035
-4.450193
-4.320375
-4.165737
-3.983373
-3.770410
-3.524097
-3.241867
-2.921303
-2.559932
-2.154819
-1.702165
-1.198104
-0.640316
-0.008185
0.003754
9.980379
45.663372
96.562968
168.735594
260.511411
362.638290
454.333914
530.407706
-4.909172
-4.899940
-4.884871
-4.861310
-4.828316
-4.784532
-4.728266
-4.657510
-4.569958
-4.463036
-4.333939
-4.179682
-3.997149
-3.783142
-3.534406
-3.247639
-2.919515
-2.546788
-2.126671
-1.657281
-1.141782
-0.568733
-0.007887
0.002605
15.471633
48.240282
98.699508
170.845800
263.341326
367.154022
461.139682
539.922580
-4.919472
-4.910921
-4.896933
-4.875003
-4.844183
-4.803108
-4.750069
-4.683021
-4.599592
-4.497111
-4.372629
-4.222964
-4.044739
-3.834422
-3.588348
-3.302749
-2.973813
-2.597881
-2.171952
-1.694294
-1.168545
-0.585395
-0.008478
0.000481
15.096550
45.197869
93.559575
164.932386
258.550820
365.313882
463.043101
545.885625
-4.924852
-4.916580
-4.903029
-4.881754
-4.851799
-4.811794
-4.760023
-4.694434
-4.612651
-4.512001
-4.389550
-4.242166
-4.066584
-3.859498
-3.617634
-3.337772
-3.016666
-2.650814
-2.236170
-1.768126
-1.243429
-0.660235
-0.009197
0.003215
10.824640
43.517783
93.154660
165.631807
260.553884
369.406832
469.820967
555.887273
-4.934077
-4.926492
-4.914037
-4.894425
-4.866706
-4.829520
-4.781151
-4.719533
-4.642252
-4.546564
-4.429424
-4.287530
-4.117390
-3.915394
-3.677871
-3.401092
-3.081168
-2.713828
-2.294228
-1.817183
-1.279454
-0.680661
-0.008676
-0.001461
10.840727
40.325389
87.607531
159.182210
255.260297
367.312031
471.888709
562.635719
-4.938836
-4.931520
-4.919488
-4.900508
-4.873623
-4.837467
-4.790317
-4.730097
-4.654388
-4.560433
-4.445179
-4.305319
-4.137370
-3.937782
-3.703078
-3.430027
-3.115829
-2.758202
-2.355125
-1.903714
-1.394590
-0.824845
-0.009397
0.001954
5.265097
38.749477
87.312714
159.852466
257.096372
371.260115
478.767986
573.277952
-4.946964
-4.940327
-4.929382
-4.912061
-4.887424
-4.854126
-4.810464
-4.754368
-4.683399
-4.594755
-4.485288
-4.351543
-4.189823
-3.996288
-3.767096
-3.498569
-3.187348
-2.830391
-2.424458
-1.964569
-1.438313
-0.840738
-0.008875
-0.003132
5.991560
35.424791
81.350189
152.841089
251.253272
368.866269
480.996562
580.932323
-4.951133
-4.944756
-4.934220
-4.917509
-4.893675
-4.861365
-4.818866
-4.764098
-4.694614
-4.607604
-4.499915
-4.368086
-4.208410
-4.017025
-3.790042
-3.523735
-3.214776
-2.860551
-2.459488
-2.011534
-1.517271
-0.989036
-0.367777
0.001105
0.009654
34.170543
81.242057
153.481687
252.882224
372.608222
487.944846
592.314620
-4.958172
-4.952455
-4.942981
-4.927901
-4.906293
-4.876844
-4.837876
-4.787337
-4.722788
-4.641397
-4.539945
-4.414851
-4.262208
-4.077865
-3.857547
-3.597040
-3.292453
-2.940579
-2.539318
-2.088250
-1.588054
-1.049998
-0.423895
-0.004301
0.342781
30.646879
74.813122
145.864047
246.427731
369.854845
490.318321
601.017183
-4.961783
-4.956318
-4.947240
-4.932751
-4.911919
-4.883421
-4.845567
-4.796287
-4.733128
-4.653247
-4.553421
-4.430075
-4.279324
-4.097038
-3.878948
-3.620795
-3.318553
-2.968747
-2.568867
-2.117968
-1.616240
-1.074063
-0.446491
0.000472
0.007719
29.411261
74.835259
146.467345
247.805304
373.315123
497.288680
613.262627
-4.967759
-4.962925
-4.954867
-4.941956
-4.923299
-4.897624
-4.863296
-4.818299
-4.760212
-4.686203
-4.593019
-4.476998
-4.334093
-4.159914
-3.949808
-3.698990
-3.402759
-3.056839
-2.657877
-2.204171
-1.695628
-1.141490
-0.507175
-0.005064
0.008472
25.852308
67.939237
138.200827
240.672041
370.128408
499.776444
623.184442
-4.970870
-4.966285
-4.958618
-4.946292
-4.928404
-4.903673
-4.870446
-4.826684
-4.769938
-4.697349
-4.605643
-4.491157
-4.349874
-4.177479
-3.969427
-3.721044
-3.427676
-3.084923
-2.689019
-2.237492
-1.729294
-1.171832
-0.535356
0.000019
0.005435
24.133386
68.072808
138.801394
241.760135
373.215767
506.701978
636.446308
-4.976062
-4.972105
-4.965463
-4.954735
-4.939070
-4.917259
-4.887727
-4.848508
-4.797217
-4.731034
-4.646698
-4.540526
-4.408463
-4.246157
-4.049060
-3.812539
-3.531962
-3.202712
-2.820140
-2.379592
-1.876634
-1.310593
-0.673023
-0.002919
0.004310
15.373369
60.071191
129.962241
234.162415
369.657375
509.308920
647.812725
-4.979605
-4.976055
-4.970072
-4.960363
-4.946107
-4.926130
-4.898897
-4.862478
-4.814515
-4.752195
-4.672241
-4.570914
-4.444050
-4.287116
-4.095284
-3.863510
-3.586575
-3.259090
-2.875486
-2.430244
-1.918477
-1.340220
-0.687116
-0.007483
-0.001392
16.023376
57.170260
125.679246
230.269091
368.988987
514.267907
661.719605
-4.981692
-4.978328
-4.972638
-4.963365
-4.949680
-4.930395
-4.903956
-4.868405
-4.821347
-4.759925
-4.680811
-4.580221
-4.453952
-4.297464
-4.105973
-3.874561
-3.598245
-3.271970
-2.890495
-2.448327
-1.939955
-1.363081
-0.711368
-0.006550
-0.000320
14.599861
57.194480
125.946569
230.578292
371.238161
520.970993
676.961920
-4.985202
-4.982344
-4.977486
-4.969529
-4.957708
-4.940925
-4.917728
-4.886275
-4.844283
-4.788999
-4.717170
-4.625042
-4.508382
-4.362535
-4.182536
-3.963272
-3.699713
-3.387196
-3.021724
-2.600070
-2.119273
-1.571473
-0.957180
-0.042587
-0.004240
5.167524
47.944979
115.469781
221.299015
366.468040
523.412763
690.950601
-4.987103
-4.984459
-4.979945
-4.972507
-4.961381
-4.945465
-4.923294
-4.892998
-4.852248
-4.798224
-4.727580
-4.636445
-4.520449
-4.374792
-4.194367
-3.973939
-3.708380
-3.392913
-3.023226
-2.595091
-2.102977
-1.534509
-0.885852
-0.006572
0.003085
7.478854
50.002239
116.715222
221.531830
368.096720
529.746566
707.759325
-4.989818
-4.987621
-4.983849
-4.977598
-4.968175
-4.954581
-4.935473
-4.909117
-4.873331
-4.825436
-4.762214
-4.679886
-4.574109
-4.440015
-4.272291
-4.065310
-3.813351
-3.510892
-3.153029
-2.735978
-2.257799
-1.717601
-1.128765
-0.421150
-0.005579
0.009074
40.593460
105.626579
211.357315
362.493861
531.950087
723.931022
-4.991316
-4.989318
-4.985867
-4.980107
-4.971351
-4.958602
-4.940511
-4.915324
-4.880818
-4.834247
-4.772294
-4.691048
-4.586003
-4.452103
-4.283841
-4.075421
-3.821005
-3.515060
-3.152797
-2.730701
-2.247254
-1.701978
-1.109521
-0.394166
0.002023
0.009778
42.986239
106.942659
211.029808
363.190037
537.682677
742.688646
-4.993313
-4.991691
-4.988873
-4.984137
-4.976877
-4.966205
-4.950909
-4.929392
-4.899603
-4.858978
-4.804375
-4.732037
-4.637571
-4.515962
-4.361629
-4.168519
-3.930269
-3.640448
-3.292911
-2.882337
-2.405064
-1.859058
-1.253943
-0.542111
-0.006666
0.006471
32.687407
95.039129
199.879282
356.581804
539.410534
761.482759
-4.994448
-4.993005
-4.990478
-4.986196
-4.979562
-4.969700
-4.955400
-4.935054
-4.906582
-4.867356
-4.814137
-4.743025
-4.649440
-4.528136
-4.373269
-4.178520
-3.937303
-3.643076
-3.289785
-2.872462
-2.388096
-1.835345
-1.225723
-0.504058
0.001273
0.007283
35.815648
96.573276
198.925464
356.116511
544.220518
782.640066
-4.995845
-4.994705
-4.992695
-4.989262
-4.983893
-4.975827
-4.964001
-4.946983
-4.922891
-4.889313
-4.843228
-4.780945
-4.698062
-4.589468
-4.449379
-4.271434
-4.048820
-3.774430
-3.441062
-3.041718
-2.570228
-2.021828
-1.400011
-0.680831
-0.007527
0.003661
23.946337
83.781920
186.779939
348.303757
545.118856
804.610365
-4.996664
-4.995679
-4.993925
-4.990896
-4.986099
-4.978792
-4.967926
-4.952071
-4.929327
-4.897229
-4.852665
-4.791802
-4.710039
-4.602006
-4.461601
-4.282093
-4.056268
-3.776663
-3.435895
-3.027195
-2.545299
-1.986918
-1.359050
-0.628338
0.000647
0.004480
28.072298
85.639918
185.124828
346.406239
548.550774
828.749747
-4.997586
-4.996831
-4.995477
-4.993118
-4.989342
-4.983523
-4.974764
-4.961824
-4.943027
-4.916162
-4.878386
-4.826129
-4.755026
-4.659884
-4.534713
-4.372830
-4.167035
-3.909853
-3.593754
-3.211206
-2.754424
-2.214928
-1.584321
-0.857240
-0.008099
0.000963
14.216935
72.070680
172.024440
337.155067
548.098900
854.603629
-4.998141
-4.997512
-4.996372
-4.994359
-4.991085
-4.985954
-4.978098
-4.966292
-4.948860
-4.923554
-4.887450
-4.836836
-4.767141
-4.672898
-4.547784
-4.384722
-4.176052
-3.913717
-3.589446
-3.194908
-2.722068
-2.163814
-1.519080
-0.775586
0.000294
0.001608
19.687582
74.377354
169.598266
333.515542
549.506532
882.482756
-4.998707
-4.998243
-4.997392
-4.995875
-4.993379
-4.989414
-4.983261
-4.973890
-4.959862
-4.939222
-4.909368
-4.866935
-4.807674
-4.726377
-4.616847
-4.471966
-4.283860
-4.044218
-3.744771
-3.377915
-2.937428
-2.419223
-1.818723
-1.147490
-0.215763
0.007535
3.703585
60.378723
155.718795
322.588275
546.958244
913.140430
-4.999052
-4.998682
-4.997995
-4.996750
-4.994661
-4.991275
-4.985910
-4.977567
-4.964820
-4.945693
-4.917507
-4.876738
-4.818887
-4.738395
-4.628644
-4.482063
-4.290389
-4.045044
-3.737555
-3.359794
-2.903590
-2.359501
-1.713679
-0.962448
-0.004410
-0.001962
11.213682
63.313541
152.478906
316.867374
545.422841
945.752264
-4.999348
-4.999074
-4.998558
-4.997609
-4.995987
-4.993309
-4.988982
-4.982121
-4.971441
-4.955112
-4.930609
-4.894538
-4.842478
-4.768853
-4.666898
-4.528724
-4.345551
-4.108075
-3.806878
-3.432635
-2.975667
-2.424707
-1.764142
-0.990369
-0.000135
-0.004149
11.341525
58.412780
143.435166
306.936585
540.988710
982.971212
-4.999567
-4.999371
-4.998996
-4.998294
-4.997073
-4.995017
-4.991626
-4.986140
-4.977426
-4.963837
-4.943045
-4.911850
-4.865983
-4.799940
-4.706884
-4.578676
-4.406086
-4.179252
-3.888392
-3.524742
-3.081574
-2.555141
-1.942411
-1.254890
-0.329696
-0.004209
3.328440
52.681784
133.804651
295.745046
533.847871
1021.037275
-4.999724
-4.999589
-4.999326
-4.998825
-4.997936
-4.996405
-4.993824
-4.989556
-4.982626
-4.971583
-4.954324
-4.927884
-4.888207
-4.829928
-4.746210
-4.628696
-4.467662
-4.252427
-3.972099
-3.616629
-3.178069
-2.651919
-2.035989
-1.343011
-0.450366
-0.006339
2.450710
47.532335
123.837001
283.218148
524.326904
1065.644132
-4.999830
-4.999740
-4.999561
-4.999214
-4.998585
-4.997475
-4.995560
-4.992317
-4.986929
-4.978143
-4.964097
-4.942095
-4.908346
-4.857701
-4.783412
-4.676992
-4.528277
-4.325759
-4.057321
-3.711380
-3.278382
-2.752597
-2.132279
-1.432921
-0.591919
-0.005594
0.008140
42.525694
113.755660
269.491424
511.297443
1111.653556
-4.999900
-4.999843
-4.999727
-4.999497
-4.999069
-4.998296
-4.996926
-4.994547
-4.990491