<?xml version='1.0' encoding='UTF-8'?>
<VTKFile xmlns='VTK' byte_order='LittleEndian' version='0.1' type='UnstructuredGrid'>
<UnstructuredGrid>
<Piece NumberOfCells='1771' NumberOfPoints='1771'>
<Points>
<DataArray NumberOfComponents='3' type='Float32' Name='Position' format='ascii'>
2.490000 0.500000 0.000000
2.490000 0.500000 0.000000
2.490000 0.500000 0.000000
2.490000 0.500000 0.000000
2.490000 0.500000 0.000000
2.527500 0.500000 0.000000
2.527500 0.500000 0.000000
2.527500 0.500000 0.000000
2.527500 0.500000 0.000000
2.527500 0.500000 0.000000
0.025000 0.000000 0.000000
0.025000 0.012500 0.000000
0.025000 0.025000 0.000000
0.025000 0.037500 0.000000
0.025000 0.050000 0.000000
0.025000 0.062500 0.000000
0.025000 0.075000 0.000000
0.025000 0.087500 0.000000
0.025000 0.100000 0.000000
0.025000 0.112500 0.000000
0.025000 0.125000 0.000000
0.025000 0.137500 0.000000
0.025000 0.150000 0.000000
0.025000 0.162500 0.000000
0.025000 0.175000 0.000000
0.025000 0.187500 0.000000
0.025000 0.200000 0.000000
0.025000 0.212500 0.000000
0.025000 0.225000 0.000000
0.025000 0.237500 0.000000
0.025000 0.250000 0.000000
0.025000 0.262500 0.000000
0.025000 0.275000 0.000000
0.025000 0.287500 0.000000
0.025000 0.300000 0.000000
0.025000 0.312500 0.000000
0.025000 0.325000 0.000000
0.025000 0.337500 0.000000
0.025000 0.350000 0.000000
0.025000 0.362500 0.000000
0.025000 0.375000 0.000000
0.025000 0.387500 0.000000
2.565000 0.500000 0.000000
2.565000 0.500000 0.000000
2.565000 0.500000 0.000000
2.565000 0.500000 0.000000
2.565000 0.500000 0.000000
0.062500 0.000000 0.000000
0.062500 0.012500 0.000000
0.062500 0.025000 0.000000
0.062500 0.037500 0.000000
0.062500 0.050000 0.000000
0.062500 0.062500 0.000000
0.062500 0.075000 0.000000
0.062500 0.087500 0.000000
0.062500 0.100000 0.000000
0.062500 0.112500 0.000000
0.062500 0.125000 0.000000
0.062500 0.137500 0.000000
0.062500 0.150000 0.000000
0.062500 0.162500 0.000000
0.062500 0.175000 0.000000
0.062500 0.187500 0.000000
0.062500 0.200000 0.000000
0.062500 0.212500 0.000000
0.062500 0.225000 0.000000
0.062500 0.237500 0.000000
0.062500 0.250000 0.000000
0.062500 0.262500 0.000000
0.062500 0.275000 0.000000
0.062500 0.287500 0.000000
0.062500 0.300000 0.000000
0.062500 0.312500 0.000000
0.062500 0.325000 0.000000
0.062500 0.337500 0.000000
0.062500 0.350000 0.000000
0.062500 0.362500 0.000000
0.062500 0.375000 0.000000
0.062500 0.387500 0.000000
2.602500 0.500000 0.000000
2.602500 0.500000 0.000000
2.602500 0.500000 0.000000
2.602500 0.500000 0.000000
2.602500 0.500000 0.000000
0.100000 0.000000 0.000000
0.100000 0.012500 0.000000
0.100000 0.025000 0.000000
0.100000 0.037500 0.000000
0.100000 0.050000 0.000000
0.100000 0.062500 0.000000
0.100000 0.075000 0.000000
0.100000 0.087500 0.000000
0.100000 0.100000 0.000000
0.100000 0.112500 0.000000
0.100000 0.125000 0.000000
0.100000 0.137500 0.000000
0.100000 0.150000 0.000000
0.100000 0.162500 0.000000
0.100000 0.175000 0.000000
0.100000 0.187500 0.000000
0.100000 0.200000 0.000000
0.100000 0.212500 0.000000
0.100000 0.225000 0.000000
0.100000 0.237500 0.000000
0.100000 0.250000 0.000000
0.100000 0.262500 0.000000
0.100000 0.275000 0.000000
0.100000 0.287500 0.000000
0.100000 0.300000 0.000000
0.100000 0.312500 0.000000
0.100000 0.325000 0.000000
0.100000 0.337500 0.000000
0.100000 0.350000 0.000000
0.100000 0.362500 0.000000
0.100000 0.375000 0.000000
0.100000 0.387500 0.000000
2.640000 0.500000 0.000000
2.640000 0.500000 0.000000
2.640000 0.500000 0.000000
2.640000 0.500000 0.000000
2.640000 0.500000 0.000000
0.137500 0.000000 0.000000
0.137500 0.012500 0.000000
0.137500 0.025000 0.000000
0.137500 0.037500 0.000000
0.137500 0.050000 0.000000
0.137500 0.062500 0.000000
0.137500 0.075000 0.000000
0.137500 0.087500 0.000000
0.137500 0.100000 0.000000
0.137500 0.112500 0.000000
0.137500 0.125000 0.000000
0.137500 0.137500 0.000000
0.137500 0.150000 0.000000
0.137500 0.162500 0.000000
0.137500 0.175000 0.000000
0.137500 0.187500 0.000000
0.137500 0.200000 0.000000
0.137500 0.212500 0.000000
0.137500 0.225000 0.000000
0.137500 0.237500 0.000000
0.137500 0.250000 0.000000
0.137500 0.262500 0.000000
0.137500 0.275000 0.000000
0.137500 0.287500 0.000000
0.137500 0.300000 0.000000
0.137500 0.312500 0.000000
0.137500 0.325000 0.000000
0.137500 0.337500 0.000000
0.137500 0.350000 0.000000
0.137500 0.362500 0.000000
0.137500 0.375000 0.000000
0.137500 0.387500 0.000000
2.677500 0.500000 0.000000
2.677500 0.500000 0.000000
2.677500 0.500000 0.000000
2.677500 0.500000 0.000000
2.677500 0.500000 0.000000
0.175000 0.000000 0.000000
0.175000 0.012500 0.000000
0.175000 0.025000 0.000000
0.175000 0.037500 0.000000
0.175000 0.050000 0.000000
0.175000 0.062500 0.000000
0.175000 0.075000 0.000000
0.175000 0.087500 0.000000
0.175000 0.100000 0.000000
0.175000 0.112500 0.000000
0.175000 0.125000 0.000000
0.175000 0.137500 0.000000
0.175000 0.150000 0.000000
0.175000 0.162500 0.000000
0.175000 0.175000 0.000000
0.175000 0.187500 0.000000
0.175000 0.200000 0.000000
0.175000 0.212500 0.000000
0.175000 0.225000 0.000000
0.175000 0.237500 0.000000
0.175000 0.250000 0.000000
0.175000 0.262500 0.000000
0.175000 0.275000 0.000000
0.175000 0.287500 0.000000
0.175000 0.300000 0.000000
0.175000 0.312500 0.000000
0.175000 0.325000 0.000000
0.175000 0.337500 0.000000
0.175000 0.350000 0.000000
0.175000 0.362500 0.000000
0.175000 0.375000 0.000000
0.175000 0.387500 0.000000
2.715000 0.500000 0.000000
2.715000 0.500000 0.000000
2.715000 0.500000 0.000000
2.715000 0.500000 0.000000
2.715000 0.500000 0.000000
0.212500 0.000000 0.000000
0.212500 0.012500 0.000000
0.212500 0.025000 0.000000
0.212500 0.037500 0.000000
0.212500 0.050000 0.000000
0.212500 0.062500 0.000000
0.212500 0.075000 0.000000
0.212500 0.087500 0.000000
0.212500 0.100000 0.000000
0.212500 0.112500 0.000000
0.212500 0.125000 0.000000
0.212500 0.137500 0.000000
0.212500 0.150000 0.000000
0.212500 0.162500 0.000000
0.212500 0.175000 0.000000
0.212500 0.187500 0.000000
0.212500 0.200000 0.000000
0.212500 0.212500 0.000000
0.212500 0.225000 0.000000
0.212500 0.237500 0.000000
0.212500 0.250000 0.000000
0.212500 0.262500 0.000000
0.212500 0.275000 0.000000
0.212500 0.287500 0.000000
0.212500 0.300000 0.000000
0.212500 0.312500 0.000000
0.212500 0.325000 0.000000
0.212500 0.337500 0.000000
0.212500 0.350000 0.000000
0.212500 0.362500 0.000000
0.212500 0.375000 0.000000
0.212500 0.387500 0.000000
2.752500 0.500000 0.000000
2.752500 0.500000 0.000000
2.752500 0.500000 0.000000
2.752500 0.500000 0.000000
2.752500 0.500000 0.000000
0.250000 0.000000 0.000000
0.250000 0.012500 0.000000
0.250000 0.025000 0.000000
0.250000 0.037500 0.000000
0.250000 0.050000 0.000000
0.250000 0.062500 0.000000
0.250000 0.075000 0.000000
0.250000 0.087500 0.000000
0.250000 0.100000 0.000000
0.250000 0.112500 0.000000
0.250000 0.125000 0.000000
0.250000 0.137500 0.000000
0.250000 0.150000 0.000000
0.250000 0.162500 0.000000
0.250000 0.175000 0.000000
0.250000 0.187500 0.000000
0.250000 0.200000 0.000000
0.250000 0.212500 0.000000
0.250000 0.225000 0.000000
0.250000 0.237500 0.000000
0.250000 0.250000 0.000000
0.250000 0.262500 0.000000
0.250000 0.275000 0.000000
0.250000 0.287500 0.000000
0.250000 0.300000 0.000000
0.250000 0.312500 0.000000
0.250000 0.325000 0.000000
0.250000 0.337500 0.000000
0.250000 0.350000 0.000000
0.250000 0.362500 0.000000
0.250000 0.375000 0.000000
0.250000 0.387500 0.000000
2.790000 0.500000 0.000000
2.790000 0.500000 0.000000
2.790000 0.500000 0.000000
2.790000 0.500000 0.000000
2.790000 0.500000 0.000000
0.287500 0.000000 0.000000
0.287500 0.012500 0.000000
0.287500 0.025000 0.000000
0.287500 0.037500 0.000000
0.287500 0.050000 0.000000
0.287500 0.062500 0.000000
0.287500 0.075000 0.000000
0.287500 0.087500 0.000000
0.287500 0.100000 0.000000
0.287500 0.112500 0.000000
0.287500 0.125000 0.000000
0.287500 0.137500 0.000000
0.287500 0.150000 0.000000
0.287500 0.162500 0.000000
0.287500 0.175000 0.000000
0.287500 0.187500 0.000000
0.287500 0.200000 0.000000
0.287500 0.212500 0.000000
0.287500 0.225000 0.000000
0.287500 0.237500 0.000000
0.287500 0.250000 0.000000
0.287500 0.262500 0.000000
0.287500 0.275000 0.000000
0.287500 0.287500 0.000000
0.287500 0.300000 0.000000
0.287500 0.312500 0.000000
0.287500 0.325000 0.000000
0.287500 0.337500 0.000000
0.287500 0.350000 0.000000
0.287500 0.362500 0.000000
0.287500 0.375000 0.000000
0.287500 0.387500 0.000000
2.827500 0.500000 0.000000
2.827500 0.500000 0.000000
2.827500 0.500000 0.000000
2.827500 0.500000 0.000000
2.827500 0.500000 0.000000
0.325000 0.000000 0.000000
0.325000 0.012500 0.000000
0.325000 0.025000 0.000000
0.325000 0.037500 0.000000
0.325000 0.050000 0.000000
0.325000 0.062500 0.000000
0.325000 0.075000 0.000000
0.325000 0.087500 0.000000
0.325000 0.100000 0.000000
0.325000 0.112500 0.000000
0.325000 0.125000 0.000000
0.325000 0.137500 0.000000
0.325000 0.150000 0.000000
0.325000 0.162500 0.000000
0.325000 0.175000 0.000000
0.325000 0.187500 0.000000
0.325000 0.200000 0.000000
0.325000 0.212500 0.000000
0.325000 0.225000 0.000000
0.325000 0.237500 0.000000
0.325000 0.250000 0.000000
0.325000 0.262500 0.000000
0.325000 0.275000 0.000000
0.325000 0.287500 0.000000
0.325000 0.300000 0.000000
0.325000 0.312500 0.000000
0.325000 0.325000 0.000000
0.325000 0.337500 0.000000
0.325000 0.350000 0.000000
0.325000 0.362500 0.000000
0.325000 0.375000 0.000000
0.325000 0.387500 0.000000
2.865000 0.500000 0.000000
2.865000 0.500000 0.000000
2.865000 0.500000 0.000000
2.865000 0.500000 0.000000
2.865000 0.500000 0.000000
0.362500 0.000000 0.000000
0.362500 0.012500 0.000000
0.362500 0.025000 0.000000
0.362500 0.037500 0.000000
0.362500 0.050000 0.000000
0.362500 0.062500 0.000000
0.362500 0.075000 0.000000
0.362500 0.087500 0.000000
0.362500 0.100000 0.000000
0.362500 0.112500 0.000000
0.362500 0.125000 0.000000
0.362500 0.137500 0.000000
0.362500 0.150000 0.000000
0.362500 0.162500 0.000000
0.362500 0.175000 0.000000
0.362500 0.187500 0.000000
[...]
<PointData>
<DataArray NumberOfComponents='1' type='Int32' Name='ParticleType' format='ascii'>
5
5
5
5
5
5
5
5
5
5
2
2
2
2
2
2
2
2
2
2
2
2
2
2
2
2
2
2
2
2
2
2
2
1
1
0
0
0
0
0
0
0
5
5
5
5
5
2
2
2
2
2
2
2
2
2
2
2
2
2
2
2
2
2
2
2
2
2
2
2
1
1
0
0
0
0
0
0
0
5
5
5
5
5
2
2
2
2
2
2
2
2
2
2
2
2
2
2
2
2
2
2
2
2
2
2
1
1
0
0
0
0
0
0
0
0
5
5
5
5
5
2
2
2
2
2
2
2
2
2
2
2
2
2
2
2
2
2
2
2
2
2
2
1
1
0
0
0
0
0
0
0
0
5
5
5
5
5
2
2
2
2
2
2
2
2
2
2
2
2
2
2
2
2
2
2
2
2
2
2
1
0
0
0
0
0
0
0
0
0
5
5
5
5
5
2
2
2
2
2
2
2
2
2
2
2
2
2
2
2
2
2
2
2
2
2
1
1
0
0
0
0
0
0
0
0
0
5
5
5
5
5
2
2
2
2
2
2
2
2
2
2
2
2
2
2
2
2
2
2
2
2
2
1
1
0
0
0
0
0
0
0
0
0
5
5
5
5
5
2
2
2
2
2
2
2
2
2
2
2
2
2
2
2
2
2
2
2
2
2
1
1
0
0
0
0
0
0
0
0
0
5
5
5
5
5
2
2
2
2
2
2
2
2
2
2
2
2
2
2
2
2
2
2
2
2
2
1
1
0
0
0
0
0
0
0
0
0
5
5
5
5
5
2
2
2
2
2
2
2
2
2
2
2
2
2
2
2
2
2
2
2
2
2
1
1
0
0
0
0
0
0
0
0
0
5
5
5
5
5
2
2
2
2
2
2
2
2
2
2
2
2
2
2
2
2
2
2
2
2
1
1
0
0
0
0
0
0
0
0
0
0
5
5
5
5
5
2
2
2
2
2
2
2
2
2
2
2
2
2
2
2
2
2
2
2
2
1
1
0
0
0
0
0
0
0
0
0
0
5
5
5
5
5
2
2
2
2
2
2
2
2
2
2
2
2
2
2
2
2
2
2
2
2
2
1
1
0
0
0
0
0
0
0
0
0
5
5
5
5
5
2
2
2
2
2
2
2
2
2
2
2
2
2
2
2
2
2
2
2
2
1
1
0
0
0
0
0
0
0
0
0
0
2
2
2
2
2
2
2
2
2
2
2
2
2
2
2
2
2
2
2
2
1
1
0
0
0
0
0
0
0
0
0
0
2
2
2
2
2
2
2
2
2
2
2
2
2
2
2
2
2
2
2
2
2
1
0
0
0
0
0
0
0
0
0
0
2
2
2
2
2
2
2
2
2
2
2
2
2
2
2
2
2
2
2
2
2
1
1
0
0
0
0
0
0
0
0
0
2
2
2
2
2
2
2
2
2
2
2
2
2
2
2
2
2
2
2
2
2
1
1
0
0
0
0
0
0
0
0
0
2
2
2
2
2
2
2
2
2
2
2
2
2
2
2
2
2
2
2
2
2
1
1
0
0
0
0
0
0
0
0
0
2
2
2
2
2
2
2
2
2
2
2
2
2
2
2
2
2
2
2
2
2
1
1
0
0
0
0
0
0
0
0
0
2
2
2
2
2
2
2
2
2
2
2
2
2
2
2
2
2
2
2
2
2
1
1
0
0
0
0
0
0
0
0
0
2
2
2
2
2
2
2
2
2
2
2
2
2
2
2
2
2
2
2
2
2
1
1
0
0
0
0
0
0
0
0
0
2
2
2
2
2
2
2
2
2
2
2
2
2
2
2
2
2
2
2
2
2
1
1
0
0
0
0
0
0
0
0
0
2
2
2
2
2
2
2
2
2
2
2
2
2
2
2
2
2
2
2
2
2
1
1
0
0
0
0
0
0
0
0
0
2
2
2
2
2
2
2
2
2
2
2
2
2
2
2
2
2
2
2
2
2
1
1
0
0
0
0
0
0
0
0
0
2
2
2
2
2
2
2
2
2
2
2
2
2
2
2
2
2
2
2
2
2
1
1
0
0
0
0
0
0
0
0
0
2
2
2
2
2
2
2
2
2
2
2
2
2
2
2
2
2
2
2
2
2
1
1
0
0
0
0
0
0
0
0
0
2
2
2
2
2
2
2
2
2
2
2
2
2
2
2
2
2
2
2
2
2
1
1
0
0
0
0
0
0
0
0
0
2
2
2
2
2
2
2
2
2
2
2
2
2
2
2
2
2
2
2
2
2
2
1
0
0
0
0
0
0
0
0
0
2
2
2
2
2
2
2
2
2
2
2
2
2
2
2
2
2
2
2
2
2
1
1
0
0
0
0
0
0
0
0
0
2
2
2
2
2
2
2
2
2
2
2
2
2
2
2
2
2
2
2
2
2
2
1
1
0
0
0
0
0
0
0
0
2
2
2
2
2
2
2
2
2
2
2
2
2
2
2
2
2
2
2
2
2
2
1
1
0
0
0
0
0
0
0
0
2
2
2
2
2
2
2
2
2
2
2
2
2
2
2
2
2
2
2
2
2
2
1
1
0
0
0
0
0
0
0
0
2
2
2
2
2
2
2
2
2
2
2
2
2
2
2
2
2
2
2
2
2
2
1
1
0
0
0
0
0
0
0
0
2
2
2
2
2
2
2
2
2
2
2
2
2
2
2
2
2
2
2
2
2
2
1
1
0
0
0
0
0
0
0
0
2
2
2
2
2
2
2
2
2
2
2
2
2
2
2
2
2
2
2
2
2
2
1
1
0
0
0
0
0
0
0
0
2
2
2
2
2
2
2
2
2
2
2
2
2
2
2
2
2
2
2
2
2
2
1
1
0
0
0
0
0
0
0
0
2
2
2
2
2
2
2
2
2
2
2
2
2
2
2
2
2
2
2
2
2
2
1
1
0
0
0
0
0
0
0
0
2
2
2
2
2
2
2
2
2
2
2
2
2
2
2
2
2
2
2
2
2
2
1
1
0
0
0
0
0
0
0
0
2
2
2
2
2
2
2
2
2
2
2
2
2
2
2
2
2
2
2
2
2
2
1
1
0
0
0
0
0
0
0
0
2
2
2
2
2
2
2
2
2
2
2
2
2
2
2
2
2
2
2
2
2
2
2
1
0
0
0
0
0
0
0
0
2
2
2
2
2
2
2
2
2
2
2
2
2
2
2
2
2
2
2
2
2
2
1
1
0
0
0
0
0
0
0
0
2
2
2
2
2
2
2
2
2
2
2
2
2
2
2
2
2
2
2
2
2
2
2
1
1
0
0
0
0
0
0
0
2
2
2
2
2
2
2
2
2
2
2
2
2
2
2
2
2
2
2
2
2
2
2
1
0
0
0
0
0
0
0
0
2
2
2
2
2
2
2
2
2
2
2
2
2
2
2
2
2
2
2
2
2
2
2
1
1
0
0
0
0
0
0
0
2
2
2
2
2
2
2
2
2
2
2
2
2
2
2
2
2
2
2
2
2
2
2
1
1
0
0
0
0
0
0
0
2
2
2
2
2
2
2
2
2
2
2
2
2
2
2
2
2
2
2
2
2
2
2
1
1
0
0
0
0
0
0
0
2
2
2
2
2
2
2
2
2
2
2
2
2
2
2
2
2
2
2
2
2
2
2
1
1
0
0
0
0
0
0
0
2
2
2
2
2
2
2
2
2
2
2
2
2
2
2
2
2
2
2
2
2
2
2
1
1
0
0
0
0
0
0
0
2
2
2
2
2
2
2
2
2
2
2
2
2
2
2
2
2
2
2
2
2
2
2
1
1
0
0
0
0
0
0
0
2
2
2
2
2
2
2
2
2
2
2
2
2
2
2
2
2
2
2
2
2
2
2
2
1
0
0
0
0
0
0
0
2
2
2
2
2
2
2
2
2
2
2
2
2
2
2
2
2
2
2
2
2
2
2
2
1
1
0
0
0
0
0
0
2
2
2
2
2
2
2
2
2
2
2
2
2
2
2
2
2
2
2
2
2
2
2
2
1
0
0
0
0
0
0
0
</DataArray>
<DataArray NumberOfComponents='1' type='Float32' Name='Temperature' format='ascii'>
-3.000000
-3.000000
-3.000000
-3.000000
-3.000000
-3.000000
-3.000000
-3.000000
-3.000000
-3.000000
-4.712316
-4.697381
-4.673506
-4.637093
-4.587738
-4.524741
-4.447260
-4.354352
-4.245003
-4.118171
-3.972828
-3.808013
-3.622891
-3.416804
-3.189335
-2.940350
-2.670009
-2.378705
-2.066807
-1.734055
-1.378400
-0.992635
-0.574943
-0.008493
-0.003855
3.341047
15.892112
28.877238
42.514891
55.135401
64.959372
72.022552
-3.000000
-3.000000
-3.000000
-3.000000
-3.000000
-4.701229
-4.685666
-4.660781
-4.622821
-4.571357
-4.505642
-4.424776
-4.327738
-4.213413
-4.080632
-3.928204
-3.754968
-3.559841
-3.341882
-3.100352
-2.834790
-2.545088
-2.231577
-1.895102
-1.537166
-1.159532
-0.768597
-0.343811
-0.005531
0.006544
15.133309
30.369323
48.453256
67.648777
85.727717
99.884211
110.097423
-3.000000
-3.000000
-3.000000
-3.000000
-3.000000
-4.688509
-4.672279
-4.646327
-4.606735
-4.553053
-4.484501
-4.400141
-4.298920
-4.179700
-4.041300
-3.882539
-3.702278
-3.499451
-3.273077
-3.022232
-2.745972
-2.443222
-2.112682
-1.752910
-1.362675
-0.942632
-0.493021
-0.007586
-0.001426
7.869796
24.117335
44.327866
68.077894
93.285716
117.124067
135.871091
149.451154
-3.000000
-3.000000
-3.000000
-3.000000
-3.000000
-4.671098
-4.654053
-4.626804
-4.585247
-4.528922
-4.457028
-4.368596
-4.262528
-4.137628
-3.992632
-3.826248
-3.637203
-3.424295
-3.186453
-2.922819
-2.632838
-2.316370
-1.973813
-1.606288
-1.215232
-0.807261
-0.358938
-0.005068
0.005391
16.721863
36.087598
61.152628
90.583180
121.962639
151.676148
175.067096
192.032235
-3.000000
-3.000000
-3.000000
-3.000000
-3.000000
-4.656026
-4.638200
-4.609702
-4.566235
-4.507321
-4.432118
-4.339619
-4.228692
-4.098119
-3.946648
-3.773044
-3.576161
-3.355010
-3.108841
-2.837221
-2.540117
-2.217963
-1.871694
-1.502706
-1.111222
-0.702758
-0.194079
-0.001398
1.683254
24.410269
48.349664
78.283578
113.045349
150.190832
185.496610
213.379298
233.660717
-3.000000
-3.000000
-3.000000
-3.000000
-3.000000
-4.648506
-4.630334
-4.601288
-4.556999
-4.496990
-4.420424
-4.326301
-4.213499
-4.080817
-3.927022
-3.750896
-3.551284
-3.327121
-3.077430
-2.801251
-2.497499
-2.164776
-1.801277
-1.404964
-0.975326
-0.510789
-0.008423
-0.000735
8.631367
29.976991
57.555530
92.489136
133.309767
177.021618
218.641813
251.561717
275.544412
-3.000000
-3.000000
-3.000000
-3.000000
-3.000000
-4.644544
-4.626126
-4.596686
-4.551797
-4.490974
-4.413370
-4.317970
-4.203634
-4.069130
-3.913173
-3.734452
-3.531661
-3.303506
-3.048712
-2.766031
-2.454287
-2.112502
-1.740195
-1.337465
-0.908458
-0.440539
-0.005962
-0.000315
13.396755
36.111211
67.125228
106.714369
153.277992
203.341656
251.165341
289.085419
316.771888
-3.000000
-3.000000
-3.000000
-3.000000
-3.000000
-4.641598
-4.622937
-4.593106
-4.547608
-4.485942
-4.407230
-4.310413
-4.194298
-4.057577
-3.898868
-3.716752
-3.509804
-3.276650
-3.016021
-2.726850
-2.408396
-2.060419
-1.683452
-1.278455
-0.852104
-0.378877
-0.005253
0.005880
18.178378
42.965527
77.389020
121.549274
173.851164
230.376636
284.593681
327.710267
359.270956
-3.000000
-3.000000
-3.000000
-3.000000
-3.000000
-4.639455
-4.620633
-4.590535
-4.544617
-4.482351
-4.402821
-4.304915
-4.187369
-4.048795
-3.887720
-3.702645
-3.492097
-3.254718
-2.989357
-2.695198
-2.371893
-2.019713
-1.639768
-1.233349
-0.808964
-0.329609
-0.007167
0.007205
22.445510
49.287316
86.926546
135.598704
193.691259
256.766054
317.456021
365.827313
401.304981
-3.000000
-3.000000
-3.000000
-3.000000
-3.000000
-4.637577
-4.618549
-4.588110
-4.541649
-4.478607
-4.398024
-4.298737
-4.179427
-4.038653
-3.874908
-3.686680
-3.472537
-3.231213
-2.961724
-2.663485
-2.336433
-1.981135
-1.598975
-1.191230
-0.767901
-0.280626
-0.005946
0.009935
26.634686
56.166389
97.218881
150.400889
214.250246
283.936643
351.262337
405.079282
444.650787
-3.000000
-3.000000
-3.000000
-3.000000
-3.000000
-4.638372
-4.619343
-4.588904
-4.542446
-4.479416
-4.398860
-4.299623
-4.180394
-4.039742
-3.876159
-3.688130
-3.474196
-3.233041
-2.963583
-2.665021
-2.336785
-1.978101
-1.586802
-1.154540
-0.677784
-0.005964
-0.000568
4.279170
28.264884
60.285011
105.185830
163.505165
233.576372
310.171065
384.316175
443.692740
487.434847
-3.000000
-3.000000
-3.000000
-3.000000
-3.000000
-4.644695
-4.625769
-4.595481
-4.549225
-4.486420
-4.406076
-4.306996
-4.187819
-4.047060
-3.883161
-3.694550
-3.479715
-3.237269
-2.965992
-2.664777
-2.332350
-1.966568
-1.563318
-1.114547
-0.618804
-0.004110
-0.002135
6.249207
31.295614
65.559465
113.720186
176.617979
252.651393
336.200977
417.414640
482.645889
530.825433
-3.000000
-3.000000
-3.000000
-3.000000
-3.000000
-4.657201
-4.638675
-4.609016
-4.563700
-4.502132
-4.423308
-4.326011
-4.208857
-4.070324
-3.908802
-3.722652
-3.510274
-3.270193
-3.001154
-2.702244
-2.373007
-2.013570
-1.624880
-1.207784
-0.773144
-0.266371
-0.004225
0.009028
29.734482
65.521166
116.521601
183.812529
265.759732
356.337250
444.784972
516.060095
568.853020
-3.000000
-3.000000
-3.000000
-3.000000
-3.000000
-4.659391
-4.640699
-4.610754
-4.564970
-4.502710
-4.422915
-4.324305
-4.205426
-4.064687
-3.900418
-3.710923
-3.494537
-3.249653
-2.974690
-2.667957
-2.327389
-1.950254
-1.533116
-1.073400
-0.569192
-0.009562
0.000308
9.171778
35.442532
72.906283
126.146235
196.552016
282.658382
378.230617
471.902405
547.609993
603.844993
-4.671595
-4.653181
-4.623672
-4.578531
-4.517102
-4.438308
-4.340842
-4.223213
-4.083791
-3.920859
-3.732682
-3.517575
-3.273972
-3.000447
-2.695627
-2.357882
-1.984707
-1.571976
-1.113457
-0.608314
-0.008081
-0.002114
7.330007
33.955399
71.200441
124.545329
195.517026
282.795344
380.175959
476.084133
553.906942
611.934922
-4.689972
-4.672088
-4.643405
-4.599487
-4.539649
-4.462778
-4.367523
-4.252340
-4.115527
-3.955284
-3.769774
-3.557211
-3.315955
-3.044626
-2.742218
-2.408162
-2.042207
-1.643793
-1.208158
-0.735502
-0.065389
-0.005630
3.546782
31.618117
68.279094
121.169871
192.232343
280.434506
379.601989
477.852744
557.920670
617.854008
-4.706327
-4.688921
-4.660990
-4.618201
-4.559856
-4.484840
-4.391792
-4.279157
-4.145215
-3.988129
-3.805999
-3.596938
-3.359151
-3.091048
-2.791377
-2.459372
-2.094915
-1.698800
-1.271837
-0.824192
-0.304608
-0.004988
0.009646
28.570405
64.970937
118.030298
189.692634
278.943547
379.714972
480.004769
562.056747
623.722168
-4.719973
-4.702800
-4.675221
-4.632925
-4.575176
-4.500804
-4.408387
-4.296294
-4.162722
-4.005748
-3.823387
-3.613673
-3.374757
-3.105020
-2.803219
-2.468646
-2.101285
-1.702079
-1.271987
-0.821648
-0.298025
-0.003581
0.008848
29.416722
65.489918
118.032382
189.372326
278.942267
380.874013
483.017719
567.030922
630.484245
-4.736243
-4.719624
-4.692914
-4.651909
-4.595844
-4.523517
-4.433462
-4.323983
-4.193195
-4.039068
-3.859483
-3.652313
-3.415518
-3.147274
-2.846122
-2.511154
-2.142195
-1.740091
-1.305879
-0.849726
-0.323390
-0.003285
0.008371
27.772691
62.712995
114.539402
185.897317
276.366544
380.064179
484.570597
570.904291
636.388445
-4.751324
-4.735261
-4.709429
-4.669749
-4.615452
-4.545338
-4.457935
-4.351544
-4.224258
-4.074003
-3.898585
-3.695751
-3.463266
-3.199028
-2.901217
-2.568494
-2.200229
-1.796842
-1.359201
-0.896337
-0.368125
-0.005988
0.008597
24.876669
59.017164
110.800089
182.792271
274.526891
380.151092
487.095230
575.809921
643.397730
-4.765526
-4.749868
-4.724663
-4.685895
-4.632759
-4.564008
-4.478115
-4.373310
-4.247608
-4.098849
-3.924741
-3.722929
-3.491071
-3.226955
-2.928652
-2.594718
-2.224435
-1.818166
-1.376784
-0.909254
-0.376573
-0.004106
0.005382
24.644533
58.363730
109.384052
180.898852
272.939489
379.901605
489.028929
580.075293
649.813809
-4.779338
-4.764193
-4.739798
-4.702252
-4.650743
-4.584026
-4.500577
-4.398628
-4.276193
-4.131106
-3.961052
-3.763616
-3.536339
-3.276789
-2.982697
-2.652133
-2.283786
-1.877375
-1.433378
-0.959343
-0.425115
-0.006845
0.006992
21.452676
54.500712
105.534957
177.679289
270.964739
379.883026
491.573688
585.189189
657.252909
-4.792762
-4.778046
-4.754314
-4.717736
-4.667461
-4.602197
-4.520359
-4.420106
-4.299369
-4.155885
-3.987241
-3.790915
-3.564337
-3.304971
-3.010436
-2.678699
-2.308347
-1.899019
-1.451169
-0.972273
-0.433145
-0.004713
0.003224
21.295125
53.935530
104.059349
175.589028
269.113747
379.417519
493.456838
589.629879
664.097362
-4.805655
-4.791452
-4.768532
-4.733178
-4.684537
-4.621317
-4.541939
-4.444566
-4.327138
-4.187403
-4.022964
-3.831308
-3.609839
-3.355916
-3.066897
-2.740248
-2.373773
-1.966068
-1.516670
-1.030960
-0.489714
-0.007419
0.005375
17.657586
49.827045
100.042068
172.202746
266.954572
379.248525
495.993563
594.952453
672.006578
-4.818298
-4.804552
-4.782341
-4.748026
-4.700715
-4.639069
-4.561445
-4.465931
-4.350372
-4.212416
-4.049547
-3.859138
-3.638475
-3.384806
-3.095384
-2.767576
-2.399087
-1.988418
-1.535038
-1.044235
-0.497527
-0.005225
0.000983
17.590735
49.386985
98.506848
169.896064
264.809588
378.536272
497.808971
599.577909
679.329010
-4.830267
-4.817032
-4.795630
-4.762537
-4.716859
-4.657263
-4.582108
-4.489485
-4.377244
-4.243039
-4.084375
-3.898661
-3.683255
-3.435473
-3.152572
-2.831692
-2.469832
-2.064058
-1.611903
-1.114844
-0.565026
-0.006311
0.003759
13.396272
45.045063
94.344063
166.348322
262.452485
378.189849
500.317293
605.115166
687.759284
-4.842039
-4.829281
-4.808619
-4.776614
-4.732332
-4.674392
-4.601087
-4.510412
-4.400098
-4.267635
-4.110324
-3.925307
-3.709601
-3.460130
-3.173747
-2.847318
-2.477923
-2.063324
-1.602368
-1.099172
-0.541108
-0.006529
0.000063
15.685463
45.537849
93.049776
163.873238
259.988157
377.191062
502.038222
609.929734
695.613468
-4.852826
-4.840523
-4.820581
-4.789654
-4.746800
-4.690631
-4.619432
-4.531193
-4.423639
-4.294274
-4.140445
-3.959419
-3.748477
-3.505020
-3.226640
-2.911113
-2.556169
-2.158910
-1.714980
-1.217774
-0.665783
-0.007664
0.002054
8.374439
41.695605
89.908751
161.194263
258.076317
376.988964
504.653240
615.747010
704.638816
-4.864139
-4.852429
-4.833429
-4.803928
-4.762986
-4.709221
-4.640920
-4.556067
-4.452365
-4.327274
-4.178065
-4.001890
-3.795883
-3.557281
-3.283584
-2.972740
-2.623350
-2.234863
-1.807869
-1.342696
-0.851160
-0.244812
0.001581
1.260997
37.646582
85.097686
156.347939
254.220653
375.347396
506.366275
621.114328
713.594509
-4.874569
-4.863354
-4.845127
-4.816771
-4.777315
-4.725338
-4.659070
-4.576418
-4.474981
-4.352093
-4.204874
-4.030312
-3.825374
-3.587138
-3.312969
-3.000689
-2.648663
-2.255581
-1.819429
-1.332068
-0.791258
-0.007814
-0.001063
4.851793
37.816583
83.684635
153.807515
251.590956
374.150325
508.086575
626.334413
722.435886
-4.884234
-4.873509
-4.856059
-4.828876
-4.790993
-4.740999
-4.677143
-4.597354
-4.499259
-4.380222
-4.237379
-4.067708
-3.868110
-3.635517
-3.367043
-3.060173
-2.712989
-2.324429
-1.894659
-1.424140
-0.924431
-0.336586
0.000892
0.009858
33.197865
79.375765
149.903807
248.683458
373.215745
510.401406
632.427744
732.458692
-4.893807
-4.883608
-4.866986
-4.841044
-4.804793
-4.756799
-4.695267
-4.618056
-4.522693
-4.406400
-4.266130
-4.098642
-3.900591
-3.668668
-3.399779
-3.091274
-2.741222
-2.348689
-1.914140
-1.438454
-0.933945
-0.340763
-0.005382
0.009952
33.724434
77.578887
146.643251
245.232050
371.343739
511.784368
637.762366
741.975583
-4.902607
-4.892898
-4.877052
-4.852280
-4.817596
-4.771574
-4.712434
-4.638063
-4.546025
-4.433591
-4.297776
-4.135389
-3.943104
-3.717545
-3.455414
-3.153660
-2.809715
-2.421795
-1.989362
-1.512580
-1.001094
-0.409681
0.000267
0.008041
28.473507
73.123587
142.574740
242.057131
370.086092
513.944760
644.072625
752.778024
-4.911250
-4.902069
-4.887062
-4.863554
-4.830550
-4.786615
-4.729942
-4.658368
-4.569369
-4.460083
-4.327330
-4.167664
-3.977447
-3.752962
-3.490582
-3.187012
-2.839592
-2.446662
-2.008059
-1.524485
-1.006770
-0.407101
-0.006294
0.008146
29.606099
71.203157
138.968584
238.146360
367.782953
515.124147
649.616406
763.117411
-4.919172
-4.910477
-4.896237
-4.873888
-4.842430
-4.800433
-4.746100
-4.677281
-4.591488
-4.485913
-4.357465
-4.202821
-4.018478
-3.800828
-3.546239
-3.251172
-2.912358
-2.527074
-2.093652
-1.611411
-1.087367
-0.491097
-0.000269
0.006068
23.241045
66.648745
134.795078
234.705014
366.154399
517.078313
656.137119
774.807749
-4.926882
-4.918709
-4.905302
-4.884215
-4.854451
-4.814585
-4.762814
-4.696965
-4.614492
-4.512480
-4.387664
-4.236448
-4.054960
-3.839122
-3.584788
-3.287942
-2.945020
-2.553340
-2.111721
-1.620306
-1.088084
-0.480095
-0.007103
0.006152
25.239928
64.529819
130.798276
230.296892
363.368714
518.002871
661.883551
786.086819
-4.933936
-4.926243
-4.913598
-4.893660
-4.865432
-4.827488
-4.778025
-4.714872
-4.635492
-4.536999
-4.416199
-4.269634
-4.093657
-3.884502
-3.638364
-3.351446
-3.020002
-2.640405
-2.209427
-1.724527
-1.188361
-0.586253
-0.000691
0.004067
17.361229
60.042620
126.588167
226.573804
361.302041
519.681079
668.598077
798.793780
-4.940730
-4.933546
-4.921714
-4.903015
-4.876463
-4.840648
-4.793782
-4.733698
-4.657841
-4.563272
-4.446673
-4.304368
-4.132341
-3.926273
-3.681606
-3.393654
-3.057843
-2.670117
-2.227665
-1.729302
-1.181335
-0.562360
-0.007787
0.004060
20.598707
57.587220
122.148837
221.635835
357.979098
520.287088
674.530897
811.152407
-4.946927
-4.940215
-4.929134
-4.911574
-4.886549
-4.852653
-4.808097
-4.750703
-4.677901
-4.586736
-4.473895
-4.335758
-4.168477
-3.968086
-3.730639
-3.452337
-3.129589
-2.758878
-2.336335
-1.857111
-1.315388
-0.708714
-0.000974
0.002220
10.627496
53.451131
117.988252
217.605845
355.393742
521.603514
681.411277
825.031440
-4.952832
-4.946609
-4.936313
-4.919953
-4.896561
-4.864755
-4.822773
-4.768463
-4.699270
-4.612238
-4.504013
-4.370868
-4.208722
-4.013170
-3.779492
-3.502648
-3.177287
-2.797872
-2.359172
-1.857107
-1.293152
-0.659366
-0.008319
0.001996
15.640781
50.416759
113.050666
212.117636
351.476051
521.811286
687.499988
838.637913
-4.958192
-4.952427
-4.942863
-4.927619
-4.905735
-4.875841
-4.836179
-4.784593
-4.718504
-4.634914
-4.530408
-4.401197
-4.243178
-4.052048
-3.823463
-3.553255
-3.237709
-2.873881
-2.459920
-1.995409
-1.479082
-0.922219
-0.179253
0.000769
2.732795
47.105324
109.039861
207.737674
348.277145
522.661543
694.502252
853.877941
-4.963241
-4.957942
-4.949126
-4.935029
-4.914713
-4.886835
-4.849674
-4.801105
-4.738583
-4.659132
-4.559348
-4.435422
-4.283174
-4.098122
-3.875540
-3.610491
-3.297733
-2.931414
-2.504527
-2.008595
-1.434712
-0.782106
-0.006411
-0.000515
10.521534
43.171068
103.600193
201.723412
343.714559
522.375250
700.698030
868.937681
-4.967780
-4.962911
-4.954786
-4.941747
-4.922862
-4.896804
-4.861851
-4.815864
-4.756256
-4.679967
-4.583466
-4.462763
-4.313462
-4.130869
-3.910154
-3.646594
-3.335894
-2.974574
-2.560393
-2.092918
-1.572400
-1.013964
-0.340728
-0.004648
0.009798
42.215748
100.577085
197.448032
340.078757
522.779548
707.832113
885.814648
-4.972046
-4.967615
-4.960191
-4.948226
-4.930801
-4.906603
-4.873916
-4.830585
-4.773984
-4.700978
-4.607914
-4.490637
-4.344545
-4.164708
-3.946051
-3.683628
-3.372958
-3.010386
-2.593282
-2.119690
-1.583996
-0.987778
-0.137246
-0.003792
4.329807
41.180170
97.012972
192.038267
335.074166
521.837180
713.945588
902.470086
-4.975883
-4.971880
-4.965156
-4.954284
-4.938394
-4.916241
-4.886204
-4.846251
-4.793911
-4.726244
-4.639834
-4.530784
-4.394749
-4.226979
-4.022404
-3.775764
-3.481803
-3.135573
-2.732881
-2.271010
-1.748534
-1.174848
-0.503371
-0.007767
0.004123
31.091963
87.772852
183.749468
329.062412
520.861276
720.769647
921.101543
-4.979357
-4.975757
-4.969689
-4.959836
-4.945356
-4.925044
-4.897319
-4.860187
-4.811205
-4.747442
-4.665457
-4.561290
-4.430469
-4.268049
-4.068668
-3.826672
-3.536303
-3.192024
-2.789024
-2.324040
-1.795389
-1.212097
-0.531922
-0.007656
0.008505
29.849126
83.972222
177.932681
323.402993
519.315693
726.955413
939.906077
-4.982442
-4.979219
-4.973765
-4.964866
-4.951715
-4.933147
-4.907633
-4.873229
-4.827543
-4.767691
-4.690280
-4.591396
-4.466624
-4.311086
-4.119503
-3.886270
-3.605540
-3.271363
-2.877931
-2.420189
-1.894324
-1.304515
-0.625869
-0.005536
0.000798
23.327252
77.425516
170.929569
317.351317
517.795674
733.733323
960.826086
-4.985219
-4.982363
-4.977506
-4.969543
-4.957699
-4.940857
-4.917536
-4.885842
-4.843419
-4.787401
-4.714380
-4.620384
-4.500880
-4.350799
-4.164578
-3.936229
-3.659415
-3.327587
-2.934271
-2.473745
-1.941725
-1.341995
-0.652416
-0.008578
0.006496