<?xml version='1.0' encoding='UTF-8'?>
<VTKFile xmlns='VTK' byte_order='LittleEndian' version='0.1' type='UnstructuredGrid'>
<UnstructuredGrid>
<Piece NumberOfCells='1816' NumberOfPoints='1816'>
<Points>
<DataArray NumberOfComponents='3' type='Float32' Name='Position' format='ascii'>
1.710000 0.400000 0.000000
1.710000 0.412500 0.000000
1.710000 0.425000 0.000000
1.710000 0.437500 0.000000
1.710000 0.450000 0.000000
1.710000 0.462500 0.000000
1.710000 0.475000 0.000000
1.710000 0.487500 0.000000
1.747500 0.400000 0.000000
1.747500 0.412500 0.000000
1.747500 0.425000 0.000000
1.747500 0.437500 0.000000
1.747500 0.450000 0.000000
1.747500 0.462500 0.000000
1.747500 0.475000 0.000000
1.747500 0.487500 0.000000
0.025000 0.000000 0.000000
0.025000 0.012500 0.000000
0.025000 0.025000 0.000000
0.025000 0.037500 0.000000
0.025000 0.050000 0.000000
0.025000 0.062500 0.000000
0.025000 0.075000 0.000000
0.025000 0.087500 0.000000
0.025000 0.100000 0.000000
0.025000 0.112500 0.000000
0.025000 0.125000 0.000000
0.025000 0.137500 0.000000
0.025000 0.150000 0.000000
0.025000 0.162500 0.000000
0.025000 0.175000 0.000000
0.025000 0.187500 0.000000
0.025000 0.200000 0.000000
0.025000 0.212500 0.000000
0.025000 0.225000 0.000000
0.025000 0.237500 0.000000
0.025000 0.250000 0.000000
0.025000 0.262500 0.000000
0.025000 0.275000 0.000000
0.025000 0.287500 0.000000
0.025000 0.300000 0.000000
0.025000 0.312500 0.000000
0.025000 0.325000 0.000000
0.025000 0.337500 0.000000
0.025000 0.350000 0.000000
0.025000 0.362500 0.000000
0.025000 0.375000 0.000000
0.025000 0.387500 0.000000
1.785000 0.400000 0.000000
1.785000 0.412500 0.000000
1.785000 0.425000 0.000000
1.785000 0.437500 0.000000
1.785000 0.450000 0.000000
1.785000 0.462500 0.000000
1.785000 0.475000 0.000000
1.785000 0.487500 0.000000
0.062500 0.000000 0.000000
0.062500 0.012500 0.000000
0.062500 0.025000 0.000000
0.062500 0.037500 0.000000
0.062500 0.050000 0.000000
0.062500 0.062500 0.000000
0.062500 0.075000 0.000000
0.062500 0.087500 0.000000
0.062500 0.100000 0.000000
0.062500 0.112500 0.000000
0.062500 0.125000 0.000000
0.062500 0.137500 0.000000
0.062500 0.150000 0.000000
0.062500 0.162500 0.000000
0.062500 0.175000 0.000000
0.062500 0.187500 0.000000
0.062500 0.200000 0.000000
0.062500 0.212500 0.000000
0.062500 0.225000 0.000000
0.062500 0.237500 0.000000
0.062500 0.250000 0.000000
0.062500 0.262500 0.000000
0.062500 0.275000 0.000000
0.062500 0.287500 0.000000
0.062500 0.300000 0.000000
0.062500 0.312500 0.000000
0.062500 0.325000 0.000000
0.062500 0.337500 0.000000
0.062500 0.350000 0.000000
0.062500 0.362500 0.000000
0.062500 0.375000 0.000000
0.062500 0.387500 0.000000
1.822500 0.400000 0.000000
1.822500 0.412500 0.000000
1.822500 0.425000 0.000000
1.822500 0.437500 0.000000
1.822500 0.450000 0.000000
1.822500 0.462500 0.000000
1.822500 0.475000 0.000000
1.822500 0.487500 0.000000
0.100000 0.000000 0.000000
0.100000 0.012500 0.000000
0.100000 0.025000 0.000000
0.100000 0.037500 0.000000
0.100000 0.050000 0.000000
0.100000 0.062500 0.000000
0.100000 0.075000 0.000000
0.100000 0.087500 0.000000
0.100000 0.100000 0.000000
0.100000 0.112500 0.000000
0.100000 0.125000 0.000000
0.100000 0.137500 0.000000
0.100000 0.150000 0.000000
0.100000 0.162500 0.000000
0.100000 0.175000 0.000000
0.100000 0.187500 0.000000
0.100000 0.200000 0.000000
0.100000 0.212500 0.000000
0.100000 0.225000 0.000000
0.100000 0.237500 0.000000
0.100000 0.250000 0.000000
0.100000 0.262500 0.000000
0.100000 0.275000 0.000000
0.100000 0.287500 0.000000
0.100000 0.300000 0.000000
0.100000 0.312500 0.000000
0.100000 0.325000 0.000000
0.100000 0.337500 0.000000
0.100000 0.350000 0.000000
0.100000 0.362500 0.000000
0.100000 0.375000 0.000000
0.100000 0.387500 0.000000
1.860000 0.400000 0.000000
1.860000 0.412500 0.000000
1.860000 0.425000 0.000000
1.860000 0.437500 0.000000
1.860000 0.450000 0.000000
1.860000 0.462500 0.000000
1.860000 0.475000 0.000000
1.860000 0.487500 0.000000
0.137500 0.000000 0.000000
0.137500 0.012500 0.000000
0.137500 0.025000 0.000000
0.137500 0.037500 0.000000
0.137500 0.050000 0.000000
0.137500 0.062500 0.000000
0.137500 0.075000 0.000000
0.137500 0.087500 0.000000
0.137500 0.100000 0.000000
0.137500 0.112500 0.000000
0.137500 0.125000 0.000000
0.137500 0.137500 0.000000
0.137500 0.150000 0.000000
0.137500 0.162500 0.000000
0.137500 0.175000 0.000000
0.137500 0.187500 0.000000
0.137500 0.200000 0.000000
0.137500 0.212500 0.000000
0.137500 0.225000 0.000000
0.137500 0.237500 0.000000
0.137500 0.250000 0.000000
0.137500 0.262500 0.000000
0.137500 0.275000 0.000000
0.137500 0.287500 0.000000
0.137500 0.300000 0.000000
0.137500 0.312500 0.000000
0.137500 0.325000 0.000000
0.137500 0.337500 0.000000
0.137500 0.350000 0.000000
0.137500 0.362500 0.000000
0.137500 0.375000 0.000000
0.137500 0.387500 0.000000
1.897500 0.400000 0.000000
1.897500 0.412500 0.000000
1.897500 0.425000 0.000000
1.897500 0.437500 0.000000
1.897500 0.450000 0.000000
1.897500 0.462500 0.000000
1.897500 0.475000 0.000000
1.897500 0.487500 0.000000
0.175000 0.000000 0.000000
0.175000 0.012500 0.000000
0.175000 0.025000 0.000000
0.175000 0.037500 0.000000
0.175000 0.050000 0.000000
0.175000 0.062500 0.000000
0.175000 0.075000 0.000000
0.175000 0.087500 0.000000
0.175000 0.100000 0.000000
0.175000 0.112500 0.000000
0.175000 0.125000 0.000000
0.175000 0.137500 0.000000
0.175000 0.150000 0.000000
0.175000 0.162500 0.000000
0.175000 0.175000 0.000000
0.175000 0.187500 0.000000
0.175000 0.200000 0.000000
0.175000 0.212500 0.000000
0.175000 0.225000 0.000000
0.175000 0.237500 0.000000
0.175000 0.250000 0.000000
0.175000 0.262500 0.000000
0.175000 0.275000 0.000000
0.175000 0.287500 0.000000
0.175000 0.300000 0.000000
0.175000 0.312500 0.000000
0.175000 0.325000 0.000000
0.175000 0.337500 0.000000
0.175000 0.350000 0.000000
0.175000 0.362500 0.000000
0.175000 0.375000 0.000000
0.175000 0.387500 0.000000
1.935000 0.400000 0.000000
1.935000 0.412500 0.000000
1.935000 0.425000 0.000000
1.935000 0.437500 0.000000
1.935000 0.450000 0.000000
1.935000 0.462500 0.000000
1.935000 0.475000 0.000000
1.935000 0.487500 0.000000
0.212500 0.000000 0.000000
0.212500 0.012500 0.000000
0.212500 0.025000 0.000000
0.212500 0.037500 0.000000
0.212500 0.050000 0.000000
0.212500 0.062500 0.000000
0.212500 0.075000 0.000000
0.212500 0.087500 0.000000
0.212500 0.100000 0.000000
0.212500 0.112500 0.000000
0.212500 0.125000 0.000000
0.212500 0.137500 0.000000
0.212500 0.150000 0.000000
0.212500 0.162500 0.000000
0.212500 0.175000 0.000000
0.212500 0.187500 0.000000
0.212500 0.200000 0.000000
0.212500 0.212500 0.000000
0.212500 0.225000 0.000000
0.212500 0.237500 0.000000
0.212500 0.250000 0.000000
0.212500 0.262500 0.000000
0.212500 0.275000 0.000000
0.212500 0.287500 0.000000
0.212500 0.300000 0.000000
0.212500 0.312500 0.000000
0.212500 0.325000 0.000000
0.212500 0.337500 0.000000
0.212500 0.350000 0.000000
0.212500 0.362500 0.000000
0.212500 0.375000 0.000000
0.212500 0.387500 0.000000
1.972500 0.400000 0.000000
1.972500 0.412500 0.000000
1.972500 0.425000 0.000000
1.972500 0.437500 0.000000
1.972500 0.450000 0.000000
1.972500 0.462500 0.000000
1.972500 0.475000 0.000000
1.972500 0.487500 0.000000
0.250000 0.000000 0.000000
0.250000 0.012500 0.000000
0.250000 0.025000 0.000000
0.250000 0.037500 0.000000
0.250000 0.050000 0.000000
0.250000 0.062500 0.000000
0.250000 0.075000 0.000000
0.250000 0.087500 0.000000
0.250000 0.100000 0.000000
0.250000 0.112500 0.000000
0.250000 0.125000 0.000000
0.250000 0.137500 0.000000
0.250000 0.150000 0.000000
0.250000 0.162500 0.000000
0.250000 0.175000 0.000000
0.250000 0.187500 0.000000
0.250000 0.200000 0.000000
0.250000 0.212500 0.000000
0.250000 0.225000 0.000000
0.250000 0.237500 0.000000
0.250000 0.250000 0.000000
0.250000 0.262500 0.000000
0.250000 0.275000 0.000000
0.250000 0.287500 0.000000
0.250000 0.300000 0.000000
0.250000 0.312500 0.000000
0.250000 0.325000 0.000000
0.250000 0.337500 0.000000
0.250000 0.350000 0.000000
0.250000 0.362500 0.000000
0.250000 0.375000 0.000000
0.250000 0.387500 0.000000
2.010000 0.400000 0.000000
2.010000 0.412500 0.000000
2.010000 0.425000 0.000000
2.010000 0.437500 0.000000
2.010000 0.450000 0.000000
2.010000 0.462500 0.000000
2.010000 0.475000 0.000000
2.010000 0.487500 0.000000
0.287500 0.000000 0.000000
0.287500 0.012500 0.000000
0.287500 0.025000 0.000000
0.287500 0.037500 0.000000
0.287500 0.050000 0.000000
0.287500 0.062500 0.000000
0.287500 0.075000 0.000000
0.287500 0.087500 0.000000
0.287500 0.100000 0.000000
0.287500 0.112500 0.000000
0.287500 0.125000 0.000000
0.287500 0.137500 0.000000
0.287500 0.150000 0.000000
0.287500 0.162500 0.000000
0.287500 0.175000 0.000000
0.287500 0.187500 0.000000
0.287500 0.200000 0.000000
0.287500 0.212500 0.000000
0.287500 0.225000 0.000000
0.287500 0.237500 0.000000
0.287500 0.250000 0.000000
0.287500 0.262500 0.000000
0.287500 0.275000 0.000000
0.287500 0.287500 0.000000
0.287500 0.300000 0.000000
0.287500 0.312500 0.000000
0.287500 0.325000 0.000000
0.287500 0.337500 0.000000
0.287500 0.350000 0.000000
0.287500 0.362500 0.000000
0.287500 0.375000 0.000000
0.287500 0.387500 0.000000
2.047500 0.400000 0.000000
2.047500 0.412500 0.000000
2.047500 0.425000 0.000000
2.047500 0.437500 0.000000
2.047500 0.450000 0.000000
2.047500 0.462500 0.000000
2.047500 0.475000 0.000000
2.047500 0.487500 0.000000
0.325000 0.000000 0.000000
0.325000 0.012500 0.000000
0.325000 0.025000 0.000000
0.325000 0.037500 0.000000
0.325000 0.050000 0.000000
0.325000 0.062500 0.000000
0.325000 0.075000 0.000000
0.325000 0.087500 0.000000
0.325000 0.100000 0.000000
0.325000 0.112500 0.000000
0.325000 0.125000 0.000000
0.325000 0.137500 0.000000
0.325000 0.150000 0.000000
0.325000 0.162500 0.000000
0.325000 0.175000 0.000000
0.325000 0.187500 0.000000
0.325000 0.200000 0.000000
0.325000 0.212500 0.000000
0.325000 0.225000 0.000000
0.325000 0.237500 0.000000
0.325000 0.250000 0.000000
0.325000 0.262500 0.000000
0.325000 0.275000 0.000000
[...]
<PointData>
<DataArray NumberOfComponents='1' type='Int32' Name='ParticleType' format='ascii'>
5
5
5
5
5
5
5
5
5
5
5
5
5
5
5
5
2
2
2
2
2
2
2
2
2
2
2
2
2
2
2
2
2
2
2
2
2
2
2
2
1
1
0
0
0
0
0
0
5
5
5
5
5
5
5
5
2
2
2
2
2
2
2
2
2
2
2
2
2
2
2
2
2
2
2
2
2
2
2
2
1
1
0
0
0
0
0
0
5
5
5
5
5
5
5
5
2
2
2
2
2
2
2
2
2
2
2
2
2
2
2
2
2
2
2
2
2
2
2
2
1
1
0
0
0
0
0
0
5
5
5
5
5
5
5
5
2
2
2
2
2
2
2
2
2
2
2
2
2
2
2
2
2
2
2
2
2
2
2
1
1
0
0
0
0
0
0
0
5
5
5
5
5
5
5
5
2
2
2
2
2
2
2
2
2
2
2
2
2
2
2
2
2
2
2
2
2
2
2
1
1
0
0
0
0
0
0
0
5
5
5
5
5
5
5
5
2
2
2
2
2
2
2
2
2
2
2
2
2
2
2
2
2
2
2
2
2
2
2
1
1
0
0
0
0
0
0
0
5
5
5
5
5
5
5
5
2
2
2
2
2
2
2
2
2
2
2
2
2
2
2
2
2
2
2
2
2
2
2
1
1
0
0
0
0
0
0
0
5
5
5
5
5
5
5
5
2
2
2
2
2
2
2
2
2
2
2
2
2
2
2
2
2
2
2
2
2
2
2
1
1
0
0
0
0
0
0
0
5
5
5
5
5
5
5
5
2
2
2
2
2
2
2
2
2
2
2
2
2
2
2
2
2
2
2
2
2
2
2
1
0
0
0
0
0
0
0
0
5
5
5
5
5
5
5
5
2
2
2
2
2
2
2
2
2
2
2
2
2
2
2
2
2
2
2
2
2
2
2
1
1
0
0
0
0
0
0
0
5
5
5
5
5
5
5
5
2
2
2
2
2
2
2
2
2
2
2
2
2
2
2
2
2
2
2
2
2
2
1
1
0
0
0
0
0
0
0
0
5
5
5
5
5
5
5
5
2
2
2
2
2
2
2
2
2
2
2
2
2
2
2
2
2
2
2
2
2
2
1
1
0
0
0
0
0
0
0
0
5
5
5
5
5
5
5
5
2
2
2
2
2
2
2
2
2
2
2
2
2
2
2
2
2
2
2
2
2
2
1
1
0
0
0
0
0
0
0
0
5
5
5
5
5
5
5
5
2
2
2
2
2
2
2
2
2
2
2
2
2
2
2
2
2
2
2
2
2
2
1
1
0
0
0
0
0
0
0
0
2
2
2
2
2
2
2
2
2
2
2
2
2
2
2
2
2
2
2
2
2
2
1
1
0
0
0
0
0
0
0
0
2
2
2
2
2
2
2
2
2
2
2
2
2
2
2
2
2
2
2
2
2
2
2
1
1
0
0
0
0
0
0
0
2
2
2
2
2
2
2
2
2
2
2
2
2
2
2
2
2
2
2
2
2
2
1
1
0
0
0
0
0
0
0
0
2
2
2
2
2
2
2
2
2
2
2
2
2
2
2
2
2
2
2
2
2
2
1
1
0
0
0
0
0
0
0
0
2
2
2
2
2
2
2
2
2
2
2
2
2
2
2
2
2
2
2
2
2
2
2
1
1
0
0
0
0
0
0
0
2
2
2
2
2
2
2
2
2
2
2
2
2
2
2
2
2
2
2
2
2
2
2
1
0
0
0
0
0
0
0
0
2
2
2
2
2
2
2
2
2
2
2
2
2
2
2
2
2
2
2
2
2
2
2
1
1
0
0
0
0
0
0
0
2
2
2
2
2
2
2
2
2
2
2
2
2
2
2
2
2
2
2
2
2
2
2
1
1
0
0
0
0
0
0
0
2
2
2
2
2
2
2
2
2
2
2
2
2
2
2
2
2
2
2
2
2
2
2
1
1
0
0
0
0
0
0
0
2
2
2
2
2
2
2
2
2
2
2
2
2
2
2
2
2
2
2
2
2
2
2
1
1
0
0
0
0
0
0
0
2
2
2
2
2
2
2
2
2
2
2
2
2
2
2
2
2
2
2
2
2
2
2
1
1
0
0
0
0
0
0
0
2
2
2
2
2
2
2
2
2
2
2
2
2
2
2
2
2
2
2
2
2
2
2
1
1
0
0
0
0
0
0
0
2
2
2
2
2
2
2
2
2
2
2
2
2
2
2
2
2
2
2
2
2
2
2
1
1
0
0
0
0
0
0
0
2
2
2
2
2
2
2
2
2
2
2
2
2
2
2
2
2
2
2
2
2
2
2
2
1
0
0
0
0
0
0
0
2
2
2
2
2
2
2
2
2
2
2
2
2
2
2
2
2
2
2
2
2
2
2
2
1
0
0
0
0
0
0
0
2
2
2
2
2
2
2
2
2
2
2
2
2
2
2
2
2
2
2
2
2
2
2
2
1
0
0
0
0
0
0
0
2
2
2
2
2
2
2
2
2
2
2
2
2
2
2
2
2
2
2
2
2
2
2
2
1
1
0
0
0
0
0
0
2
2
2
2
2
2
2
2
2
2
2
2
2
2
2
2
2
2
2
2
2
2
2
2
1
1
0
0
0
0
0
0
2
2
2
2
2
2
2
2
2
2
2
2
2
2
2
2
2
2
2
2
2
2
2
2
1
1
0
0
0
0
0
0
2
2
2
2
2
2
2
2
2
2
2
2
2
2
2
2
2
2
2
2
2
2
2
2
1
1
0
0
0
0
0
0
2
2
2
2
2
2
2
2
2
2
2
2
2
2
2
2
2
2
2
2
2
2
2
2
1
1
0
0
0
0
0
0
2
2
2
2
2
2
2
2
2
2
2
2
2
2
2
2
2
2
2
2
2
2
2
2
1
1
0
0
0
0
0
0
2
2
2
2
2
2
2
2
2
2
2
2
2
2
2
2
2
2
2
2
2
2
2
2
2
1
0
0
0
0
0
0
2
2
2
2
2
2
2
2
2
2
2
2
2
2
2
2
2
2
2
2
2
2
2
2
1
1
0
0
0
0
0
0
2
2
2
2
2
2
2
2
2
2
2
2
2
2
2
2
2
2
2
2
2
2
2
2
2
1
1
0
0
0
0
0
2
2
2
2
2
2
2
2
2
2
2
2
2
2
2
2
2
2
2
2
2
2
2
2
2
1
0
0
0
0
0
0
2
2
2
2
2
2
2
2
2
2
2
2
2
2
2
2
2
2
2
2
2
2
2
2
2
1
1
0
0
0
0
0
2
2
2
2
2
2
2
2
2
2
2
2
2
2
2
2
2
2
2
2
2
2
2
2
2
1
1
0
0
0
0
0
2
2
2
2
2
2
2
2
2
2
2
2
2
2
2
2
2
2
2
2
2
2
2
2
2
1
1
0
0
0
0
0
2
2
2
2
2
2
2
2
2
2
2
2
2
2
2
2
2
2
2
2
2
2
2
2
2
1
1
0
0
0
0
0
2
2
2
2
2
2
2
2
2
2
2
2
2
2
2
2
2
2
2
2
2
2
2
2
2
1
1
0
0
0
0
0
2
2
2
2
2
2
2
2
2
2
2
2
2
2
2
2
2
2
2
2
2
2
2
2
2
1
1
0
0
0
0
0
2
2
2
2
2
2
2
2
2
2
2
2
2
2
2
2
2
2
2
2
2
2
2
2
2
1
1
0
0
0
0
0
2
2
2
2
2
2
2
2
2
2
2
2
2
2
2
2
2
2
2
2
2
2
2
2
2
1
1
0
0
0
0
0
2
2
2
2
2
2
2
2
2
2
2
2
2
2
2
2
2
2
2
2
2
2
2
2
2
1
1
0
0
0
0
0
2
2
2
2
2
2
2
2
2
2
2
2
2
2
2
2
2
2
2
2
2
2
2
2
2
1
1
0
0
0
0
0
2
2
2
2
2
2
2
2
2
2
2
2
2
2
2
2
2
2
2
2
2
2
2
2
2
2
1
0
0
0
0
0
2
2
2
2
2
2
2
2
2
2
2
2
2
2
2
2
2
2
2
2
2
2
2
2
2
2
1
0
0
0
0
0
2
2
2
2
2
2
2
2
2
2
2
2
2
2
2
2
2
2
2
2
2
2
2
2
2
2
2
1
0
0
0
0
</DataArray>
<DataArray NumberOfComponents='1' type='Float32' Name='Temperature' format='ascii'>
-3.000000
-3.000000
-3.000000
-3.000000
-3.000000
-3.000000
-3.000000
-3.000000
-3.000000
-3.000000
-3.000000
-3.000000
-3.000000
-3.000000
-3.000000
-3.000000
-4.929968
-4.922700
-4.910828
-4.892249
-4.866202
-4.831591
-4.787058
-4.730991
-4.661554
-4.576708
-4.474258
-4.351912
-4.207353
-4.038329
-3.842757
-3.618833
-3.365122
-3.080611
-2.764614
-2.416425
-2.034527
-1.615450
-1.151489
-0.644220
-0.006574
-0.001732
4.970681
21.250449
38.927856
57.413712
73.044383
85.288321
-3.000000
-3.000000
-3.000000
-3.000000
-3.000000
-3.000000
-3.000000
-3.000000
-4.927455
-4.919886
-4.907518
-4.888159
-4.861012
-4.824930
-4.778486
-4.719989
-4.647498
-4.558845
-4.451672
-4.323472
-4.171649
-3.993597
-3.786786
-3.548893
-3.277937
-2.972460
-2.631717
-2.255872
-1.846245
-1.404920
-0.939572
-0.428885
-0.002440
0.007355
17.456879
37.203173
61.448678
87.118993
109.166923
126.581980
-3.000000
-3.000000
-3.000000
-3.000000
-3.000000
-3.000000
-3.000000
-3.000000
-4.926189
-4.918482
-4.905888
-4.886172
-4.858517
-4.821750
-4.774409
-4.714759
-4.640807
-4.550328
-4.440905
-4.309975
-4.154901
-3.973057
-3.761936
-3.519284
-3.243250
-2.932565
-2.586727
-2.206194
-1.792659
-1.348418
-0.883791
-0.362103
-0.005826
0.008534
23.545402
49.028282
80.443885
113.883917
142.765250
165.685963
-3.000000
-3.000000
-3.000000
-3.000000
-3.000000
-3.000000
-3.000000
-3.000000
-4.924835
-4.916926
-4.903992
-4.883725
-4.855264
-4.817372
-4.768507
-4.706836
-4.630256
-4.536427
-4.422812
-4.286742
-4.125484
-3.936321
-3.716622
-3.463883
-3.175710
-2.849760
-2.483668
-2.075162
-1.622470
-1.126697
-0.586726
-0.008914
0.002277
10.451675
33.895885
64.509829
102.133625
142.423906
177.502477
205.576596
-3.000000
-3.000000
-3.000000
-3.000000
-3.000000
-3.000000
-3.000000
-3.000000
-4.923945
-4.915913
-4.902775
-4.882183
-4.853252
-4.814712
-4.764973
-4.702135
-4.624004
-4.528105
-4.411716
-4.271906
-4.105598
-3.909646
-3.680950
-3.416609
-3.114130
-2.771691
-2.388454
-1.964969
-1.502941
-1.010483
-0.465299
-0.006984
0.006416
18.842968
43.386499
77.999542
121.328270
168.404228
209.677787
242.895577
-3.000000
-3.000000
-3.000000
-3.000000
-3.000000
-3.000000
-3.000000
-3.000000
-4.923570
-4.915509
-4.902326
-4.881668
-4.852653
-4.814013
-4.764162
-4.701205
-4.622951
-4.526925
-4.410401
-4.270434
-4.103923
-3.907681
-3.678555
-3.413578
-3.110188
-2.766507
-2.381672
-1.956252
-1.491916
-0.997505
-0.445346
-0.004846
0.004727
21.044924
48.796815
88.599570
138.723227
193.350528
241.340944
280.069678
-3.000000
-3.000000
-3.000000
-3.000000
-3.000000
-3.000000
-3.000000
-3.000000
-4.923077
-4.914939
-4.901629
-4.880767
-4.851459
-4.812423
-4.762053
-4.698436
-4.619364
-4.522355
-4.404681
-4.263416
-4.095493
-3.897785
-3.667214
-3.400906
-3.096385
-2.751835
-2.366399
-1.940584
-1.475789
-0.981439
-0.422857
-0.007210
0.004964
23.697646
55.319367
100.041786
156.211542
217.538213
271.608034
315.453003
-3.000000
-3.000000
-3.000000
-3.000000
-3.000000
-3.000000
-3.000000
-3.000000
-4.922620
-4.914406
-4.900967
-4.879899
-4.850295
-4.810852
-4.759941
-4.695624
-4.615665
-4.517557
-4.398551
-4.255710
-4.085973
-3.886244
-3.653505
-3.384972
-3.078291
-2.731776
-2.344680
-1.917565
-1.451637
-0.957160
-0.391126
-0.007016
0.006768
26.759454
61.940994
111.426394
173.610956
241.747119
302.072839
351.244423
-3.000000
-3.000000
-3.000000
-3.000000
-3.000000
-3.000000
-3.000000
-3.000000
-4.922350
-4.914089
-4.900571
-4.879374
-4.849578
-4.809863
-4.758574
-4.693741
-4.613088
-4.514055
-4.393839
-4.249448
-4.077769
-3.875675
-3.640152
-3.368446
-3.058214
-2.707566
-2.314750
-1.876980
-1.385260
-0.835910
-0.035600
-0.005062
4.639052
30.566178
68.324037
121.843261
189.530775
264.162203
330.562721
384.972849
-3.000000
-3.000000
-3.000000
-3.000000
-3.000000
-3.000000
-3.000000
-3.000000
-4.922137
-4.913832
-4.900240
-4.878918
-4.848928
-4.808924
-4.757217
-4.691789
-4.610303
-4.510130
-4.388390
-4.242017
-4.067843
-3.862722
-3.623684
-3.348120
-3.033998
-2.680097
-2.286217
-1.853492
-1.383224
-0.888532
-0.305769
-0.005602
0.009803
34.530224
75.116472
132.591255
205.664023
286.838877
359.482409
419.372259
-3.000000
-3.000000
-3.000000
-3.000000
-3.000000
-3.000000
-3.000000
-3.000000
-4.921942
-4.913589
-4.899910
-4.878441
-4.848222
-4.807877
-4.755675
-4.689546
-4.607095
-4.505626
-4.382195
-4.233682
-4.056890
-3.848681
-3.606135
-3.326731
-3.008510
-2.650114
-2.250449
-1.807509
-1.313017
-0.765263
-0.005113
0.001050
5.218245
38.536089
81.540454
142.588500
220.690750
308.071125
386.717180
451.958620
-3.000000
-3.000000
-3.000000
-3.000000
-3.000000
-3.000000
-3.000000
-3.000000
-4.921752
-4.913380
-4.899671
-4.878158
-4.847884
-4.807474
-4.755203
-4.689007
-4.606496
-4.504981
-4.381519
-4.232979
-4.056128
-3.847724
-3.604599
-3.323684
-3.001919
-2.635997
-2.222065
-1.755707
-1.233767
-0.655138
-0.006066
-0.001414
10.519091
40.922956
85.782585
150.664931
234.468972
328.753672
413.990108
485.085741
-3.000000
-3.000000
-3.000000
-3.000000
-3.000000
-3.000000
-3.000000
-3.000000
-4.919733
-4.911108
-4.896993
-4.874854
-4.843725
-4.802221
-4.748611
-4.680839
-4.596536
-4.493057
-4.367525
-4.216903
-4.038079
-3.827970
-3.583625
-3.302300
-2.981417
-2.618326
-2.209797
-1.751481
-1.238257
-0.668956
-0.009788
0.003749
9.343894
42.968007
91.176201
159.942691
248.527828
348.556791
439.492636
515.911931
-3.000000
-3.000000
-3.000000
-3.000000
-3.000000
-3.000000
-3.000000
-3.000000
-4.917258
-4.908447
-4.894039
-4.871463
-4.839760
-4.797555
-4.743129
-4.674438
-4.589125
-4.484543
-4.357784
-4.205715
-4.025014
-3.812200
-3.563668
-3.275740
-2.944778
-2.567443
-2.141233
-1.664921
-1.143024
-0.562125
-0.008081
0.003737
16.507816
47.234472
96.895568
168.870138
262.092372
367.597087
463.797829
545.112278
-4.922489
-4.914045
-4.900223
-4.878539
-4.848041
-4.807362
-4.754793
-4.688296
-4.605517
-4.503814
-4.380296
-4.231886
-4.055395
-3.847620
-3.605437
-3.325866
-3.006024
-2.642877
-2.232748
-1.770821
-1.251680
-0.673816
-0.004060
0.003538
9.718752
43.611998
93.578362
166.167169
260.853945
369.075007
468.626308
553.674076
-4.932214
-4.924511
-4.911875
-4.891997
-4.863943
-4.826372
-4.777598
-4.715601
-4.638032
-4.542228
-4.425246
-4.283912
-4.114888
-3.914769
-3.680223
-3.408156
-3.095928
-2.741598
-2.344178
-1.904027
-1.421731
-0.910791
-0.302388
0.001894
0.009255
37.477231
86.265424
158.815517
255.183407
366.827299
470.592250
560.273701
-4.937070
-4.929629
-4.917399
-4.898120
-4.870837
-4.834184
-4.786441
-4.725542
-4.649075
-4.554305
-4.438200
-4.297487
-4.128724
-3.928410
-3.693124
-3.419688
-3.105319
-2.747644
-2.344252
-1.891307
-1.378091
-0.800894
-0.008433
-0.000474
5.947339
39.337867
88.079846
160.641802
257.591844
371.036372
477.559313
570.868624
-4.945344
-4.938582
-4.927438
-4.909814
-4.884769
-4.850956
-4.806667
-4.749834
-4.678019
-4.588428
-4.477924
-4.343074
-4.180212
-3.985539
-3.755259
-3.485726
-3.173550
-2.815490
-2.407773
-1.944538
-1.413307
-0.810305
-0.009029
-0.002957
6.678795
36.074956
82.201130
153.722189
251.832445
368.688780
479.768504
578.395205
-4.949590
-4.943089
-4.932355
-4.915344
-4.891105
-4.858284
-4.815164
-4.759667
-4.689346
-4.601398
-4.492681
-4.359753
-4.198936
-4.006404
-3.778327
-3.511048
-3.201330
-2.846656
-2.445552
-1.998048
-1.504750
-0.978248
-0.357862
0.001194
0.009894
34.771723
82.066178
154.367379
253.491623
372.462271
486.709942
589.672297
-4.956773
-4.950935
-4.941267
-4.925893
-4.903885
-4.873927
-4.834335
-4.783055
-4.717646
-4.635278
-4.532742
-4.406466
-4.252571
-4.066945
-3.845368
-3.583709
-3.278183
-2.925710
-2.524322
-2.073682
-1.574269
-1.036186
-0.392169
-0.004183
1.151842
31.269394
75.699871
146.832827
247.122384
369.760777
489.065486
598.225914
-4.960457
-4.954872
-4.945602
-4.930820
-4.909592
-4.880589
-4.842116
-4.792104
-4.728098
-4.647257
-4.546369
-4.421870
-4.269895
-4.086348
-3.867004
-3.607673
-3.304423
-2.953904
-2.553750
-2.103167
-1.602436
-1.062232
-0.435663
0.000552
0.007990
30.072712
75.711721
147.440655
248.535962
373.263562
496.036277
610.348152
-4.966570
-4.961620
-4.953377
-4.940181
-4.921135
-4.894962
-4.860018
-4.814283
-4.755332
-4.680331
-4.586032
-4.468780
-4.324543
-4.148957
-3.937412
-3.685193
-3.387705
-3.040822
-2.641383
-2.187896
-1.680420
-1.128529
-0.495684
-0.004965
0.008697
26.514207
68.880309
139.263445
241.497278
370.139425
498.511259
620.096303
-4.969723
-4.965018
-4.957161
-4.944541
-4.926252
-4.901005
-4.867142
-4.822618
-4.764985
-4.691384
-4.598551
-4.482836
-4.340236
-4.166456
-3.956970
-3.707138
-3.412357
-3.068326
-2.671455
-2.219549
-1.711874
-1.156480
-0.521539
-0.000005
0.005894
24.887452
68.986869
139.854861
242.622076
373.280812
505.447113
633.212532
-4.974808
-4.970700
-4.963812
-4.952702
-4.936510
-4.914015
-4.883629
-4.843380
-4.790880
-4.723309
-4.637403
-4.529464
-4.395368
-4.230604
-4.030309
-3.789341
-3.502393
-3.164222
-2.770080
-2.316514
-1.801901
-1.232684
-0.587420
-0.005613
0.007013
21.365683
61.647618
130.985792
234.842163
369.646657
507.992819
644.357251
-4.977461
-4.973589
-4.967074
-4.956523
-4.941069
-4.919480
-4.890152
-4.851085
-4.799853
-4.733591
-4.648992
-4.542325
-4.409471
-4.245987
-4.047167
-3.808118
-3.523820
-3.189209
-2.799365
-2.350034
-1.838202
-1.267469
-0.621971
-0.000454
0.003726
19.115217
61.964498
131.615537
235.630178
372.313150
514.801829
658.654016
-4.981580
-4.978255
-4.972636
-4.963492
-4.950015
-4.931054
-4.905096
-4.870238
-4.824145
-4.764025
-4.686614
-4.588171
-4.464502
-4.310998
-4.122687
-3.894272
-3.620150
-3.294392
-2.910781
-2.463164
-1.946279
-1.360267
-0.698273
-0.006113
0.005354
15.749292
54.050226
122.005058
227.035433
368.063389
517.339788
671.442062
-4.983778
-4.980679
-4.975423
-4.966824
-4.954075
-4.936017
-4.911124
-4.877463
-4.832660
-4.773862
-4.697725
-4.600425
-4.477689
-4.324876
-4.137087
-3.909292
-3.636446
-3.313495
-2.935196
-2.495756
-1.988605
-1.408085
-0.750921
-0.000672
0.001439
12.597998
54.778828
122.756042
227.432871
370.114428
523.891544
687.154559
-4.987126
-4.984541
-4.980135
-4.972887
-4.962064
-4.946607
-4.925108
-4.895765
-4.856326
-4.804047
-4.735654
-4.647327
-4.534710
-4.392958
-4.216848
-4.000944
-3.739856
-3.428583
-3.062938
-2.640022
-2.158895
-1.619353
-1.037869
-0.327249
0.001604
0.189411
47.088123
113.047474
218.364801
365.257436
526.327989
701.892355
-4.989415
-4.987165
-4.983309
-4.976927
-4.967324
-4.953496
-4.934094
-4.907377
-4.871152
-4.822724
-4.758851
-4.675714
-4.568913
-4.433506
-4.264091
-4.054961
-3.800348
-3.494764
-3.133453
-2.712881
-2.231221
-1.686290
-1.086916
-0.296248
-0.005538
2.774650
43.327039
107.770042
213.079046
363.171232
530.831549
719.248011
-4.990834
-4.988758
-4.985179
-4.979215
-4.970169
-4.957030
-4.938435
-4.912611
-4.877323
-4.829812
-4.766756
-4.684245
-4.577788
-4.442360
-4.272504
-4.062500
-3.806620
-3.499471
-3.136440
-2.714202
-2.231422
-1.687713
-1.098108
-0.383813
-0.003863
0.179651
43.892384
108.265333
212.513191
363.956246
536.688865
737.761710
-4.992908
-4.991214
-4.988277
-4.983352
-4.975819
-4.964776
-4.948992
-4.926849
-4.896279
-4.854699
-4.798954
-4.725283
-4.629296
-4.505996
-4.349829
-4.154795
-3.914607
-3.622946
-3.273836
-2.862181
-2.384599
-1.839280
-1.236437
-0.525362
-0.006607
0.006834
33.787097
96.492926
201.501919
357.496646
538.499684
756.178172
-4.994087
-4.992575
-4.989934
-4.985467
-4.978566
-4.968337
-4.953551
-4.932578
-4.903318
-4.863123
-4.808741
-4.736269
-4.641132
-4.518106
-4.361386
-4.164719
-3.921614
-3.625662
-3.270989
-2.852843
-2.368451
-1.816635
-1.209380
-0.488688
0.001366
0.007637
36.803808
97.992409
200.636030
357.200999
543.455601
776.985141
-4.995557
-4.994358
-4.992250
-4.988656
-4.983051
-4.974658
-4.962391
-4.944796
-4.919965
-4.885463
-4.838252
-4.774628
-4.690189
-4.579834
-4.437806
-4.257781
-4.032995
-3.756407
-3.420923
-3.019743
-2.547055
-1.998575
-1.378858
-0.660831
-0.007428
0.004037
25.164833
85.314925
188.622044
349.561535
544.490346
798.494889
-4.996415
-4.995374
-4.993527
-4.990345
-4.985320
-4.977693
-4.966393
-4.949963
-4.926476
-4.893444
-4.847735
-4.785503
-4.702148
-4.592312
-4.449927
-4.268306
-4.040312
-3.758586
-3.415916
-3.005781
-2.523266
-1.965432
-1.340014
-0.610708
0.000722
0.004864
29.139830
87.122941
187.064675
347.872085
548.138476
822.197239
-4.997393
-4.996593
-4.995160
-4.992671
-4.988701
-4.982604
-4.973462
-4.960005
-4.940529
-4.912794
-4.873927
-4.820339
-4.747655
-4.650693
-4.523491
-4.359416
-4.151334
-3.891823
-3.573361
-3.188366
-2.729039
-2.187206
-1.556417
-0.829776
-0.008043
0.001301
15.578881
73.647658
174.087117
338.827594
547.904450
847.485673
-4.997980
-4.997310
-4.996097
-4.993963
-4.990505
-4.985107
-4.976876
-4.964560
-4.946448
-4.920262
-4.883047
-4.831071
-4.759757
-4.663650
-4.536459
-4.371157
-4.160138
-3.895405
-3.568751
-3.171986
-2.697408
-2.138525
-1.495713
-0.754156
0.000230
0.001979
20.846120
75.885947
171.766942
335.439219
549.627986
874.814589
-4.998587
-4.998090
-4.997181
-4.995565
-4.992917
-4.988729
-4.982259
-4.972448
-4.957825
-4.936398
-4.905534
-4.861836
-4.801040
-4.717941
-4.606376
-4.459295
-4.268942
-4.027172
-3.725920
-3.357804
-2.916728
-2.398316
-1.796075
-1.117746
-0.131608
-0.000941
4.799653
61.814110
157.922866
324.722504
547.401306
904.763781
-4.998959
-4.998562
-4.997825
-4.996497
-4.994277
-4.990699
-4.985058
-4.976331
-4.963066
-4.943260
-4.914215
-4.872399
-4.813325
-4.731475
-4.620299
-4.472330
-4.279419
-4.033092
-3.724921
-3.346701
-2.890039
-2.345236
-1.698890
-0.947146
-0.000075
-0.000681
11.796596
64.616930
154.780394
319.297499
546.322756
936.675906
-4.999306
-4.999023
-4.998493
-4.997526
-4.995888
-4.993208
-4.988918
-4.982182
-4.971794
-4.956057
-4.932646
-4.898458
-4.849459
-4.780556
-4.685516
-4.556957
-4.386458
-4.164820
-3.882509
-3.530336
-3.100335
-2.587006
-1.986816
-1.314586
-0.484860
-0.002369
0.008070
50.037003
140.193113
306.603332
541.050191
972.434751
-4.999520
-4.999307
-4.998902
-4.998148
-4.996843
-4.994658
-4.991079
-4.985323
-4.976234
-4.962146
-4.940713
-4.908731
-4.861954
-4.794927
-4.700907
-4.571883
-4.398780
-4.171885
-3.881514
-3.518900
-3.077220
-2.552781
-1.943813
-1.266708
-0.403768
-0.002677
1.743481
53.813580
136.259978
298.792246
535.916641
1010.190223
-4.999698
-4.999555
-4.999278
-4.998755
-4.997834
-4.996266
-4.993650
-4.989371
-4.982500
-4.971672
-4.954939
-4.929582
-4.891927
-4.837155
-4.759139
-4.650356
-4.501901
-4.303629
-4.044502
-3.713159
-3.298801
-2.792603
-2.188441
-1.494659
-0.660353
0.006365
0.004425
37.740656
120.973415
283.853196
526.086975
1053.273599
-4.999807
-4.999706
-4.999508
-4.999127
-4.998439
-4.997234
-4.995170
-4.991697
-4.985964
-4.976679
-4.961929
-4.938968
-4.903963
-4.851740
-4.775563
-4.667014
-4.516065
-4.311418
-4.041218
-3.694149
-3.260859
-2.735681
-2.116683
-1.419417
-0.577768
-0.005189
0.007810
43.772427
116.450149
273.286593
515.095512
1098.543816
-4.999885
-4.999820
-4.999689
-4.999432
-4.998956
-4.998102
-4.996601
-4.994011
-4.989627
-4.982347
-4.970496
-4.951600
-4.922104
-4.877075
-4.809900
-4.712079
-4.573182
-4.381112
-4.122787
-3.785329
-3.357713
-2.832846
-2.208273
-1.498209
-0.651131
-0.007575
0.008497
38.843495
106.035436
258.350739
499.327152
1151.225356
-4.999934
-4.999894
-4.999812
-4.999645
-4.999330
-4.998748
-4.997698
-4.995837
-4.992601
-4.987085
-4.977872
-4.962801
-4.938677
-4.900926
-4.843221
-4.757162
-4.632086
-4.455173
-4.212016
-3.887794
-3.469116
-2.946510
-2.316015
-1.589809
-0.731146
-0.006552
0.005517
34.077939
95.670961
242.249296
479.054500
1205.959448
-4.999965
-4.999942
-4.999892
-4.999791
-4.999592
-4.999215
-4.998514
-4.997235
-4.994945
-4.990928
-4.984024
-4.972408
-4.953292
-4.922550
-4.874278
-4.800355
-4.690086
-4.530095
-4.304684
-3.996892
-3.590437
-3.072631
-2.437035
-1.693118
-0.818631
-0.008571
0.005860
29.394053
85.062622
224.372844
453.019658
1270.558010
-4.999982
-4.999969
-4.999942
-4.999882
-4.999763
-4.999530
-4.999081
-4.998236
-4.996677
-4.993854
-4.988852
-4.980178
-4.965475
-4.941123
-4.901765
-4.839750
-4.744605
-4.602677
-4.397181
-4.108988
-3.718480
-3.208767
-2.569523
-1.806219
-0.910200
-0.007398
0.002414
25.065697
74.849078
205.279634
423.803652
1374.382147
-4.999992
-4.999985
-4.999971
-4.999939
-4.999872
-4.999736
-4.999467
-4.998942
-4.997938
-4.996057