<?xml version='1.0' encoding='UTF-8'?>
<VTKFile xmlns='VTK' byte_order='LittleEndian' version='0.1' type='UnstructuredGrid'>
<UnstructuredGrid>
<Piece NumberOfCells='1888' NumberOfPoints='1888'>
<Points>
<DataArray NumberOfComponents='3' type='Float32' Name='Position' format='ascii'>
-0.040000 -0.030000 0.000000
-0.040000 -0.020000 0.000000
-0.040000 -0.010000 0.000000
-0.040000 0.000000 0.000000
-0.040000 0.010000 0.000000
-0.040000 0.020000 0.000000
-0.040000 0.030000 0.000000
-0.040000 0.040000 0.000000
-0.040000 0.050000 0.000000
-0.040000 0.060000 0.000000
-0.040000 0.070000 0.000000
-0.040000 0.080000 0.000000
-0.040000 0.090000 0.000000
-0.040000 0.100000 0.000000
-0.040000 0.110000 0.000000
-0.040000 0.120000 0.000000
-0.040000 0.130000 0.000000
-0.040000 0.140000 0.000000
-0.040000 0.150000 0.000000
-0.040000 0.160000 0.000000
-0.040000 0.170000 0.000000
-0.040000 0.180000 0.000000
-0.040000 0.190000 0.000000
-0.040000 0.200000 0.000000
-0.040000 0.210000 0.000000
-0.040000 0.220000 0.000000
-0.040000 0.230000 0.000000
-0.040000 0.240000 0.000000
-0.040000 0.250000 0.000000
-0.040000 0.260000 0.000000
-0.040000 0.270000 0.000000
-0.040000 0.280000 0.000000
-0.040000 0.290000 0.000000
-0.040000 0.300000 0.000000
-0.040000 0.310000 0.000000
-0.040000 0.320000 0.000000
-0.040000 0.330000 0.000000
-0.040000 0.340000 0.000000
-0.040000 0.350000 0.000000
-0.040000 0.360000 0.000000
-0.040000 0.370000 0.000000
-0.040000 0.380000 0.000000
-0.040000 0.390000 0.000000
-0.040000 0.400000 0.000000
0.010000 -0.030000 0.000000
0.010000 -0.020000 0.000000
0.010000 -0.010000 0.000000
0.010000 0.000000 0.000000
0.010000 0.010000 0.000000
0.010000 0.020000 0.000000
0.010000 0.030000 0.000000
0.010000 0.040000 0.000000
0.010000 0.050000 0.000000
0.010000 0.060000 0.000000
0.010000 0.070000 0.000000
0.010000 0.080000 0.000000
0.010000 0.090000 0.000000
0.010000 0.100000 0.000000
0.010000 0.110000 0.000000
0.010000 0.120000 0.000000
0.010000 0.130000 0.000000
0.010000 0.140000 0.000000
0.010000 0.150000 0.000000
0.010000 0.160000 0.000000
0.010000 0.170000 0.000000
0.010000 0.180000 0.000000
0.010000 0.190000 0.000000
0.010000 0.200000 0.000000
0.010000 0.210000 0.000000
0.010000 0.220000 0.000000
0.010000 0.230000 0.000000
0.010000 0.240000 0.000000
0.010000 0.250000 0.000000
0.010000 0.260000 0.000000
0.010000 0.270000 0.000000
0.010000 0.280000 0.000000
0.010000 0.290000 0.000000
0.010000 0.300000 0.000000
0.010000 0.310000 0.000000
0.010000 0.320000 0.000000
0.010000 0.330000 0.000000
0.010000 0.340000 0.000000
0.010000 0.350000 0.000000
0.010000 0.360000 0.000000
0.010000 0.370000 0.000000
0.010000 0.380000 0.000000
0.010000 0.390000 0.000000
0.010000 0.400000 0.000000
0.408000 0.410000 0.000000
0.408000 0.420000 0.000000
0.408000 0.430000 0.000000
0.408000 0.440000 0.000000
0.060000 -0.030000 0.000000
0.060000 -0.020000 0.000000
0.060000 -0.010000 0.000000
0.060000 0.000000 0.000000
0.060000 0.010000 0.000000
0.060000 0.020000 0.000000
0.060000 0.030000 0.000000
0.060000 0.040000 0.000000
0.060000 0.050000 0.000000
0.060000 0.060000 0.000000
0.060000 0.070000 0.000000
0.060000 0.080000 0.000000
0.060000 0.090000 0.000000
0.060000 0.100000 0.000000
0.060000 0.110000 0.000000
0.060000 0.120000 0.000000
0.060000 0.130000 0.000000
0.060000 0.140000 0.000000
0.060000 0.150000 0.000000
0.060000 0.160000 0.000000
0.060000 0.170000 0.000000
0.060000 0.180000 0.000000
0.060000 0.190000 0.000000
0.060000 0.200000 0.000000
0.060000 0.210000 0.000000
0.060000 0.220000 0.000000
0.060000 0.230000 0.000000
0.060000 0.240000 0.000000
0.060000 0.250000 0.000000
0.060000 0.260000 0.000000
0.060000 0.270000 0.000000
0.060000 0.280000 0.000000
0.060000 0.290000 0.000000
0.060000 0.300000 0.000000
0.060000 0.310000 0.000000
0.060000 0.320000 0.000000
0.060000 0.330000 0.000000
0.060000 0.340000 0.000000
0.060000 0.350000 0.000000
0.060000 0.360000 0.000000
0.060000 0.370000 0.000000
0.060000 0.380000 0.000000
0.060000 0.390000 0.000000
0.060000 0.400000 0.000000
0.458000 0.410000 0.000000
0.458000 0.420000 0.000000
0.458000 0.430000 0.000000
0.458000 0.440000 0.000000
0.110000 -0.030000 0.000000
0.110000 -0.020000 0.000000
0.110000 -0.010000 0.000000
0.110000 0.000000 0.000000
0.110000 0.010000 0.000000
0.110000 0.020000 0.000000
0.110000 0.030000 0.000000
0.110000 0.040000 0.000000
0.110000 0.050000 0.000000
0.110000 0.060000 0.000000
0.110000 0.070000 0.000000
0.110000 0.080000 0.000000
0.110000 0.090000 0.000000
0.110000 0.100000 0.000000
0.110000 0.110000 0.000000
0.110000 0.120000 0.000000
0.110000 0.130000 0.000000
0.110000 0.140000 0.000000
0.110000 0.150000 0.000000
0.110000 0.160000 0.000000
0.110000 0.170000 0.000000
0.110000 0.180000 0.000000
0.110000 0.190000 0.000000
0.110000 0.200000 0.000000
0.110000 0.210000 0.000000
0.110000 0.220000 0.000000
0.110000 0.230000 0.000000
0.110000 0.240000 0.000000
0.110000 0.250000 0.000000
0.110000 0.260000 0.000000
0.110000 0.270000 0.000000
0.110000 0.280000 0.000000
0.110000 0.290000 0.000000
0.110000 0.300000 0.000000
0.110000 0.310000 0.000000
0.110000 0.320000 0.000000
0.110000 0.330000 0.000000
0.110000 0.340000 0.000000
0.110000 0.350000 0.000000
0.110000 0.360000 0.000000
0.110000 0.370000 0.000000
0.110000 0.380000 0.000000
0.110000 0.390000 0.000000
0.110000 0.400000 0.000000
0.508000 0.410000 0.000000
0.508000 0.420000 0.000000
0.508000 0.430000 0.000000
0.508000 0.440000 0.000000
0.160000 -0.030000 0.000000
0.160000 -0.020000 0.000000
0.160000 -0.010000 0.000000
0.160000 0.000000 0.000000
0.160000 0.010000 0.000000
0.160000 0.020000 0.000000
0.160000 0.030000 0.000000
0.160000 0.040000 0.000000
0.160000 0.050000 0.000000
0.160000 0.060000 0.000000
0.160000 0.070000 0.000000
0.160000 0.080000 0.000000
0.160000 0.090000 0.000000
0.160000 0.100000 0.000000
0.160000 0.110000 0.000000
0.160000 0.120000 0.000000
0.160000 0.130000 0.000000
0.160000 0.140000 0.000000
0.160000 0.150000 0.000000
0.160000 0.160000 0.000000
0.160000 0.170000 0.000000
0.160000 0.180000 0.000000
0.160000 0.190000 0.000000
0.160000 0.200000 0.000000
0.160000 0.210000 0.000000
0.160000 0.220000 0.000000
0.160000 0.230000 0.000000
0.160000 0.240000 0.000000
0.160000 0.250000 0.000000
0.160000 0.260000 0.000000
0.160000 0.270000 0.000000
0.160000 0.280000 0.000000
0.160000 0.290000 0.000000
0.160000 0.300000 0.000000
0.160000 0.310000 0.000000
0.160000 0.320000 0.000000
0.160000 0.330000 0.000000
0.160000 0.340000 0.000000
0.160000 0.350000 0.000000
0.160000 0.360000 0.000000
0.160000 0.370000 0.000000
0.160000 0.380000 0.000000
0.160000 0.390000 0.000000
0.160000 0.400000 0.000000
0.558000 0.410000 0.000000
0.558000 0.420000 0.000000
0.558000 0.430000 0.000000
0.558000 0.440000 0.000000
0.210000 -0.030000 0.000000
0.210000 -0.020000 0.000000
0.210000 -0.010000 0.000000
0.210000 0.000000 0.000000
0.210000 0.010000 0.000000
0.210000 0.020000 0.000000
0.210000 0.030000 0.000000
0.210000 0.040000 0.000000
0.210000 0.050000 0.000000
0.210000 0.060000 0.000000
0.210000 0.070000 0.000000
0.210000 0.080000 0.000000
0.210000 0.090000 0.000000
0.210000 0.100000 0.000000
0.210000 0.110000 0.000000
0.210000 0.120000 0.000000
0.210000 0.130000 0.000000
0.210000 0.140000 0.000000
0.210000 0.150000 0.000000
0.210000 0.160000 0.000000
0.210000 0.170000 0.000000
0.210000 0.180000 0.000000
0.210000 0.190000 0.000000
0.210000 0.200000 0.000000
0.210000 0.210000 0.000000
0.210000 0.220000 0.000000
0.210000 0.230000 0.000000
0.210000 0.240000 0.000000
0.210000 0.250000 0.000000
0.210000 0.260000 0.000000
0.210000 0.270000 0.000000
0.210000 0.280000 0.000000
0.210000 0.290000 0.000000
0.210000 0.300000 0.000000
0.210000 0.310000 0.000000
0.210000 0.320000 0.000000
0.210000 0.330000 0.000000
0.210000 0.340000 0.000000
0.210000 0.350000 0.000000
0.210000 0.360000 0.000000
0.210000 0.370000 0.000000
0.210000 0.380000 0.000000
0.210000 0.390000 0.000000
0.210000 0.400000 0.000000
0.608000 0.410000 0.000000
0.608000 0.420000 0.000000
0.608000 0.430000 0.000000
0.608000 0.440000 0.000000
0.260000 -0.030000 0.000000
0.260000 -0.020000 0.000000
0.260000 -0.010000 0.000000
0.260000 0.000000 0.000000
0.260000 0.010000 0.000000
0.260000 0.020000 0.000000
0.260000 0.030000 0.000000
0.260000 0.040000 0.000000
0.260000 0.050000 0.000000
0.260000 0.060000 0.000000
0.260000 0.070000 0.000000
0.260000 0.080000 0.000000
0.260000 0.090000 0.000000
0.260000 0.100000 0.000000
0.260000 0.110000 0.000000
0.260000 0.120000 0.000000
0.260000 0.130000 0.000000
0.260000 0.140000 0.000000
0.260000 0.150000 0.000000
0.260000 0.160000 0.000000
0.260000 0.170000 0.000000
0.260000 0.180000 0.000000
0.260000 0.190000 0.000000
0.260000 0.200000 0.000000
0.260000 0.210000 0.000000
0.260000 0.220000 0.000000
0.260000 0.230000 0.000000
0.260000 0.240000 0.000000
0.260000 0.250000 0.000000
0.260000 0.260000 0.000000
0.260000 0.270000 0.000000
0.260000 0.280000 0.000000
0.260000 0.290000 0.000000
0.260000 0.300000 0.000000
0.260000 0.310000 0.000000
0.260000 0.320000 0.000000
0.260000 0.330000 0.000000
0.260000 0.340000 0.000000
0.260000 0.350000 0.000000
0.260000 0.360000 0.000000
0.260000 0.370000 0.000000
0.260000 0.380000 0.000000
0.260000 0.390000 0.000000
0.260000 0.400000 0.000000
0.658000 0.410000 0.000000
0.658000 0.420000 0.000000
0.658000 0.430000 0.000000
0.658000 0.440000 0.000000
0.310000 -0.030000 0.000000
0.310000 -0.020000 0.000000
0.310000 -0.010000 0.000000
0.310000 0.000000 0.000000
0.310000 0.010000 0.000000
0.310000 0.020000 0.000000
0.310000 0.030000 0.000000
0.310000 0.040000 0.000000
0.310000 0.050000 0.000000
0.310000 0.060000 0.000000
0.310000 0.070000 0.000000
0.310000 0.080000 0.000000
0.310000 0.090000 0.000000
0.310000 0.100000 0.000000
0.310000 0.110000 0.000000
0.310000 0.120000 0.000000
0.310000 0.130000 0.000000
0.310000 0.140000 0.000000
0.310000 0.150000 0.000000
0.310000 0.160000 0.000000
0.310000 0.170000 0.000000
0.310000 0.180000 0.000000
0.310000 0.190000 0.000000
0.310000 0.200000 0.000000
0.310000 0.210000 0.000000
[...]
<PointData>
<DataArray NumberOfComponents='1' type='Int32' Name='ParticleType' format='ascii'>
4
4
4
4
4
4
4
4
4
4
4
4
4
4
4
4
4
4
4
4
4
4
4
4
4
4
4
4
4
4
4
4
4
4
4
4
4
4
4
4
4
4
4
4
4
4
3
3
2
2
2
2
2
2
2
2
2
2
2
2
2
2
2
2
2
2
2
2
2
2
2
2
2
2
2
2
2
2
2
2
2
2
2
2
2
2
2
2
5
5
5
5
4
4
3
3
2
2
2
2
2
2
2
2
2
2
2
2
2
2
2
2
2
2
2
2
2
2
2
2
2
2
2
2
2
2
2
2
2
2
2
2
2
2
2
2
5
5
5
5
4
4
3
3
2
2
2
2
2
2
2
2
2
2
2
2
2
2
2
2
2
2
2
2
2
2
2
2
2
2
2
2
2
2
2
2
2
2
2
2
2
2
2
2
5
5
5
5
4
4
3
3
2
2
2
2
2
2
2
2
2
2
2
2
2
2
2
2
2
2
2
2
2
2
2
2
2
2
2
2
2
2
2
2
2
2
2
2
2
2
2
2
5
5
5
5
4
4
3
3
2
2
2
2
2
2
2
2
2
2
2
2
2
2
2
2
2
2
2
2
2
2
2
2
2
2
2
2
2
2
2
2
2
2
2
2
2
2
2
2
5
5
5
5
4
4
3
3
2
2
2
2
2
2
2
2
2
2
2
2
2
2
2
2
2
2
2
2
2
2
2
2
2
2
2
2
2
2
2
2
2
2
2
2
2
2
2
2
5
5
5
5
4
4
3
3
2
2
2
2
2
2
2
2
2
2
2
2
2
2
2
2
2
2
2
2
2
2
2
2
2
2
2
2
2
2
2
2
2
2
2
2
2
2
2
2
5
5
5
5
4
4
3
3
2
2
2
2
2
2
2
2
2
2
2
2
2
2
2
2
2
2
2
2
2
2
2
2
2
2
2
2
2
2
2
2
2
2
2
2
2
2
2
2
5
5
5
5
4
4
3
3
2
2
2
2
2
2
2
2
2
2
2
2
2
2
2
2
2
2
2
2
2
2
2
2
2
2
2
2
2
2
2
2
2
2
2
2
2
2
2
2
5
5
5
5
4
4
3
3
2
2
2
2
2
2
2
2
2
2
2
2
2
2
2
2
2
2
2
2
2
2
2
2
2
2
2
2
2
2
2
2
2
2
2
2
2
2
2
2
5
5
5
5
4
4
3
3
2
2
2
2
2
2
2
2
2
2
2
2
2
2
2
2
2
2
2
2
2
2
2
2
2
2
2
2
2
2
2
2
2
2
2
2
2
2
2
2
4
4
3
3
2
2
2
2
2
2
2
2
2
2
2
2
2
2
2
2
2
2
2
2
2
2
2
2
2
2
2
2
2
2
2
2
2
2
2
2
2
2
2
2
4
4
3
3
2
2
2
2
2
2
2
2
2
2
2
2
2
2
2
2
2
2
2
2
2
2
2
2
2
2
2
2
2
2
2
2
2
2
2
2
2
2
2
2
4
4
3
3
2
2
2
2
2
2
2
2
2
2
2
2
2
2
2
2
2
2
2
2
2
2
2
2
2
2
2
2
2
2
2
2
2
2
2
2
2
2
2
2
4
4
3
3
2
2
2
2
2
2
2
2
2
2
2
2
2
2
2
2
2
2
2
2
2
2
2
2
2
2
2
2
2
2
2
2
2
2
2
2
2
2
2
2
4
4
3
3
2
2
2
2
2
2
2
2
2
2
2
2
2
2
2
2
2
2
2
2
2
2
2
2
2
2
2
2
2
2
2
2
2
2
2
2
2
2
2
2
4
4
3
3
2
2
2
2
2
2
2
2
2
2
2
2
2
2
2
2
2
2
2
2
2
2
2
2
2
2
2
2
2
2
2
2
2
2
2
2
2
2
2
2
4
4
3
3
2
2
2
2
2
2
2
2
2
2
2
2
2
2
2
2
2
2
2
2
2
2
2
2
2
2
2
2
2
2
2
2
2
2
2
2
2
2
2
2
4
4
3
3
2
2
2
2
2
2
2
2
2
2
2
2
2
2
2
2
2
2
2
2
2
2
2
2
2
2
2
2
2
2
2
2
2
2
2
2
2
2
2
2
4
4
3
3
2
2
2
2
2
2
2
2
2
2
2
2
2
2
2
2
2
2
2
2
2
2
2
2
2
2
2
2
2
2
2
2
2
2
2
2
2
2
2
2
4
4
3
3
2
2
2
2
2
2
2
2
2
2
2
2
2
2
2
2
2
2
2
2
2
2
2
2
2
2
2
2
2
2
2
2
2
2
2
2
2
2
2
2
4
4
3
3
2
2
2
2
2
2
2
2
2
2
2
2
2
2
2
2
2
2
2
2
2
2
2
2
2
2
2
2
2
2
2
2
2
2
2
2
2
2
2
2
4
4
3
3
2
2
2
2
2
2
2
2
2
2
2
2
2
2
2
2
2
2
2
2
2
2
2
2
2
2
2
2
2
2
2
2
2
2
2
2
2
2
2
2
4
4
3
3
2
2
2
2
2
2
2
2
2
2
2
2
2
2
2
2
2
2
2
2
2
2
2
2
2
2
2
2
2
2
2
2
2
2
2
2
2
2
2
2
4
4
3
3
2
2
2
2
2
2
2
2
2
2
2
2
2
2
2
2
2
2
2
2
2
2
2
2
2
2
2
2
2
2
2
2
2
2
2
2
2
2
2
2
4
4
3
3
2
2
2
2
2
2
2
2
2
2
2
2
2
2
2
2
2
2
2
2
2
2
2
2
2
2
2
2
2
2
2
2
2
2
2
2
2
2
2
2
4
4
3
3
2
2
2
2
2
2
2
2
2
2
2
2
2
2
2
2
2
2
2
2
2
2
2
2
2
2
2
2
2
2
2
2
2
2
2
2
2
2
2
2
4
4
3
3
2
2
2
2
2
2
2
2
2
2
2
2
2
2
2
2
2
2
2
2
2
2
2
2
2
2
2
2
2
2
2
2
2
2
2
2
2
2
2
2
4
4
3
3
2
2
2
2
2
2
2
2
2
2
2
2
2
2
2
2
2
2
2
2
2
2
2
2
2
2
2
2
2
2
2
2
2
2
2
2
2
2
2
2
4
4
3
3
2
2
2
2
2
2
2
2
2
2
2
2
2
2
2
2
2
2
2
2
2
2
2
2
2
2
2
2
2
2
2
2
2
2
2
2
2
2
2
2
4
4
3
3
2
2
2
2
2
2
2
2
2
2
2
2
2
2
2
2
2
2
2
2
2
2
2
2
2
2
2
2
2
2
2
2
2
2
2
2
2
2
2
2
4
4
3
3
2
2
2
2
2
2
2
2
2
2
2
2
2
2
2
2
2
2
2
2
2
2
2
2
2
2
2
2
2
2
2
2
2
2
2
2
2
2
2
2
4
4
3
3
2
2
2
2
2
2
2
2
2
2
2
2
2
2
2
2
2
2
2
2
2
2
2
2
2
2
2
2
2
2
2
2
2
2
2
2
2
2
2
2
4
4
3
3
2
2
2
2
2
2
2
2
2
2
2
2
2
2
2
2
2
2
2
2
2
2
2
2
2
2
2
2
2
2
2
2
2
2
2
2
2
2
2
2
4
4
3
3
2
2
2
2
2
2
2
2
2
2
2
2
2
2
2
2
2
2
2
2
2
2
2
2
2
2
2
2
2
2
2
2
2
2
2
2
2
2
2
2
4
4
3
3
2
2
2
2
2
2
2
2
2
2
2
2
2
2
2
2
2
2
2
2
2
2
2
2
2
2
2
2
2
2
2
2
2
2
2
2
2
2
2
2
4
4
3
3
2
2
2
2
2
2
2
2
2
2
2
2
2
2
2
2
2
2
2
2
2
2
2
2
2
2
2
2
2
2
2
2
2
2
2
2
2
2
2
2
4
4
3
3
2
2
2
2
2
2
2
2
2
2
2
2
2
2
2
2
2
2
2
2
2
2
2
2
2
2
2
2
2
2
2
2
2
2
2
2
2
2
2
2
4
4
3
3
2
2
2
2
2
2
2
2
2
2
2
2
2
2
2
2
2
2
2
2
2
2
2
2
2
2
2
2
2
2
2
2
2
2
2
2
2
2
2
2
4
4
3
3
2
2
2
2
2
2
2
2
2
2
2
2
2
2
2
2
2
2
2
2
2
2
2
2
2
2
2
2
2
2
2
2
2
2
2
2
2
2
2
2
4
4
3
3
3
3
3
3
3
3
3
3
3
3
3
3
3
3
3
3
3
3
3
3
3
3
3
3
3
3
3
3
3
3
3
3
3
3
3
3
3
3
3
3
</DataArray>
<DataArray NumberOfComponents='1' type='Float32' Name='Temperature' format='ascii'>
0.000000
0.000000
0.000000
0.000000
0.000000
0.000000
0.000000
0.000000
0.000000
0.000000
0.000000
0.000000
0.000000
0.000000
0.000000
0.000000
0.000000
0.000000
0.000000
0.000000
0.000000
0.000000
0.000000
0.000000
0.000000
0.000000
0.000000
0.000000
0.000000
0.000000
0.000000
0.000000
0.000000
0.000000
0.000000
0.000000
0.000000
0.000000
0.000000
0.000000
0.000000
0.000000
0.000000
0.000000
0.000000
0.000000
0.000000
0.000000
-0.240727
-0.434575
-0.633526
-0.829965
-1.024165
-1.215533
-1.403586
-1.587858
-1.767915
-1.943351
-2.113797
-2.278919
-2.438423
-2.592049
-2.739580
-2.880837
-3.015680
-3.144006
-3.265749
-3.380879
-3.489396
-3.591333
-3.686749
-3.775728
-3.858375
-3.934813
-4.005180
-4.069625
-4.128304
-4.181376
-4.229003
-4.271341
-4.308542
-4.340749
-4.368093
-4.390691
-4.408644
-4.422032
-4.430864
-4.436380
-3.000000
-3.000000
-3.000000
-3.000000
0.000000
0.000000
0.000000
0.000000
-0.235296
-0.424721
-0.619047
-0.810793
-1.000191
-1.186626
-1.369595
-1.548615
-1.723235
-1.893038
-2.057647
-2.216722
-2.369967
-2.517127
-2.657991
-2.792391
-2.920203
-3.041344
-3.155773
-3.263487
-3.364520
-3.458941
-3.546848
-3.628367
-3.703649
-3.772863
-3.836196
-3.893845
-3.946016
-3.992916
-4.034756
-4.071737
-4.104055
-4.131894
-4.155421
-4.174785
-4.190116
-4.201518
-4.209024
-4.213704
-3.000000
-3.000000
-3.000000
-3.000000
0.000000
0.000000
0.000000
0.000000
-0.232017
-0.418757
-0.610254
-0.799095
-0.985478
-1.168767
-1.348434
-1.523978
-1.694929
-1.860857
-2.021372
-2.176124
-2.324813
-2.467181
-2.603020
-2.732169
-2.854513
-2.969985
-3.078562
-3.180268
-3.275162
-3.363347
-3.444955
-3.520155
-3.589137
-3.652119
-3.709332
-3.761025
-3.807452
-3.848871
-3.885541
-3.917713
-3.945626
-3.969509
-3.989566
-4.005982
-4.018918
-4.028501
-4.034791
-4.038704
-3.000000
-3.000000
-3.000000
-3.000000
0.000000
0.000000
0.000000
0.000000
-0.230040
-0.415147
-0.604900
-0.791916
-0.976361
-1.157573
-1.335002
-1.508122
-1.676443
-1.839514
-1.996929
-2.148324
-2.293385
-2.431848
-2.563500
-2.688179
-2.805776
-2.916233
-3.019542
-3.115744
-3.204927
-3.287221
-3.362797
-3.431862
-3.494654
-3.551439
-3.602504
-3.648151
-3.688694
-3.724450
-3.755738
-3.782867
-3.806133
-3.825818
-3.842177
-3.855440
-3.865803
-3.873428
-3.878407
-3.881492
-3.000000
-3.000000
-3.000000
-3.000000
0.000000
0.000000
0.000000
0.000000
-0.229059
-0.413343
-0.602194
-0.788235
-0.971602
-1.151610
-1.327684
-1.499273
-1.665862
-1.826976
-1.982185
-2.131103
-2.273395
-2.408780
-2.537027
-2.657965
-2.771477
-2.877502
-2.976037
-3.067133
-3.150894
-3.227477
-3.297084
-3.359962
-3.416397
-3.466710
-3.511249
-3.550385
-3.584504
-3.614001
-3.639270
-3.660701
-3.678669
-3.693528
-3.705606
-3.715194
-3.722546
-3.727870
-3.731304
-3.733411
-3.000000
-3.000000
-3.000000
-3.000000
0.000000
0.000000
0.000000
0.000000
-0.228751
-0.412767
-0.601310
-0.786995
-0.969941
-1.149445
-1.324910
-1.495765
-1.661469
-1.821521
-1.975463
-2.122879
-2.263404
-2.396723
-2.522576
-2.640760
-2.751130
-2.853602
-2.948153
-3.034820
-3.113704
-3.184965
-3.248822
-3.305549
-3.355472
-3.398967
-3.436448
-3.468366
-3.495200
-3.517445
-3.535608
-3.550193
-3.561693
-3.570581
-3.577295
-3.582234
-3.585745
-3.588114
-3.589556
-3.590395
-3.000000
-3.000000
-3.000000
-3.000000
0.000000
0.000000
0.000000
0.000000
-0.228717
-0.412702
-0.601205
-0.786838
-0.969714
-1.149122
-1.324458
-1.495139
-1.660610
-1.820355
-1.973891
-2.120779
-2.260623
-2.393073
-2.517827
-2.634637
-2.743306
-2.843696
-2.935726
-3.019377
-3.094694
-3.161788
-3.220837
-3.272090
-3.315863
-3.352544
-3.382587
-3.406510
-3.424889
-3.438350
-3.447555
-3.453194
-3.455965
-3.456558
-3.455636
-3.453813
-3.451637
-3.449572
-3.447994
-3.446898
-3.000000
-3.000000
-3.000000
-3.000000
0.000000
0.000000
0.000000
0.000000
-0.228717
-0.412701
-0.601204
-0.786836
-0.969711
-1.149118
-1.324451
-1.495127
-1.660591
-1.820324
-1.973841
-2.120699
-2.260496
-2.392873
-2.517516
-2.634160
-2.742583
-2.842612
-2.934122
-3.017034
-3.091316
-3.156982
-3.214091
-3.262753
-3.303125
-3.335424
-3.359926
-3.376987
-3.387052
-3.390674
-3.388533
-3.381451
-3.370403
-3.356514
-3.341032
-3.325290
-3.310627
-3.298305
-3.289470
-3.283577
-3.000000
-3.000000
-3.000000
-3.000000
0.000000
0.000000
0.000000
0.000000
-0.228717
-0.412701
-0.601204
-0.786836
-0.969711
-1.149118
-1.324451
-1.495127
-1.660591
-1.820324
-1.973841
-2.120699
-2.260496
-2.392873
-2.517516
-2.634160
-2.742583
-2.842612
-2.934122
-3.017034
-3.091315
-3.156978
-3.214083
-3.262735
-3.303088
-3.335345
-3.359767
-3.376669
-3.386431
-3.389487
-3.386313
-3.377399
-3.363182
-3.343960
-3.319768
-3.290228
-3.254402
-3.210897
-3.157130
-3.095045
-3.000000
-3.000000
-3.000000
-3.000000
0.000000
0.000000
0.000000
0.000000
-0.228717
-0.412701
-0.601204
-0.786836
-0.969711
-1.149118
-1.324451
-1.495127
-1.660591
-1.820324
-1.973841
-2.120699
-2.260496
-2.392873
-2.517516
-2.634160
-2.742583
-2.842612
-2.934122
-3.017034
-3.091315
-3.156978
-3.214083
-3.262735
-3.303088
-3.335345
-3.359767
-3.376669
-3.386431
-3.389487
-3.386313
-3.377399
-3.363182
-3.343960
-3.319768
-3.290228
-3.254402
-3.210897
-3.157130
-3.095045
-3.000000
-3.000000
-3.000000
-3.000000
0.000000
0.000000
0.000000
0.000000
-0.231112
-0.417030
-0.607521
-0.795126
-0.979960
-1.161309
-1.338561
-1.511128
-1.678448
-1.839994
-1.995274
-2.143836
-2.285266
-2.419197
-2.545303
-2.663306
-2.772972
-2.874117
-2.966601
-3.050333
-3.125269
-3.191410
-3.248804
-3.297547
-3.337784
-3.369714
-3.393592
-3.409736
-3.418526
-3.420404
-3.415858
-3.405387
-3.389437
-3.368308
-3.342015
-3.310139
-3.271665
-3.225089
-3.167643
-3.101381
0.000000
0.000000
0.000000
0.000000
-0.235336
-0.424669
-0.618690
-0.809813
-0.998170
-1.183039
-1.363807
-1.539876
-1.710677
-1.875670
-2.034351
-2.186248
-2.330931
-2.468008
-2.597130
-2.717992
-2.830334
-2.933940
-3.028641
-3.114314
-3.190885
-3.258322
-3.316647
-3.365927
-3.406284
-3.437898
-3.461010
-3.475930
-3.483043
-3.482798
-3.475701
-3.462268
-3.442963
-3.418082
-3.387609
-3.351035
-3.307184
-3.254334
-3.189328
-3.114459
0.000000
0.000000
0.000000
0.000000
-0.239361
-0.431964
-0.629389
-0.823945
-1.015783
-1.204190
-1.388556
-1.568282
-1.742797
-1.911553
-2.074034
-2.229751
-2.378253
-2.519123
-2.651981
-2.776486
-2.892341
-2.999288
-3.097112
-3.185645
-3.264760
-3.334381
-3.394478
-3.445074
-3.486247
-3.518139
-3.540961
-3.555005
-3.560642
-3.558325
-3.548571
-3.531915
-3.508833
-3.479617
-3.444203
-3.401976
-3.351558
-3.290952
-3.216527
-3.130880
0.000000
0.000000
0.000000
0.000000
-0.242768
-0.438162
-0.638532
-0.836114
-1.031095
-1.222782
-1.410581
-1.593910
-1.772203
-1.944915
-2.111524
-2.271532
-2.424468
-2.569888
-2.707379
-2.836559
-2.957079
-3.068625
-3.170918
-3.263720
-3.346831
-3.420095
-3.483403
-3.536699
-3.579982
-3.613325
-3.636877
-3.650877
-3.655664
-3.651671
-3.639413
-3.619430
-3.592205
-3.558012
-3.516725
-3.467582
-3.408944
-3.338463
-3.251900
-3.152269
0.000000
0.000000
0.000000
0.000000
-0.245066
-0.442374
-0.644815
-0.844599
-1.041965
-1.236255
-1.426914
-1.613391
-1.795147
-1.971661
-2.142425
-2.306948
-2.464759
-2.615399
-2.758432
-2.893438
-3.020017
-3.137791
-3.246402
-3.345517
-3.434832
-3.514071
-3.582997
-3.641418
-3.689198
-3.726274
-3.752667
-3.768504
-3.774027
-3.769602
-3.755693
-3.732814
-3.701420
-3.661736
-3.613526
-3.555819
-3.486615
-3.403089
-3.300187
-3.181533
0.000000
0.000000
0.000000
0.000000
-0.246037
-0.444182
-0.647576
-0.848446
-1.047078
-1.242863
-1.435294
-1.623873
-1.808115
-1.987553
-2.161732
-2.330213
-2.492568
-2.648377
-2.797229
-2.938716
-3.072431
-3.197964
-3.314904
-3.422833
-3.521329
-3.609969
-3.688336
-3.756026
-3.812671
-3.857951
-3.891630
-3.913575
-3.923789
-3.922419
-3.909747
-3.886130
-3.851878
-3.807052
-3.751178
-3.682912
-3.599684
-3.497959
-3.371500
-3.224920
0.000000
0.000000
0.000000
0.000000
-0.246175
-0.444449
-0.648008
-0.849092
-1.048008
-1.244174
-1.437118
-1.626382
-1.811532
-1.992164
-2.167896
-2.338379
-2.503284
-2.662306
-2.815160
-2.961569
-3.101260
-3.233953
-3.359348
-3.477113
-3.586868
-3.688176
-3.780533
-3.863368
-3.936046
-3.997890
-4.048207
-4.086330
-4.111663
-4.123718
-4.122121
-4.106572
-4.076712
-4.031891
-3.970819
-3.891154
-3.789065
-3.659620
-3.494535
-3.300375
0.000000
0.000000
0.000000
0.000000
-0.246176
-0.444452
-0.648012
-0.849099
-1.048021
-1.244196
-1.437156
-1.626444
-1.811634
-1.992329
-2.168164
-2.338804
-2.503954
-2.663351
-2.816769
-2.964018
-3.104944
-3.239428
-3.367384
-3.488756
-3.603520
-3.711674
-3.813238
-3.908244
-3.996725
-4.078693
-4.154106
-4.222815
-4.284469
-4.338383
-4.383330
-4.417249
-4.436862
-4.437221
-4.411234
-4.349332
-4.239400
-4.068399
-3.819785
-3.505682
0.000000
0.000000
0.000000
0.000000
-0.246176
-0.444452
-0.648012
-0.849099
-1.048021
-1.244196
-1.437156
-1.626444
-1.811634
-1.992329
-2.168164
-2.338804
-2.503954
-2.663351
-2.816769
-2.964018
-3.104945
-3.239430
-3.367387
-3.488763
-3.603534
-3.711704
-3.813304
-3.908385
-3.997020
-4.079298
-4.155321
-4.225204
-4.289066
-4.347033
-4.399232
-4.445789
-4.486824
-4.522452
-4.552778
-4.577897
-4.597891
-4.612824
-4.622686
-4.628851
0.000000
0.000000
0.000000
0.000000
-0.246176
-0.444452
-0.648012
-0.849099
-1.048021
-1.244196
-1.437156
-1.626444
-1.811634
-1.992329
-2.168164
-2.338804
-2.503954
-2.663351
-2.816769
-2.964018
-3.104945
-3.239430
-3.367387
-3.488763
-3.603534
-3.711704
-3.813304
-3.908385
-3.997020
-4.079298
-4.155321
-4.225204
-4.289066
-4.347033
-4.399232
-4.445789
-4.486824
-4.522452
-4.552778
-4.577897
-4.597891
-4.612824
-4.622686
-4.628851
0.000000
0.000000
0.000000
0.000000
-0.246176
-0.444452
-0.648012
-0.849099
-1.048021
-1.244196
-1.437156
-1.626444
-1.811634
-1.992329
-2.168164
-2.338804
-2.503954
-2.663351
-2.816769
-2.964018
-3.104945
-3.239430
-3.367387
-3.488763
-3.603534
-3.711704
-3.813304
-3.908385
-3.997020
-4.079298
-4.155321
-4.225204
-4.289066
-4.347033
-4.399232
-4.445789
-4.486824
-4.522452
-4.552778
-4.577897
-4.597891
-4.612824
-4.622686
-4.628851
0.000000
0.000000
0.000000
0.000000
-0.246176
-0.444452
-0.648012
-0.849099
-1.048021
-1.244196
-1.437156
-1.626444
-1.811634
-1.992329
-2.168164
-2.338804
-2.503954
-2.663351
-2.816769
-2.964018
-3.104945
-3.239430
-3.367387
-3.488763
-3.603534
-3.711704
-3.813304
-3.908385
-3.997020
-4.079298
-4.155321
-4.225204
-4.289066
-4.347033
-4.399232
-4.445789
-4.486824
-4.522452
-4.552778
-4.577897
-4.597891
-4.612824
-4.622686
-4.628851
0.000000
0.000000
0.000000
0.000000
-0.246176
-0.444452
-0.648012
-0.849099
-1.048021
-1.244196
-1.437156
-1.626444
-1.811634
-1.992329
-2.168164
-2.338804
-2.503954
-2.663351
-2.816769
-2.964018
-3.104945
-3.239430
-3.367387
-3.488763
-3.603534
-3.711704
-3.813304
-3.908385
-3.997020
-4.079298
-4.155321
-4.225204
-4.289066
-4.347033
-4.399232
-4.445789
-4.486824
-4.522452
-4.552778
-4.577897
-4.597891
-4.612824
-4.622686
-4.628851
0.000000
0.000000
0.000000
0.000000
-0.246176
-0.444452
-0.648012
-0.849099
-1.048021
-1.244196
-1.437156
-1.626444
-1.811634
-1.992329
-2.168164
-2.338804
-2.503954
-2.663351
-2.816769
-2.964018
-3.104945
-3.239430
-3.367387
-3.488763
-3.603534
-3.711704
-3.813304
-3.908385
-3.997020
-4.079298
-4.155321
-4.225204
-4.289066
-4.347033
-4.399232
-4.445789
-4.486824
-4.522452
-4.552778
-4.577897
-4.597891
-4.612824
-4.622686
-4.628851
0.000000
0.000000
0.000000
0.000000
-0.246176
-0.444452
-0.648012
-0.849099
-1.048021
-1.244196
-1.437156
-1.626444
-1.811634
-1.992329
-2.168164
-2.338804
-2.503954
-2.663351
-2.816769
-2.964018
-3.104945
-3.239430
-3.367387
-3.488763
-3.603534
-3.711704
-3.813304
-3.908385
-3.997020
-4.079298
-4.155321
-4.225204
-4.289066
-4.347033
-4.399232
-4.445789
-4.486824
-4.522452
-4.552778
-4.577897
-4.597891
-4.612824
-4.622686
-4.628851
0.000000
0.000000
0.000000
0.000000
-0.246176
-0.444452
-0.648012
-0.849099
-1.048021
-1.244196
-1.437156
-1.626444
-1.811634
-1.992329
-2.168164
-2.338804
-2.503954
-2.663351
-2.816769
-2.964018
-3.104945
-3.239430
-3.367387
-3.488763
-3.603534
-3.711704
-3.813304
-3.908385
-3.997020
-4.079298
-4.155321
-4.225204
-4.289066
-4.347033
-4.399232
-4.445789
-4.486824
-4.522452
-4.552778
-4.577897
-4.597891
-4.612824
-4.622686
-4.628851
0.000000
0.000000
0.000000
0.000000
-0.246176
-0.444452
-0.648012
-0.849099
-1.048021
-1.244196
-1.437156
-1.626444
-1.811634
-1.992329
-2.168164
-2.338804
-2.503954
-2.663351
-2.816769
-2.964018
-3.104945
-3.239430
-3.367387
-3.488763
-3.603534
-3.711704
-3.813304
-3.908385
-3.997020
-4.079298
-4.155321
-4.225204
-4.289066
-4.347033
-4.399232
-4.445789
-4.486824
-4.522452
-4.552778
-4.577897
-4.597891
-4.612824
-4.622686
-4.628851
0.000000
0.000000
0.000000
0.000000
-0.246176
-0.444452
-0.648012
-0.849099
-1.048021
-1.244196
-1.437156
-1.626444
-1.811634
-1.992329
-2.168164
-2.338804
-2.503954
-2.663351
-2.816769
-2.964018
-3.104945
-3.239430
-3.367387
-3.488763
-3.603534
-3.711704
-3.813304
-3.908385
-3.997020
-4.079298
-4.155321
-4.225204
-4.289066
-4.347033
-4.399232
-4.445789
-4.486824
-4.522452
-4.552778
-4.577897
-4.597891
-4.612824
-4.622686
-4.628851
0.000000
0.000000
0.000000
0.000000
-0.246176
-0.444452
-0.648012
-0.849099
-1.048021
-1.244196
-1.437156
-1.626444
-1.811634
-1.992329
-2.168164
-2.338804
-2.503954
-2.663351
-2.816769
-2.964018
-3.104945
-3.239430
-3.367387
-3.488763
-3.603534
-3.711704
-3.813304
-3.908385
-3.997020
-4.079298
-4.155321
-4.225204
-4.289066
-4.347033
-4.399232
-4.445789
-4.486824
-4.522452
-4.552778
-4.577897
-4.597891
-4.612824
-4.622686
-4.628851
0.000000
0.000000
0.000000
0.000000
-0.246176
-0.444452
-0.648012
-0.849099
-1.048021
-1.244196
-1.437156
-1.626444
-1.811634
-1.992329
-2.168164
-2.338804
-2.503954
-2.663351
-2.816769
-2.964018
-3.104945
-3.239430
-3.367387
-3.488763
-3.603534
-3.711704
-3.813304
-3.908385
-3.997020
-4.079298
-4.155321
-4.225204
-4.289066
-4.347033
-4.399232
-4.445789
-4.486824
-4.522452
-4.552778
-4.577897
-4.597891
-4.612824
-4.622686
-4.628851
0.000000
0.000000
0.000000
0.000000
-0.246176
-0.444452
-0.648012
-0.849099
-1.048021
-1.244196
-1.437156
-1.626444
-1.811634
-1.992329
-2.168164
-2.338804
-2.503954
-2.663351
-2.816769
-2.964018
-3.104945
-3.239430
-3.367387
-3.488763
-3.603534
-3.711704
-3.813304
-3.908385
-3.997020
-4.079298
-4.155321
-4.225204
-4.289066
-4.347033
-4.399232
-4.445789
-4.486824
-4.522452
-4.552778
-4.577897
-4.597891
-4.612824
-4.622686
-4.628851
0.000000
0.000000
0.000000
0.000000
-0.246176
-0.444452
-0.648012
-0.849099
-1.048021
-1.244196
-1.437156
-1.626444
-1.811634
-1.992329
-2.168164
-2.338804
-2.503954
-2.663351
-2.816769
-2.964018
-3.104945
-3.239430
-3.367387
-3.488763
-3.603534
-3.711704
-3.813304
-3.908385
-3.997020
-4.079298
-4.155321
-4.225204
-4.289066
-4.347033
-4.399232
-4.445789
-4.486824
-4.522452
-4.552778
-4.577897
-4.597891
-4.612824
-4.622686
-4.628851
0.000000
0.000000
0.000000
0.000000
-0.246176
-0.444452
-0.648012
-0.849099
-1.048021
-1.244196
-1.437156
-1.626444
-1.811634
-1.992329
-2.168164
-2.338804
-2.503954
-2.663351
-2.816769
-2.964018
-3.104945
-3.239430
-3.367387
-3.488763
-3.603534
-3.711704
-3.813304
-3.908385
-3.997020
-4.079298
-4.155321
-4.225204
-4.289066
-4.347033
-4.399232
-4.445789
-4.486824
-4.522452
-4.552778
-4.577897
-4.597891
-4.612824
-4.622686
-4.628851
0.000000
0.000000
0.000000
0.000000
-0.246176
-0.444452
-0.648012
-0.849099
-1.048021
-1.244196
-1.437156
-1.626444
-1.811634
-1.992329
-2.168164
-2.338804
-2.503954
-2.663351
-2.816769
-2.964018
-3.104945
-3.239430
-3.367387
-3.488763
-3.603534
-3.711704
-3.813304
-3.908385
-3.997020
-4.079298
-4.155321
-4.225204
-4.289066
-4.347033
-4.399232
-4.445789
-4.486824
-4.522452
-4.552778
-4.577897
-4.597891
-4.612824
-4.622686
-4.628851
0.000000
0.000000
0.000000
0.000000
-0.246176
-0.444452
-0.648012
-0.849099
-1.048021
-1.244196
-1.437156
-1.626444
-1.811634
-1.992329
-2.168164
-2.338804
-2.503954
-2.663351
-2.816769
-2.964018
-3.104945
-3.239430
-3.367387
-3.488763
-3.603534
-3.711704
-3.813304
-3.908385
-3.997020
-4.079298
-4.155321
-4.225204
-4.289066
-4.347033
-4.399232
-4.445789
-4.486824
-4.522452
-4.552778
-4.577897
-4.597891