<?xml version='1.0' encoding='UTF-8'?>
<VTKFile xmlns='VTK' byte_order='LittleEndian' version='0.1' type='UnstructuredGrid'>
<UnstructuredGrid>
<Piece NumberOfCells='1816' NumberOfPoints='1816'>
<Points>
<DataArray NumberOfComponents='3' type='Float32' Name='Position' format='ascii'>
0.930000 0.400000 0.000000
0.930000 0.412500 0.000000
0.930000 0.425000 0.000000
0.930000 0.437500 0.000000
0.930000 0.450000 0.000000
0.930000 0.462500 0.000000
0.930000 0.475000 0.000000
0.930000 0.487500 0.000000
0.967500 0.400000 0.000000
0.967500 0.412500 0.000000
0.967500 0.425000 0.000000
0.967500 0.437500 0.000000
0.967500 0.450000 0.000000
0.967500 0.462500 0.000000
0.967500 0.475000 0.000000
0.967500 0.487500 0.000000
0.025000 0.000000 0.000000
0.025000 0.012500 0.000000
0.025000 0.025000 0.000000
0.025000 0.037500 0.000000
0.025000 0.050000 0.000000
0.025000 0.062500 0.000000
0.025000 0.075000 0.000000
0.025000 0.087500 0.000000
0.025000 0.100000 0.000000
0.025000 0.112500 0.000000
0.025000 0.125000 0.000000
0.025000 0.137500 0.000000
0.025000 0.150000 0.000000
0.025000 0.162500 0.000000
0.025000 0.175000 0.000000
0.025000 0.187500 0.000000
0.025000 0.200000 0.000000
0.025000 0.212500 0.000000
0.025000 0.225000 0.000000
0.025000 0.237500 0.000000
0.025000 0.250000 0.000000
0.025000 0.262500 0.000000
0.025000 0.275000 0.000000
0.025000 0.287500 0.000000
0.025000 0.300000 0.000000
0.025000 0.312500 0.000000
0.025000 0.325000 0.000000
0.025000 0.337500 0.000000
0.025000 0.350000 0.000000
0.025000 0.362500 0.000000
0.025000 0.375000 0.000000
0.025000 0.387500 0.000000
1.005000 0.400000 0.000000
1.005000 0.412500 0.000000
1.005000 0.425000 0.000000
1.005000 0.437500 0.000000
1.005000 0.450000 0.000000
1.005000 0.462500 0.000000
1.005000 0.475000 0.000000
1.005000 0.487500 0.000000
0.062500 0.000000 0.000000
0.062500 0.012500 0.000000
0.062500 0.025000 0.000000
0.062500 0.037500 0.000000
0.062500 0.050000 0.000000
0.062500 0.062500 0.000000
0.062500 0.075000 0.000000
0.062500 0.087500 0.000000
0.062500 0.100000 0.000000
0.062500 0.112500 0.000000
0.062500 0.125000 0.000000
0.062500 0.137500 0.000000
0.062500 0.150000 0.000000
0.062500 0.162500 0.000000
0.062500 0.175000 0.000000
0.062500 0.187500 0.000000
0.062500 0.200000 0.000000
0.062500 0.212500 0.000000
0.062500 0.225000 0.000000
0.062500 0.237500 0.000000
0.062500 0.250000 0.000000
0.062500 0.262500 0.000000
0.062500 0.275000 0.000000
0.062500 0.287500 0.000000
0.062500 0.300000 0.000000
0.062500 0.312500 0.000000
0.062500 0.325000 0.000000
0.062500 0.337500 0.000000
0.062500 0.350000 0.000000
0.062500 0.362500 0.000000
0.062500 0.375000 0.000000
0.062500 0.387500 0.000000
1.042500 0.400000 0.000000
1.042500 0.412500 0.000000
1.042500 0.425000 0.000000
1.042500 0.437500 0.000000
1.042500 0.450000 0.000000
1.042500 0.462500 0.000000
1.042500 0.475000 0.000000
1.042500 0.487500 0.000000
0.100000 0.000000 0.000000
0.100000 0.012500 0.000000
0.100000 0.025000 0.000000
0.100000 0.037500 0.000000
0.100000 0.050000 0.000000
0.100000 0.062500 0.000000
0.100000 0.075000 0.000000
0.100000 0.087500 0.000000
0.100000 0.100000 0.000000
0.100000 0.112500 0.000000
0.100000 0.125000 0.000000
0.100000 0.137500 0.000000
0.100000 0.150000 0.000000
0.100000 0.162500 0.000000
0.100000 0.175000 0.000000
0.100000 0.187500 0.000000
0.100000 0.200000 0.000000
0.100000 0.212500 0.000000
0.100000 0.225000 0.000000
0.100000 0.237500 0.000000
0.100000 0.250000 0.000000
0.100000 0.262500 0.000000
0.100000 0.275000 0.000000
0.100000 0.287500 0.000000
0.100000 0.300000 0.000000
0.100000 0.312500 0.000000
0.100000 0.325000 0.000000
0.100000 0.337500 0.000000
0.100000 0.350000 0.000000
0.100000 0.362500 0.000000
0.100000 0.375000 0.000000
0.100000 0.387500 0.000000
1.080000 0.400000 0.000000
1.080000 0.412500 0.000000
1.080000 0.425000 0.000000
1.080000 0.437500 0.000000
1.080000 0.450000 0.000000
1.080000 0.462500 0.000000
1.080000 0.475000 0.000000
1.080000 0.487500 0.000000
0.137500 0.000000 0.000000
0.137500 0.012500 0.000000
0.137500 0.025000 0.000000
0.137500 0.037500 0.000000
0.137500 0.050000 0.000000
0.137500 0.062500 0.000000
0.137500 0.075000 0.000000
0.137500 0.087500 0.000000
0.137500 0.100000 0.000000
0.137500 0.112500 0.000000
0.137500 0.125000 0.000000
0.137500 0.137500 0.000000
0.137500 0.150000 0.000000
0.137500 0.162500 0.000000
0.137500 0.175000 0.000000
0.137500 0.187500 0.000000
0.137500 0.200000 0.000000
0.137500 0.212500 0.000000
0.137500 0.225000 0.000000
0.137500 0.237500 0.000000
0.137500 0.250000 0.000000
0.137500 0.262500 0.000000
0.137500 0.275000 0.000000
0.137500 0.287500 0.000000
0.137500 0.300000 0.000000
0.137500 0.312500 0.000000
0.137500 0.325000 0.000000
0.137500 0.337500 0.000000
0.137500 0.350000 0.000000
0.137500 0.362500 0.000000
0.137500 0.375000 0.000000
0.137500 0.387500 0.000000
1.117500 0.400000 0.000000
1.117500 0.412500 0.000000
1.117500 0.425000 0.000000
1.117500 0.437500 0.000000
1.117500 0.450000 0.000000
1.117500 0.462500 0.000000
1.117500 0.475000 0.000000
1.117500 0.487500 0.000000
0.175000 0.000000 0.000000
0.175000 0.012500 0.000000
0.175000 0.025000 0.000000
0.175000 0.037500 0.000000
0.175000 0.050000 0.000000
0.175000 0.062500 0.000000
0.175000 0.075000 0.000000
0.175000 0.087500 0.000000
0.175000 0.100000 0.000000
0.175000 0.112500 0.000000
0.175000 0.125000 0.000000
0.175000 0.137500 0.000000
0.175000 0.150000 0.000000
0.175000 0.162500 0.000000
0.175000 0.175000 0.000000
0.175000 0.187500 0.000000
0.175000 0.200000 0.000000
0.175000 0.212500 0.000000
0.175000 0.225000 0.000000
0.175000 0.237500 0.000000
0.175000 0.250000 0.000000
0.175000 0.262500 0.000000
0.175000 0.275000 0.000000
0.175000 0.287500 0.000000
0.175000 0.300000 0.000000
0.175000 0.312500 0.000000
0.175000 0.325000 0.000000
0.175000 0.337500 0.000000
0.175000 0.350000 0.000000
0.175000 0.362500 0.000000
0.175000 0.375000 0.000000
0.175000 0.387500 0.000000
1.155000 0.400000 0.000000
1.155000 0.412500 0.000000
1.155000 0.425000 0.000000
1.155000 0.437500 0.000000
1.155000 0.450000 0.000000
1.155000 0.462500 0.000000
1.155000 0.475000 0.000000
1.155000 0.487500 0.000000
0.212500 0.000000 0.000000
0.212500 0.012500 0.000000
0.212500 0.025000 0.000000
0.212500 0.037500 0.000000
0.212500 0.050000 0.000000
0.212500 0.062500 0.000000
0.212500 0.075000 0.000000
0.212500 0.087500 0.000000
0.212500 0.100000 0.000000
0.212500 0.112500 0.000000
0.212500 0.125000 0.000000
0.212500 0.137500 0.000000
0.212500 0.150000 0.000000
0.212500 0.162500 0.000000
0.212500 0.175000 0.000000
0.212500 0.187500 0.000000
0.212500 0.200000 0.000000
0.212500 0.212500 0.000000
0.212500 0.225000 0.000000
0.212500 0.237500 0.000000
0.212500 0.250000 0.000000
0.212500 0.262500 0.000000
0.212500 0.275000 0.000000
0.212500 0.287500 0.000000
0.212500 0.300000 0.000000
0.212500 0.312500 0.000000
0.212500 0.325000 0.000000
0.212500 0.337500 0.000000
0.212500 0.350000 0.000000
0.212500 0.362500 0.000000
0.212500 0.375000 0.000000
0.212500 0.387500 0.000000
1.192500 0.400000 0.000000
1.192500 0.412500 0.000000
1.192500 0.425000 0.000000
1.192500 0.437500 0.000000
1.192500 0.450000 0.000000
1.192500 0.462500 0.000000
1.192500 0.475000 0.000000
1.192500 0.487500 0.000000
0.250000 0.000000 0.000000
0.250000 0.012500 0.000000
0.250000 0.025000 0.000000
0.250000 0.037500 0.000000
0.250000 0.050000 0.000000
0.250000 0.062500 0.000000
0.250000 0.075000 0.000000
0.250000 0.087500 0.000000
0.250000 0.100000 0.000000
0.250000 0.112500 0.000000
0.250000 0.125000 0.000000
0.250000 0.137500 0.000000
0.250000 0.150000 0.000000
0.250000 0.162500 0.000000
0.250000 0.175000 0.000000
0.250000 0.187500 0.000000
0.250000 0.200000 0.000000
0.250000 0.212500 0.000000
0.250000 0.225000 0.000000
0.250000 0.237500 0.000000
0.250000 0.250000 0.000000
0.250000 0.262500 0.000000
0.250000 0.275000 0.000000
0.250000 0.287500 0.000000
0.250000 0.300000 0.000000
0.250000 0.312500 0.000000
0.250000 0.325000 0.000000
0.250000 0.337500 0.000000
0.250000 0.350000 0.000000
0.250000 0.362500 0.000000
0.250000 0.375000 0.000000
0.250000 0.387500 0.000000
1.230000 0.400000 0.000000
1.230000 0.412500 0.000000
1.230000 0.425000 0.000000
1.230000 0.437500 0.000000
1.230000 0.450000 0.000000
1.230000 0.462500 0.000000
1.230000 0.475000 0.000000
1.230000 0.487500 0.000000
0.287500 0.000000 0.000000
0.287500 0.012500 0.000000
0.287500 0.025000 0.000000
0.287500 0.037500 0.000000
0.287500 0.050000 0.000000
0.287500 0.062500 0.000000
0.287500 0.075000 0.000000
0.287500 0.087500 0.000000
0.287500 0.100000 0.000000
0.287500 0.112500 0.000000
0.287500 0.125000 0.000000
0.287500 0.137500 0.000000
0.287500 0.150000 0.000000
0.287500 0.162500 0.000000
0.287500 0.175000 0.000000
0.287500 0.187500 0.000000
0.287500 0.200000 0.000000
0.287500 0.212500 0.000000
0.287500 0.225000 0.000000
0.287500 0.237500 0.000000
0.287500 0.250000 0.000000
0.287500 0.262500 0.000000
0.287500 0.275000 0.000000
0.287500 0.287500 0.000000
0.287500 0.300000 0.000000
0.287500 0.312500 0.000000
0.287500 0.325000 0.000000
0.287500 0.337500 0.000000
0.287500 0.350000 0.000000
0.287500 0.362500 0.000000
0.287500 0.375000 0.000000
0.287500 0.387500 0.000000
1.267500 0.400000 0.000000
1.267500 0.412500 0.000000
1.267500 0.425000 0.000000
1.267500 0.437500 0.000000
1.267500 0.450000 0.000000
1.267500 0.462500 0.000000
1.267500 0.475000 0.000000
1.267500 0.487500 0.000000
0.325000 0.000000 0.000000
0.325000 0.012500 0.000000
0.325000 0.025000 0.000000
0.325000 0.037500 0.000000
0.325000 0.050000 0.000000
0.325000 0.062500 0.000000
0.325000 0.075000 0.000000
0.325000 0.087500 0.000000
0.325000 0.100000 0.000000
0.325000 0.112500 0.000000
0.325000 0.125000 0.000000
0.325000 0.137500 0.000000
0.325000 0.150000 0.000000
0.325000 0.162500 0.000000
0.325000 0.175000 0.000000
0.325000 0.187500 0.000000
0.325000 0.200000 0.000000
0.325000 0.212500 0.000000
0.325000 0.225000 0.000000
0.325000 0.237500 0.000000
0.325000 0.250000 0.000000
0.325000 0.262500 0.000000
0.325000 0.275000 0.000000
[...]
<PointData>
<DataArray NumberOfComponents='1' type='Int32' Name='ParticleType' format='ascii'>
5
5
5
5
5
5
5
5
5
5
5
5
5
5
5
5
2
2
2
2
2
2
2
2
2
2
2
2
2
2
2
2
2
2
2
2
2
2
2
2
2
1
1
0
0
0
0
0
5
5
5
5
5
5
5
5
2
2
2
2
2
2
2
2
2
2
2
2
2
2
2
2
2
2
2
2
2
2
2
2
2
1
1
0
0
0
0
0
5
5
5
5
5
5
5
5
2
2
2
2
2
2
2
2
2
2
2
2
2
2
2
2
2
2
2
2
2
2
2
2
2
1
1
0
0
0
0
0
5
5
5
5
5
5
5
5
2
2
2
2
2
2
2
2
2
2
2
2
2
2
2
2
2
2
2
2
2
2
2
2
2
1
0
0
0
0
0
0
5
5
5
5
5
5
5
5
2
2
2
2
2
2
2
2
2
2
2
2
2
2
2
2
2
2
2
2
2
2
2
2
1
1
0
0
0
0
0
0
5
5
5
5
5
5
5
5
2
2
2
2
2
2
2
2
2
2
2
2
2
2
2
2
2
2
2
2
2
2
2
2
2
1
0
0
0
0
0
0
5
5
5
5
5
5
5
5
2
2
2
2
2
2
2
2
2
2
2
2
2
2
2
2
2
2
2
2
2
2
2
2
1
1
0
0
0
0
0
0
5
5
5
5
5
5
5
5
2
2
2
2
2
2
2
2
2
2
2
2
2
2
2
2
2
2
2
2
2
2
2
2
1
1
0
0
0
0
0
0
5
5
5
5
5
5
5
5
2
2
2
2
2
2
2
2
2
2
2
2
2
2
2
2
2
2
2
2
2
2
2
2
1
1
0
0
0
0
0
0
5
5
5
5
5
5
5
5
2
2
2
2
2
2
2
2
2
2
2
2
2
2
2
2
2
2
2
2
2
2
2
2
1
1
0
0
0
0
0
0
5
5
5
5
5
5
5
5
2
2
2
2
2
2
2
2
2
2
2
2
2
2
2
2
2
2
2
2
2
2
2
2
1
1
0
0
0
0
0
0
5
5
5
5
5
5
5
5
2
2
2
2
2
2
2
2
2
2
2
2
2
2
2
2
2
2
2
2
2
2
2
2
1
1
0
0
0
0
0
0
5
5
5
5
5
5
5
5
2
2
2
2
2
2
2
2
2
2
2
2
2
2
2
2
2
2
2
2
2
2
2
2
1
1
0
0
0
0
0
0
5
5
5
5
5
5
5
5
2
2
2
2
2
2
2
2
2
2
2
2
2
2
2
2
2
2
2
2
2
2
2
2
1
1
0
0
0
0
0
0
2
2
2
2
2
2
2
2
2
2
2
2
2
2
2
2
2
2
2
2
2
2
2
2
1
1
0
0
0
0
0
0
2
2
2
2
2
2
2
2
2
2
2
2
2
2
2
2
2
2
2
2
2
2
2
2
1
1
0
0
0
0
0
0
2
2
2
2
2
2
2
2
2
2
2
2
2
2
2
2
2
2
2
2
2
2
2
2
1
1
0
0
0
0
0
0
2
2
2
2
2
2
2
2
2
2
2
2
2
2
2
2
2
2
2
2
2
2
2
2
2
1
1
0
0
0
0
0
2
2
2
2
2
2
2
2
2
2
2
2
2
2
2
2
2
2
2
2
2
2
2
2
2
1
0
0
0
0
0
0
2
2
2
2
2
2
2
2
2
2
2
2
2
2
2
2
2
2
2
2
2
2
2
2
2
1
1
0
0
0
0
0
2
2
2
2
2
2
2
2
2
2
2
2
2
2
2
2
2
2
2
2
2
2
2
2
2
1
1
0
0
0
0
0
2
2
2
2
2
2
2
2
2
2
2
2
2
2
2
2
2
2
2
2
2
2
2
2
2
1
1
0
0
0
0
0
2
2
2
2
2
2
2
2
2
2
2
2
2
2
2
2
2
2
2
2
2
2
2
2
2
1
1
0
0
0
0
0
2
2
2
2
2
2
2
2
2
2
2
2
2
2
2
2
2
2
2
2
2
2
2
2
2
1
1
0
0
0
0
0
2
2
2
2
2
2
2
2
2
2
2
2
2
2
2
2
2
2
2
2
2
2
2
2
2
1
1
0
0
0
0
0
2
2
2
2
2
2
2
2
2
2
2
2
2
2
2
2
2
2
2
2
2
2
2
2
2
2
1
1
0
0
0
0
2
2
2
2
2
2
2
2
2
2
2
2
2
2
2
2
2
2
2
2
2
2
2
2
2
1
1
0
0
0
0
0
2
2
2
2
2
2
2
2
2
2
2
2
2
2
2
2
2
2
2
2
2
2
2
2
2
2
1
1
0
0
0
0
2
2
2
2
2
2
2
2
2
2
2
2
2
2
2
2
2
2
2
2
2
2
2
2
2
2
1
1
0
0
0
0
2
2
2
2
2
2
2
2
2
2
2
2
2
2
2
2
2
2
2
2
2
2
2
2
2
2
1
0
0
0
0
0
2
2
2
2
2
2
2
2
2
2
2
2
2
2
2
2
2
2
2
2
2
2
2
2
2
2
1
1
0
0
0
0
2
2
2
2
2
2
2
2
2
2
2
2
2
2
2
2
2
2
2
2
2
2
2
2
2
2
1
0
0
0
0
0
2
2
2
2
2
2
2
2
2
2
2
2
2
2
2
2
2
2
2
2
2
2
2
2
2
2
1
1
0
0
0
0
2
2
2
2
2
2
2
2
2
2
2
2
2
2
2
2
2
2
2
2
2
2
2
2
2
2
2
0
0
0
0
0
2
2
2
2
2
2
2
2
2
2
2
2
2
2
2
2
2
2
2
2
2
2
2
2
2
2
2
1
0
0
0
0
2
2
2
2
2
2
2
2
2
2
2
2
2
2
2
2
2
2
2
2
2
2
2
2
2
2
2
0
0
0
0
0
2
2
2
2
2
2
2
2
2
2
2
2
2
2
2
2
2
2
2
2
2
2
2
2
2
2
2
2
0
0
0
0
2
2
2
2
2
2
2
2
2
2
2
2
2
2
2
2
2
2
2
2
2
2
2
2
2
2
2
2
0
0
0
0
2
2
2
2
2
2
2
2
2
2
2
2
2
2
2
2
2
2
2
2
2
2
2
2
2
2
2
2
2
0
0
0
2
2
2
2
2
2
2
2
2
2
2
2
2
2
2
2
2
2
2
2
2
2
2
2
2
2
2
2
2
2
2
2
2
2
2
2
2
2
2
2
2
2
2
2
2
2
2
2
2
2
2
2
2
2
2
2
2
2
2
2
2
2
2
2
2
2
2
2
2
2
2
2
2
2
2
2
2
2
2
2
2
2
2
2
2
2
2
2
2
2
2
2
2
2
2
2
2
2
2
2
2
2
2
2
2
2
2
2
2
2
2
2
2
2
2
2
2
2
2
2
2
2
2
2
2
2
2
2
2
2
2
2
2
2
2
2
2
2
2
2
2
2
2
2
2
2
2
2
2
2
2
2
2
2
2
2
2
2
2
2
2
2
2
2
2
2
2
2
2
2
2
2
2
2
2
2
2
2
2
2
2
2
2
2
2
2
2
2
2
2
2
2
2
2
2
2
2
2
2
2
2
2
2
2
2
2
2
2
2
2
2
2
2
2
2
2
2
2
2
2
2
2
2
2
2
2
2
2
2
2
2
2
2
2
2
2
2
2
2
2
2
2
2
2
2
2
2
2
2
2
2
2
2
2
2
2
2
2
2
2
2
2
2
2
2
2
2
2
2
2
2
2
2
2
2
2
2
2
2
2
2
2
2
2
2
2
2
2
2
2
2
2
2
2
2
2
2
2
2
2
2
2
2
2
2
2
2
2
2
2
2
2
2
2
2
2
2
2
2
2
2
2
2
2
2
2
2
2
2
2
2
2
2
2
2
2
2
2
2
2
2
2
2
2
2
2
2
2
2
2
2
2
2
2
2
2
2
2
2
2
2
2
2
2
2
2
2
2
2
2
2
2
2
2
2
2
2
2
2
2
2
2
2
2
2
2
2
2
2
2
2
2
2
2
2
2
2
2
2
2
2
2
2
2
2
2
2
2
2
2
2
2
2
2
2
2
2
2
2
2
2
2
2
2
2
2
2
2
2
2
2
2
2
2
2
2
2
2
2
2
2
2
2
2
2
2
2
2
</DataArray>
<DataArray NumberOfComponents='1' type='Float32' Name='Temperature' format='ascii'>
-3.000000
-3.000000
-3.000000
-3.000000
-3.000000
-3.000000
-3.000000
-3.000000
-3.000000
-3.000000
-3.000000
-3.000000
-3.000000
-3.000000
-3.000000
-3.000000
-4.997469
-4.996723
-4.995395
-4.993104
-4.989473
-4.983940
-4.975706
-4.963673
-4.946376
-4.921899
-4.887800
-4.841039
-4.777932
-4.694139
-4.584712
-4.444210
-4.266903
-4.047050
-3.779233
-3.458633
-3.081050
-2.642284
-2.136617
-1.552204
-0.889451
-0.006114
-0.001569
6.407405
30.381714
59.930302
91.310647
123.660281
-3.000000
-3.000000
-3.000000
-3.000000
-3.000000
-3.000000
-3.000000
-3.000000
-4.997414
-4.996648
-4.995285
-4.992929
-4.989191
-4.983488
-4.974989
-4.962552
-4.944645
-4.919262
-4.883831
-4.835132
-4.769222
-4.681395
-4.566177
-4.417394
-4.228318
-3.991944
-3.701416
-3.350644
-2.935103
-2.452836
-1.904871
-1.300748
-0.624516
-0.002208
0.003633
20.406651
49.454589
90.658899
135.642466
183.437969
-3.000000
-3.000000
-3.000000
-3.000000
-3.000000
-3.000000
-3.000000
-3.000000
-4.997384
-4.996607
-4.995223
-4.992830
-4.989034
-4.983238
-4.974597
-4.961949
-4.943738
-4.917930
-4.881921
-4.832464
-4.765600
-4.676625
-4.560098
-4.409907
-4.219418
-3.981721
-3.690021
-3.338197
-2.921554
-2.437823
-1.887431
-1.280827
-0.590643
-0.005310
0.003502
24.895758
63.580630
117.750676
177.134433
240.963565
-3.000000
-3.000000
-3.000000
-3.000000
-3.000000
-3.000000
-3.000000
-3.000000
-4.997366
-4.996582
-4.995186
-4.992770
-4.988935
-4.983078
-4.974339
-4.961539
-4.943094
-4.916930
-4.880387
-4.830138
-4.762119
-4.671489
-4.552647
-4.399308
-4.204692
-3.961812
-3.663919
-3.305062
-2.880639
-2.387633
-1.821863
-1.186154
-0.339293
-0.004180
3.409255
32.616138
78.955956
145.116699
218.601533
299.115745
-3.000000
-3.000000
-3.000000
-3.000000
-3.000000
-3.000000
-3.000000
-3.000000
-4.997357
-4.996570
-4.995167
-4.992739
-4.988884
-4.982992
-4.974198
-4.961310
-4.942726
-4.916343
-4.879463
-4.828704
-4.759927
-4.668197
-4.547799
-4.392321
-4.194837
-3.948163
-3.645153
-3.278828
-2.841904
-2.325206
-1.711779
-0.996393
-0.002585
0.003237
7.527718
39.451020
92.771903
170.168567
257.222430
354.382113
-3.000000
-3.000000
-3.000000
-3.000000
-3.000000
-3.000000
-3.000000
-3.000000
-4.997352
-4.996563
-4.995156
-4.992721
-4.988854
-4.982941
-4.974113
-4.961168
-4.942492
-4.915964
-4.878857
-4.827752
-4.758459
-4.665981
-4.544532
-4.387639
-4.188348
-3.939565
-3.634542
-3.267497
-2.834319
-2.333454
-1.764926
-1.145369
-0.392133
0.002936
0.652511
44.961981
105.790399
194.719330
295.768898
410.759965
-3.000000
-3.000000
-3.000000
-3.000000
-3.000000
-3.000000
-3.000000
-3.000000
-4.997350
-4.996560
-4.995151
-4.992712
-4.988837
-4.982913
-4.974063
-4.961083
-4.942348
-4.915725
-4.878469
-4.827133
-4.757494
-4.664512
-4.542351
-4.384479
-4.183864
-3.933276
-3.625626
-3.254182
-2.812212
-2.291586
-1.677522
-0.966178
-0.009181
-0.000739
8.449434
50.604439
117.616389
217.126577
331.634843
464.574273
-3.000000
-3.000000
-3.000000
-3.000000
-3.000000
-3.000000
-3.000000
-3.000000
-4.997349
-4.996558
-4.995148
-4.992707
-4.988828
-4.982896
-4.974033
-4.961030
-4.942256
-4.915570
-4.878211
-4.826713
-4.756824
-4.663457
-4.540702
-4.381879
-4.179659
-3.926189
-3.613167
-3.231788
-2.772677
-2.226271
-1.585879
-0.849817
-0.008129
-0.003066
14.116961
56.287358
129.084081
239.148100
367.577713
520.028940
-3.000000
-3.000000
-3.000000
-3.000000
-3.000000
-3.000000
-3.000000
-3.000000
-4.997349
-4.996558
-4.995147
-4.992705
-4.988824
-4.982887
-4.974018
-4.961002
-4.942207
-4.915484
-4.878065
-4.826470
-4.756425
-4.662811
-4.539664
-4.380214
-4.176979
-3.921858
-3.606196
-3.220812
-2.756213
-2.203416
-1.558340
-0.817021
0.000754
-0.001115
16.090192
60.682338
139.020842
259.100884
400.957971
573.216656
-3.000000
-3.000000
-3.000000
-3.000000
-3.000000
-3.000000
-3.000000
-3.000000
-4.997349
-4.996557
-4.995146
-4.992703
-4.988821
-4.982882
-4.974007
-4.960982
-4.942170
-4.915419
-4.877951
-4.826276
-4.756097
-4.662266
-4.538766
-4.378744
-4.174587
-3.918012
-3.600161
-3.211742
-2.743508
-2.187316
-1.541439
-0.798411
-0.008864
0.003395
17.866757
64.809909
148.511188
278.693127
434.512814
628.604521
-3.000000
-3.000000
-3.000000
-3.000000
-3.000000
-3.000000
-3.000000
-3.000000
-4.997349
-4.996558
-4.995147
-4.992704
-4.988821
-4.982881
-4.974005
-4.960976
-4.942158
-4.915393
-4.877902
-4.826182
-4.755925
-4.661961
-4.538235
-4.377837
-4.173071
-3.915543
-3.596279
-3.205937
-2.735401
-2.176901
-1.529819
-0.783783
-0.008942
0.007264
19.199485
68.251179
156.753068
296.338771
465.545017
681.971349
-3.000000
-3.000000
-3.000000
-3.000000
-3.000000
-3.000000
-3.000000
-3.000000
-4.997353
-4.996563
-4.995154
-4.992715
-4.988838
-4.982907
-4.974042
-4.961028
-4.942228
-4.915481
-4.878004
-4.826286
-4.756011
-4.662003
-4.538231
-4.377876
-4.173481
-3.917137
-3.600667
-3.215695
-2.753623
-2.205769
-1.566279
-0.828931
-0.002534
0.006634
15.920455
70.274352
164.039056
313.426562
496.665119
738.074335
-3.000000
-3.000000
-3.000000
-3.000000
-3.000000
-3.000000
-3.000000
-3.000000
-4.997374
-4.996586
-4.995182
-4.992748
-4.988874
-4.982940
-4.974053
-4.960978
-4.942035
-4.914988
-4.876919
-4.824093
-4.751826
-4.654377
-4.524895
-4.355459
-4.137290
-3.861193
-3.518304
-3.101159
-2.605107
-2.028915
-1.383252
-0.636024
-0.006250
0.002830
28.531369
75.737151
170.276287
327.278917
523.778869
791.202350
-3.000000
-3.000000
-3.000000
-3.000000
-3.000000
-3.000000
-3.000000
-3.000000
-4.997328
-4.996496
-4.995004
-4.992406
-4.988248
-4.981843
-4.972209
-4.957987
-4.937348
-4.907890
-4.866536
-4.809449
-4.731959
-4.628548
-4.492870
-4.317844
-4.095809
-3.818785
-3.478859
-3.068809
-2.583125
-2.018665
-1.382749
-0.645444
0.001721
0.002929
27.201793
82.866415
180.843002
342.695290
548.452345
841.451996
-4.997851
-4.997145
-4.995870
-4.993631
-4.990011
-4.984374
-4.975801
-4.963007
-4.944242
-4.917188
-4.878847
-4.825449
-4.752392
-4.654219
-4.524671
-4.356801
-4.143144
-3.875920
-3.547237
-3.149326
-2.675016
-2.118386
-1.480398
-0.745487
-0.004843
0.002472
20.957078
76.929601
173.395630
336.792923
549.360891
868.151785
-4.998486
-4.997960
-4.997002
-4.995304
-4.992529
-4.988155
-4.981420
-4.971240
-4.956118
-4.934030
-4.902312
-4.857539
-4.795426
-4.710760
-4.597393
-4.448319
-4.255859
-4.011986
-3.708778
-3.338946
-2.896214
-2.375031
-1.764515
-1.065546
-0.008986
-0.002538
6.511382
63.216331
159.756778
326.308945
547.408560
897.534029
-4.998878
-4.998455
-4.997675
-4.996272
-4.993936
-4.990183
-4.984290
-4.975207
-4.961453
-4.940991
-4.911092
-4.868197
-4.807801
-4.724388
-4.611436
-4.461526
-4.266577
-4.018159
-3.707807
-3.327107
-2.867316
-2.318610
-1.669688
-0.916701
-0.003386
-0.000083
13.136279
65.849800
156.645539
321.091238
546.673226
928.862799
-4.999247
-4.998945
-4.998382
-4.997355
-4.995624
-4.992801
-4.988303
-4.981266
-4.970457
-4.954143
-4.929963
-4.894775
-4.844509
-4.774047
-4.677143
-4.546426
-4.373519
-4.149305
-3.864389
-3.509772
-3.077733
-2.563054
-1.962417
-1.291360
-0.460697
0.003243
0.008627
51.515229
142.222861
308.678010
541.816902
963.908122
-4.999475
-4.999246
-4.998812
-4.998007
-4.996619
-4.994306
-4.990532
-4.984490
-4.974992
-4.960330
-4.938118
-4.905110
-4.857023
-4.788387
-4.692467
-4.561304
-4.385926
-4.156777
-3.864377
-3.500184
-3.057548
-2.532630
-1.922116
-1.237843
-0.312494
-0.002169
3.321975
54.935467
138.277312
301.106563
537.188472
1000.921785
-4.999668
-4.999513
-4.999214
-4.998652
-4.997669
-4.996000
-4.993229
-4.988718
-4.981509
-4.970200
-4.952798
-4.926541
-4.887711
-4.831448
-4.751605
-4.640662
-4.489747
-4.288800
-4.026931
-3.693010
-3.276588
-2.769308
-2.165496
-1.474446
-0.641069
0.002438
0.004935
39.183566
123.099131
286.447371
527.958673
1043.095188
-4.999785
-4.999676
-4.999462
-4.999050
-4.998310
-4.997022
-4.994826
-4.991152
-4.985120
-4.975402
-4.960045
-4.936261
-4.900184
-4.846625
-4.768869
-4.658572
-4.505842
-4.299584
-4.028189
-3.680574
-3.247524
-2.723326
-2.105704
-1.409973
-0.567125
-0.003470
0.008011
44.756119
118.574265
276.177528
517.711722
1087.414266
-4.999874
-4.999805
-4.999666
-4.999396
-4.998900
-4.998019
-4.996485
-4.993866
-4.989480
-4.982277
-4.970684
-4.952414
-4.924232
-4.881711
-4.819004
-4.728663
-4.601572
-4.427027
-4.192996
-3.886532
-3.494359
-3.003799
-2.403917
-1.693018
-0.849512
0.001844
0.000884
26.139779
102.879511
259.084575
501.997682
1138.656014
-4.999926
-4.999881
-4.999791
-4.999608
-4.999265
-4.998636
-4.997507
-4.995519
-4.992086
-4.986271
-4.976618
-4.960926
-4.935960
-4.897121
-4.838093
-4.750541
-4.623948
-4.445734
-4.201806
-3.877669
-3.460139
-2.939649
-2.311626
-1.587275
-0.726809
-0.004511
0.004736
34.934946
97.848666
245.775687
483.647556
1192.443136
-4.999961
-4.999935
-4.999881
-4.999771
-4.999557
-4.999157
-4.998418
-4.997086
-4.994727
-4.990637
-4.983691
-4.972152
-4.953413
-4.923687
-4.877675
-4.808242
-4.706198
-4.560279
-4.357441
-4.083505
-3.724039
-3.264935
-2.691931
-1.985623
-1.139842
0.001507
-0.002850
12.446878
82.502840
226.254707
458.370229
1255.334868
-4.999980
-4.999965
-4.999933
-4.999867
-4.999734
-4.999475
-4.998982
-4.998060
-4.996369
-4.993333
-4.987992
-4.978798
-4.963321
-4.937869
-4.897015
-4.833073
-4.735610
-4.591131
-4.383177
-4.093121
-3.701966
-3.193366
-2.557073
-1.797899
-0.903744
-0.005302
0.001309
25.850307
77.003870
209.573822
430.273454
1352.934876
-4.999990
-4.999983
-4.999966
-4.999930
-4.999856
-4.999706
-4.999412
-4.998845
-4.997773
-4.995788
-4.992195
-4.985835
-4.974838
-4.956290
-4.925797
-4.877003
-4.801095
-4.686457
-4.518638
-4.280878
-3.955400
-3.525551
-2.978843
-2.307949
-1.532196
-0.547045
-0.005412
0.009504
63.407726
187.685393
397.800276
1338.437992
-4.999996
-4.999992
-4.999984
-4.999965
-4.999924
-4.999840
-4.999667
-4.999320
-4.998637
-4.997320
-4.994837
-4.990260
-4.982014
-4.967519
-4.942673
-4.901195
-4.833834
-4.727543
-4.564822
-4.323556
-3.977872
-3.500741
-2.868994
-2.072355
-1.119199
-0.005842
-0.001887
17.930737
57.325533
169.064038
365.765421
1294.523028
-4.999998
-4.999997
-4.999993
-4.999984
-4.999965
-4.999922
-4.999832
-4.999644
-4.999258
-4.998487
-4.996977
-4.994091
-4.988706
-4.978913
-4.961572
-4.931711
-4.881793
-4.800912
-4.674143
-4.482358
-4.202976
-3.812125
-3.288592
-2.617762
-1.808883
-0.805637
-0.001344
0.005018
46.230097
148.195030
331.534245
1245.023072
-4.999999
-4.999999
-4.999997
-4.999994
-4.999985
-4.999966
-4.999922
-4.999827
-4.999623
-4.999197
-4.998323
-4.996575
-4.993165
-4.986679
-4.974673
-4.953075
-4.915368
-4.851595
-4.747322
-4.582888
-4.333496
-3.970873
-3.467318
-2.801240
-1.973657
-0.949443
-0.002470
0.001962
38.260234
128.671198
296.751452
1190.573508
-5.000000
-5.000000
-4.999999
-4.999998
-4.999994
-4.999986
-4.999967
-4.999923
-4.999824
-4.999604
-4.999130
-4.998132
-4.996077
-4.991957
-4.983914
-4.968646
-4.940506
-4.890237
-4.803364
-4.658434
-4.425577
-4.066175
-3.534755
-2.780691
-1.783707
-0.270752
-0.006011
8.617980
32.014883
110.484677
262.351064
1132.032890
-5.000000
-5.000000
-5.000000
-4.999999
-4.999998
-4.999995
-4.999988
-4.999971
-4.999929
-4.999832
-4.999610
-4.999117
-4.998047
-4.995784
-4.991133
-4.981850
-4.963885
-4.930238
-4.869371
-4.763264
-4.585510
-4.300350
-3.864314
-3.232620
-2.375175
-1.284142
-0.009118
-0.002110
24.336303
91.867358
226.592536
1065.466049
-5.000000
-5.000000
-5.000000
-5.000000
-4.999999
-4.999999
-4.999996
-4.999990
-4.999975
-4.999937
-4.999845
-4.999626
-4.999119
-4.997977
-4.995469
-4.990125
-4.979079
-4.956969
-4.914192
-4.834363
-4.691018
-4.444114
-4.037889
-3.402409
-2.474266
-1.119035
-0.007405
4.299634
18.832817
75.028050
191.804937
993.342765
-5.000000
-5.000000
-5.000000
-5.000000
-5.000000
-5.000000
-4.999999
-4.999997
-4.999993
-4.999981
-4.999950
-4.999870
-4.999672
-4.999192
-4.998059
-4.995466
-4.989718
-4.977398
-4.951926
-4.901273
-4.804661
-4.628505
-4.322506
-3.818074
-3.026849
-1.895667
-0.009569
-0.005939
13.239088
58.646014
156.504468
910.709003
-5.000000
-5.000000
-5.000000
-5.000000
-5.000000
-5.000000
-5.000000
-4.999999
-4.999998
-4.999996
-4.999987
-4.999964
-4.999900
-4.999733
-4.999304
-4.998233
-4.995647
-4.989603
-4.975976
-4.946402
-4.884797
-4.762020
-4.528708
-4.107543
-3.385525
-2.232163
-0.301626
1.454566
9.015547
44.140708
123.091788
820.477090
-5.000000
-5.000000
-5.000000
-5.000000
-5.000000
-5.000000
-5.000000
-5.000000
-5.000000
-4.999999
-4.999998
-4.999993
-4.999978
-4.999936
-4.999816
-4.999484
-4.998594
-4.996289
-4.990530
-4.976681
-4.944742
-4.874345
-4.726773
-4.434342
-3.890370
-2.963309
-1.405844
-0.008253
5.391911
30.849187
90.549894
716.261059
-5.000000
-5.000000
-5.000000
-5.000000
-5.000000
-5.000000
-5.000000
-5.000000
-5.000000
-5.000000
-5.000000
-4.999999
-4.999997
-4.999990
-4.999967
-4.999895
-4.999678
-4.999038
-4.997225
-4.992277
-4.979323
-4.946919
-4.869772
-4.695745
-4.325753
-3.586519
-2.229661
0.097055
2.774026
19.775172
61.472368
601.574217
-5.000000
-5.000000
-5.000000
-5.000000
-5.000000
-5.000000
-5.000000
-5.000000
-5.000000
-5.000000
-5.000000
-5.000000
-5.000000
-4.999999
-4.999997
-4.999989
-4.999961
-4.999863
-4.999534
-4.998475
-4.995185
-4.985404
-4.957715
-4.883558
-4.697022
-4.260258
-3.330007
-1.395212
0.963389
10.631316
35.581088
468.023954
-5.000000
-5.000000
-5.000000
-5.000000
-5.000000
-5.000000
-5.000000
-5.000000
-5.000000
-5.000000
-5.000000
-5.000000
-5.000000
-5.000000
-5.000000
-5.000000
-4.999998
-4.999992
-4.999969
-4.999875
-4.999509
-4.998133
-4.993176
-4.976168
-4.921023
-4.753793
-4.277369
-3.096626
0.049414
4.174707
15.717771
319.913694
-5.000000
-5.000000
-5.000000
-5.000000
-5.000000
-5.000000
-5.000000
-5.000000
-5.000000
-5.000000
-5.000000
-5.000000
-5.000000
-5.000000
-5.000000
-5.000000
-5.000000
-5.000000
-5.000000
-4.999998
-4.999992
-4.999962
-4.999825
-4.999179
-4.996092
-4.981565
-4.914635
-4.629256
-3.534908
0.471536
2.896940
146.030012
-5.000000
-5.000000
-5.000000
-5.000000
-5.000000
-5.000000
-5.000000
-5.000000
-5.000000
-5.000000
-5.000000
-5.000000
-5.000000
-5.000000
-5.000000
-5.000000
-5.000000
-5.000000
-5.000000
-5.000000
-5.000000
-5.000000
-4.999999
-4.999995
-4.999977
-4.999895
-4.999527
-4.997968
-4.992078
-4.967998
-4.927597
-4.563747
-5.000000
-5.000000
-5.000000
-5.000000
-5.000000
-5.000000
-5.000000
-5.000000
-5.000000
-5.000000
-5.000000
-5.000000
-5.000000
-5.000000
-5.000000
-5.000000
-5.000000
-5.000000
-5.000000
-5.000000
-5.000000
-5.000000
-5.000000
-5.000000
-5.000000
-5.000000
-4.999999
-4.999994
-4.999977
-4.999914
-4.999792
-4.999077
-5.000000
-5.000000
-5.000000
-5.000000
-5.000000
-5.000000
-5.000000
-5.000000
-5.000000
-5.000000
-5.000000
-5.000000
-5.000000
-5.000000
-5.000000
-5.000000
-5.000000
-5.000000
-5.000000
-5.000000
-5.000000
-5.000000
-5.000000
-5.000000
-5.000000
-5.000000
-5.000000
-5.000000
-5.000000
-5.000000
-5.000000
-4.999998
-5.000000
-5.000000
-5.000000
-5.000000
-5.000000
-5.000000
-5.000000
-5.000000
-5.000000
-5.000000
-5.000000
-5.000000
-5.000000
-5.000000
-5.000000
-5.000000
-5.000000
-5.000000
-5.000000
-5.000000
-5.000000
-5.000000
-5.000000
-5.000000
-5.000000
-5.000000
-5.000000
-5.000000
-5.000000
-5.000000
-5.000000
-5.000000
-5.000000
-5.000000
-5.000000
-5.000000
-5.000000
-5.000000
-5.000000
-5.000000
-5.000000
-5.000000
-5.000000
-5.000000
-5.000000
-5.000000
-5.000000
-5.000000
-5.000000
-5.000000
-5.000000
-5.000000
-5.000000
-5.000000
-5.000000
-5.000000
-5.000000
-5.000000
-5.000000
-5.000000
-5.000000
-5.000000
-5.000000
-5.000000
-5.000000
-5.000000
-5.000000
-5.000000
-5.000000
-5.000000
-5.000000
-5.000000
-5.000000
-5.000000
-5.000000
-5.000000
-5.000000
-5.000000
-5.000000
-5.000000
-5.000000
-5.000000
-5.000000
-5.000000
-5.000000
-5.000000
-5.000000
-5.000000
-5.000000
-5.000000
-5.000000
-5.000000
-5.000000
-5.000000
-5.000000
-5.000000
-5.000000
-5.000000
-5.000000
-5.000000
-5.000000
-5.000000
-5.000000
-5.000000
-5.000000
-5.000000
-5.000000
-5.000000
-5.000000
-5.000000
-5.000000
-5.000000
-5.000000
-5.000000
-5.000000
-5.000000
-5.000000
-5.000000
-5.000000
-5.000000
-5.000000
-5.000000
-5.000000
-5.000000
-5.000000
-5.000000
-5.000000
-5.000000
-5.000000
-5.000000
-5.000000
-5.000000
-5.000000
-5.000000
-5.000000
-5.000000
-5.000000
-5.000000
-5.000000
-5.000000
-5.000000
-5.000000
-5.000000
-5.000000
-5.000000