<?xml version='1.0' encoding='UTF-8'?>
<VTKFile xmlns='VTK' byte_order='LittleEndian' version='0.1' type='UnstructuredGrid'>
<UnstructuredGrid>
<Piece NumberOfCells='1816' NumberOfPoints='1816'>
<Points>
<DataArray NumberOfComponents='3' type='Float32' Name='Position' format='ascii'>
1.590000 0.400000 0.000000
1.590000 0.412500 0.000000
1.590000 0.425000 0.000000
1.590000 0.437500 0.000000
1.590000 0.450000 0.000000
1.590000 0.462500 0.000000
1.590000 0.475000 0.000000
1.590000 0.487500 0.000000
1.627500 0.400000 0.000000
1.627500 0.412500 0.000000
1.627500 0.425000 0.000000
1.627500 0.437500 0.000000
1.627500 0.450000 0.000000
1.627500 0.462500 0.000000
1.627500 0.475000 0.000000
1.627500 0.487500 0.000000
0.025000 0.000000 0.000000
0.025000 0.012500 0.000000
0.025000 0.025000 0.000000
0.025000 0.037500 0.000000
0.025000 0.050000 0.000000
0.025000 0.062500 0.000000
0.025000 0.075000 0.000000
0.025000 0.087500 0.000000
0.025000 0.100000 0.000000
0.025000 0.112500 0.000000
0.025000 0.125000 0.000000
0.025000 0.137500 0.000000
0.025000 0.150000 0.000000
0.025000 0.162500 0.000000
0.025000 0.175000 0.000000
0.025000 0.187500 0.000000
0.025000 0.200000 0.000000
0.025000 0.212500 0.000000
0.025000 0.225000 0.000000
0.025000 0.237500 0.000000
0.025000 0.250000 0.000000
0.025000 0.262500 0.000000
0.025000 0.275000 0.000000
0.025000 0.287500 0.000000
0.025000 0.300000 0.000000
0.025000 0.312500 0.000000
0.025000 0.325000 0.000000
0.025000 0.337500 0.000000
0.025000 0.350000 0.000000
0.025000 0.362500 0.000000
0.025000 0.375000 0.000000
0.025000 0.387500 0.000000
1.665000 0.400000 0.000000
1.665000 0.412500 0.000000
1.665000 0.425000 0.000000
1.665000 0.437500 0.000000
1.665000 0.450000 0.000000
1.665000 0.462500 0.000000
1.665000 0.475000 0.000000
1.665000 0.487500 0.000000
0.062500 0.000000 0.000000
0.062500 0.012500 0.000000
0.062500 0.025000 0.000000
0.062500 0.037500 0.000000
0.062500 0.050000 0.000000
0.062500 0.062500 0.000000
0.062500 0.075000 0.000000
0.062500 0.087500 0.000000
0.062500 0.100000 0.000000
0.062500 0.112500 0.000000
0.062500 0.125000 0.000000
0.062500 0.137500 0.000000
0.062500 0.150000 0.000000
0.062500 0.162500 0.000000
0.062500 0.175000 0.000000
0.062500 0.187500 0.000000
0.062500 0.200000 0.000000
0.062500 0.212500 0.000000
0.062500 0.225000 0.000000
0.062500 0.237500 0.000000
0.062500 0.250000 0.000000
0.062500 0.262500 0.000000
0.062500 0.275000 0.000000
0.062500 0.287500 0.000000
0.062500 0.300000 0.000000
0.062500 0.312500 0.000000
0.062500 0.325000 0.000000
0.062500 0.337500 0.000000
0.062500 0.350000 0.000000
0.062500 0.362500 0.000000
0.062500 0.375000 0.000000
0.062500 0.387500 0.000000
1.702500 0.400000 0.000000
1.702500 0.412500 0.000000
1.702500 0.425000 0.000000
1.702500 0.437500 0.000000
1.702500 0.450000 0.000000
1.702500 0.462500 0.000000
1.702500 0.475000 0.000000
1.702500 0.487500 0.000000
0.100000 0.000000 0.000000
0.100000 0.012500 0.000000
0.100000 0.025000 0.000000
0.100000 0.037500 0.000000
0.100000 0.050000 0.000000
0.100000 0.062500 0.000000
0.100000 0.075000 0.000000
0.100000 0.087500 0.000000
0.100000 0.100000 0.000000
0.100000 0.112500 0.000000
0.100000 0.125000 0.000000
0.100000 0.137500 0.000000
0.100000 0.150000 0.000000
0.100000 0.162500 0.000000
0.100000 0.175000 0.000000
0.100000 0.187500 0.000000
0.100000 0.200000 0.000000
0.100000 0.212500 0.000000
0.100000 0.225000 0.000000
0.100000 0.237500 0.000000
0.100000 0.250000 0.000000
0.100000 0.262500 0.000000
0.100000 0.275000 0.000000
0.100000 0.287500 0.000000
0.100000 0.300000 0.000000
0.100000 0.312500 0.000000
0.100000 0.325000 0.000000
0.100000 0.337500 0.000000
0.100000 0.350000 0.000000
0.100000 0.362500 0.000000
0.100000 0.375000 0.000000
0.100000 0.387500 0.000000
1.740000 0.400000 0.000000
1.740000 0.412500 0.000000
1.740000 0.425000 0.000000
1.740000 0.437500 0.000000
1.740000 0.450000 0.000000
1.740000 0.462500 0.000000
1.740000 0.475000 0.000000
1.740000 0.487500 0.000000
0.137500 0.000000 0.000000
0.137500 0.012500 0.000000
0.137500 0.025000 0.000000
0.137500 0.037500 0.000000
0.137500 0.050000 0.000000
0.137500 0.062500 0.000000
0.137500 0.075000 0.000000
0.137500 0.087500 0.000000
0.137500 0.100000 0.000000
0.137500 0.112500 0.000000
0.137500 0.125000 0.000000
0.137500 0.137500 0.000000
0.137500 0.150000 0.000000
0.137500 0.162500 0.000000
0.137500 0.175000 0.000000
0.137500 0.187500 0.000000
0.137500 0.200000 0.000000
0.137500 0.212500 0.000000
0.137500 0.225000 0.000000
0.137500 0.237500 0.000000
0.137500 0.250000 0.000000
0.137500 0.262500 0.000000
0.137500 0.275000 0.000000
0.137500 0.287500 0.000000
0.137500 0.300000 0.000000
0.137500 0.312500 0.000000
0.137500 0.325000 0.000000
0.137500 0.337500 0.000000
0.137500 0.350000 0.000000
0.137500 0.362500 0.000000
0.137500 0.375000 0.000000
0.137500 0.387500 0.000000
1.777500 0.400000 0.000000
1.777500 0.412500 0.000000
1.777500 0.425000 0.000000
1.777500 0.437500 0.000000
1.777500 0.450000 0.000000
1.777500 0.462500 0.000000
1.777500 0.475000 0.000000
1.777500 0.487500 0.000000
0.175000 0.000000 0.000000
0.175000 0.012500 0.000000
0.175000 0.025000 0.000000
0.175000 0.037500 0.000000
0.175000 0.050000 0.000000
0.175000 0.062500 0.000000
0.175000 0.075000 0.000000
0.175000 0.087500 0.000000
0.175000 0.100000 0.000000
0.175000 0.112500 0.000000
0.175000 0.125000 0.000000
0.175000 0.137500 0.000000
0.175000 0.150000 0.000000
0.175000 0.162500 0.000000
0.175000 0.175000 0.000000
0.175000 0.187500 0.000000
0.175000 0.200000 0.000000
0.175000 0.212500 0.000000
0.175000 0.225000 0.000000
0.175000 0.237500 0.000000
0.175000 0.250000 0.000000
0.175000 0.262500 0.000000
0.175000 0.275000 0.000000
0.175000 0.287500 0.000000
0.175000 0.300000 0.000000
0.175000 0.312500 0.000000
0.175000 0.325000 0.000000
0.175000 0.337500 0.000000
0.175000 0.350000 0.000000
0.175000 0.362500 0.000000
0.175000 0.375000 0.000000
0.175000 0.387500 0.000000
1.815000 0.400000 0.000000
1.815000 0.412500 0.000000
1.815000 0.425000 0.000000
1.815000 0.437500 0.000000
1.815000 0.450000 0.000000
1.815000 0.462500 0.000000
1.815000 0.475000 0.000000
1.815000 0.487500 0.000000
0.212500 0.000000 0.000000
0.212500 0.012500 0.000000
0.212500 0.025000 0.000000
0.212500 0.037500 0.000000
0.212500 0.050000 0.000000
0.212500 0.062500 0.000000
0.212500 0.075000 0.000000
0.212500 0.087500 0.000000
0.212500 0.100000 0.000000
0.212500 0.112500 0.000000
0.212500 0.125000 0.000000
0.212500 0.137500 0.000000
0.212500 0.150000 0.000000
0.212500 0.162500 0.000000
0.212500 0.175000 0.000000
0.212500 0.187500 0.000000
0.212500 0.200000 0.000000
0.212500 0.212500 0.000000
0.212500 0.225000 0.000000
0.212500 0.237500 0.000000
0.212500 0.250000 0.000000
0.212500 0.262500 0.000000
0.212500 0.275000 0.000000
0.212500 0.287500 0.000000
0.212500 0.300000 0.000000
0.212500 0.312500 0.000000
0.212500 0.325000 0.000000
0.212500 0.337500 0.000000
0.212500 0.350000 0.000000
0.212500 0.362500 0.000000
0.212500 0.375000 0.000000
0.212500 0.387500 0.000000
1.852500 0.400000 0.000000
1.852500 0.412500 0.000000
1.852500 0.425000 0.000000
1.852500 0.437500 0.000000
1.852500 0.450000 0.000000
1.852500 0.462500 0.000000
1.852500 0.475000 0.000000
1.852500 0.487500 0.000000
0.250000 0.000000 0.000000
0.250000 0.012500 0.000000
0.250000 0.025000 0.000000
0.250000 0.037500 0.000000
0.250000 0.050000 0.000000
0.250000 0.062500 0.000000
0.250000 0.075000 0.000000
0.250000 0.087500 0.000000
0.250000 0.100000 0.000000
0.250000 0.112500 0.000000
0.250000 0.125000 0.000000
0.250000 0.137500 0.000000
0.250000 0.150000 0.000000
0.250000 0.162500 0.000000
0.250000 0.175000 0.000000
0.250000 0.187500 0.000000
0.250000 0.200000 0.000000
0.250000 0.212500 0.000000
0.250000 0.225000 0.000000
0.250000 0.237500 0.000000
0.250000 0.250000 0.000000
0.250000 0.262500 0.000000
0.250000 0.275000 0.000000
0.250000 0.287500 0.000000
0.250000 0.300000 0.000000
0.250000 0.312500 0.000000
0.250000 0.325000 0.000000
0.250000 0.337500 0.000000
0.250000 0.350000 0.000000
0.250000 0.362500 0.000000
0.250000 0.375000 0.000000
0.250000 0.387500 0.000000
1.890000 0.400000 0.000000
1.890000 0.412500 0.000000
1.890000 0.425000 0.000000
1.890000 0.437500 0.000000
1.890000 0.450000 0.000000
1.890000 0.462500 0.000000
1.890000 0.475000 0.000000
1.890000 0.487500 0.000000
0.287500 0.000000 0.000000
0.287500 0.012500 0.000000
0.287500 0.025000 0.000000
0.287500 0.037500 0.000000
0.287500 0.050000 0.000000
0.287500 0.062500 0.000000
0.287500 0.075000 0.000000
0.287500 0.087500 0.000000
0.287500 0.100000 0.000000
0.287500 0.112500 0.000000
0.287500 0.125000 0.000000
0.287500 0.137500 0.000000
0.287500 0.150000 0.000000
0.287500 0.162500 0.000000
0.287500 0.175000 0.000000
0.287500 0.187500 0.000000
0.287500 0.200000 0.000000
0.287500 0.212500 0.000000
0.287500 0.225000 0.000000
0.287500 0.237500 0.000000
0.287500 0.250000 0.000000
0.287500 0.262500 0.000000
0.287500 0.275000 0.000000
0.287500 0.287500 0.000000
0.287500 0.300000 0.000000
0.287500 0.312500 0.000000
0.287500 0.325000 0.000000
0.287500 0.337500 0.000000
0.287500 0.350000 0.000000
0.287500 0.362500 0.000000
0.287500 0.375000 0.000000
0.287500 0.387500 0.000000
1.927500 0.400000 0.000000
1.927500 0.412500 0.000000
1.927500 0.425000 0.000000
1.927500 0.437500 0.000000
1.927500 0.450000 0.000000
1.927500 0.462500 0.000000
1.927500 0.475000 0.000000
1.927500 0.487500 0.000000
0.325000 0.000000 0.000000
0.325000 0.012500 0.000000
0.325000 0.025000 0.000000
0.325000 0.037500 0.000000
0.325000 0.050000 0.000000
0.325000 0.062500 0.000000
0.325000 0.075000 0.000000
0.325000 0.087500 0.000000
0.325000 0.100000 0.000000
0.325000 0.112500 0.000000
0.325000 0.125000 0.000000
0.325000 0.137500 0.000000
0.325000 0.150000 0.000000
0.325000 0.162500 0.000000
0.325000 0.175000 0.000000
0.325000 0.187500 0.000000
0.325000 0.200000 0.000000
0.325000 0.212500 0.000000
0.325000 0.225000 0.000000
0.325000 0.237500 0.000000
0.325000 0.250000 0.000000
0.325000 0.262500 0.000000
0.325000 0.275000 0.000000
[...]
<PointData>
<DataArray NumberOfComponents='1' type='Int32' Name='ParticleType' format='ascii'>
5
5
5
5
5
5
5
5
5
5
5
5
5
5
5
5
2
2
2
2
2
2
2
2
2
2
2
2
2
2
2
2
2
2
2
2
2
2
2
2
2
1
0
0
0
0
0
0
5
5
5
5
5
5
5
5
2
2
2
2
2
2
2
2
2
2
2
2
2
2
2
2
2
2
2
2
2
2
2
2
1
1
0
0
0
0
0
0
5
5
5
5
5
5
5
5
2
2
2
2
2
2
2
2
2
2
2
2
2
2
2
2
2
2
2
2
2
2
2
2
1
1
0
0
0
0
0
0
5
5
5
5
5
5
5
5
2
2
2
2
2
2
2
2
2
2
2
2
2
2
2
2
2
2
2
2
2
2
2
1
1
0
0
0
0
0
0
0
5
5
5
5
5
5
5
5
2
2
2
2
2
2
2
2
2
2
2
2
2
2
2
2
2
2
2
2
2
2
2
1
1
0
0
0
0
0
0
0
5
5
5
5
5
5
5
5
2
2
2
2
2
2
2
2
2
2
2
2
2
2
2
2
2
2
2
2
2
2
2
1
1
0
0
0
0
0
0
0
5
5
5
5
5
5
5
5
2
2
2
2
2
2
2
2
2
2
2
2
2
2
2
2
2
2
2
2
2
2
2
1
1
0
0
0
0
0
0
0
5
5
5
5
5
5
5
5
2
2
2
2
2
2
2
2
2
2
2
2
2
2
2
2
2
2
2
2
2
2
2
1
1
0
0
0
0
0
0
0
5
5
5
5
5
5
5
5
2
2
2
2
2
2
2
2
2
2
2
2
2
2
2
2
2
2
2
2
2
2
2
1
1
0
0
0
0
0
0
0
5
5
5
5
5
5
5
5
2
2
2
2
2
2
2
2
2
2
2
2
2
2
2
2
2
2
2
2
2
2
2
1
1
0
0
0
0
0
0
0
5
5
5
5
5
5
5
5
2
2
2
2
2
2
2
2
2
2
2
2
2
2
2
2
2
2
2
2
2
2
2
1
1
0
0
0
0
0
0
0
5
5
5
5
5
5
5
5
2
2
2
2
2
2
2
2
2
2
2
2
2
2
2
2
2
2
2
2
2
2
2
1
0
0
0
0
0
0
0
0
5
5
5
5
5
5
5
5
2
2
2
2
2
2
2
2
2
2
2
2
2
2
2
2
2
2
2
2
2
2
2
1
1
0
0
0
0
0
0
0
5
5
5
5
5
5
5
5
2
2
2
2
2
2
2
2
2
2
2
2
2
2
2
2
2
2
2
2
2
2
1
1
0
0
0
0
0
0
0
0
2
2
2
2
2
2
2
2
2
2
2
2
2
2
2
2
2
2
2
2
2
2
2
1
1
0
0
0
0
0
0
0
2
2
2
2
2
2
2
2
2
2
2
2
2
2
2
2
2
2
2
2
2
2
2
1
1
0
0
0
0
0
0
0
2
2
2
2
2
2
2
2
2
2
2
2
2
2
2
2
2
2
2
2
2
2
2
1
1
0
0
0
0
0
0
0
2
2
2
2
2
2
2
2
2
2
2
2
2
2
2
2
2
2
2
2
2
2
2
1
1
0
0
0
0
0
0
0
2
2
2
2
2
2
2
2
2
2
2
2
2
2
2
2
2
2
2
2
2
2
2
1
1
0
0
0
0
0
0
0
2
2
2
2
2
2
2
2
2
2
2
2
2
2
2
2
2
2
2
2
2
2
2
1
1
0
0
0
0
0
0
0
2
2
2
2
2
2
2
2
2
2
2
2
2
2
2
2
2
2
2
2
2
2
2
1
1
0
0
0
0
0
0
0
2
2
2
2
2
2
2
2
2
2
2
2
2
2
2
2
2
2
2
2
2
2
2
1
1
0
0
0
0
0
0
0
2
2
2
2
2
2
2
2
2
2
2
2
2
2
2
2
2
2
2
2
2
2
2
1
1
0
0
0
0
0
0
0
2
2
2
2
2
2
2
2
2
2
2
2
2
2
2
2
2
2
2
2
2
2
2
1
1
0
0
0
0
0
0
0
2
2
2
2
2
2
2
2
2
2
2
2
2
2
2
2
2
2
2
2
2
2
2
1
1
0
0
0
0
0
0
0
2
2
2
2
2
2
2
2
2
2
2
2
2
2
2
2
2
2
2
2
2
2
2
2
1
0
0
0
0
0
0
0
2
2
2
2
2
2
2
2
2
2
2
2
2
2
2
2
2
2
2
2
2
2
2
2
1
0
0
0
0
0
0
0
2
2
2
2
2
2
2
2
2
2
2
2
2
2
2
2
2
2
2
2
2
2
2
2
1
1
0
0
0
0
0
0
2
2
2
2
2
2
2
2
2
2
2
2
2
2
2
2
2
2
2
2
2
2
2
2
1
1
0
0
0
0
0
0
2
2
2
2
2
2
2
2
2
2
2
2
2
2
2
2
2
2
2
2
2
2
2
2
1
1
0
0
0
0
0
0
2
2
2
2
2
2
2
2
2
2
2
2
2
2
2
2
2
2
2
2
2
2
2
2
1
1
0
0
0
0
0
0
2
2
2
2
2
2
2
2
2
2
2
2
2
2
2
2
2
2
2
2
2
2
2
2
1
1
0
0
0
0
0
0
2
2
2
2
2
2
2
2
2
2
2
2
2
2
2
2
2
2
2
2
2
2
2
2
1
1
0
0
0
0
0
0
2
2
2
2
2
2
2
2
2
2
2
2
2
2
2
2
2
2
2
2
2
2
2
2
1
1
0
0
0
0
0
0
2
2
2
2
2
2
2
2
2
2
2
2
2
2
2
2
2
2
2
2
2
2
2
2
2
1
1
0
0
0
0
0
2
2
2
2
2
2
2
2
2
2
2
2
2
2
2
2
2
2
2
2
2
2
2
2
2
1
0
0
0
0
0
0
2
2
2
2
2
2
2
2
2
2
2
2
2
2
2
2
2
2
2
2
2
2
2
2
2
1
1
0
0
0
0
0
2
2
2
2
2
2
2
2
2
2
2
2
2
2
2
2
2
2
2
2
2
2
2
2
2
1
1
0
0
0
0
0
2
2
2
2
2
2
2
2
2
2
2
2
2
2
2
2
2
2
2
2
2
2
2
2
2
1
1
0
0
0
0
0
2
2
2
2
2
2
2
2
2
2
2
2
2
2
2
2
2
2
2
2
2
2
2
2
2
1
1
0
0
0
0
0
2
2
2
2
2
2
2
2
2
2
2
2
2
2
2
2
2
2
2
2
2
2
2
2
2
1
1
0
0
0
0
0
2
2
2
2
2
2
2
2
2
2
2
2
2
2
2
2
2
2
2
2
2
2
2
2
2
1
1
0
0
0
0
0
2
2
2
2
2
2
2
2
2
2
2
2
2
2
2
2
2
2
2
2
2
2
2
2
2
1
1
0
0
0
0
0
2
2
2
2
2
2
2
2
2
2
2
2
2
2
2
2
2
2
2
2
2
2
2
2
2
1
1
0
0
0
0
0
2
2
2
2
2
2
2
2
2
2
2
2
2
2
2
2
2
2
2
2
2
2
2
2
2
1
1
0
0
0
0
0
2
2
2
2
2
2
2
2
2
2
2
2
2
2
2
2
2
2
2
2
2
2
2
2
2
1
1
0
0
0
0
0
2
2
2
2
2
2
2
2
2
2
2
2
2
2
2
2
2
2
2
2
2
2
2
2
2
1
1
0
0
0
0
0
2
2
2
2
2
2
2
2
2
2
2
2
2
2
2
2
2
2
2
2
2
2
2
2
2
2
1
0
0
0
0
0
2
2
2
2
2
2
2
2
2
2
2
2
2
2
2
2
2
2
2
2
2
2
2
2
2
2
1
0
0
0
0
0
2
2
2
2
2
2
2
2
2
2
2
2
2
2
2
2
2
2
2
2
2
2
2
2
2
2
1
0
0
0
0
0
2
2
2
2
2
2
2
2
2
2
2
2
2
2
2
2
2
2
2
2
2
2
2
2
2
2
1
0
0
0
0
0
2
2
2
2
2
2
2
2
2
2
2
2
2
2
2
2
2
2
2
2
2
2
2
2
2
2
2
0
0
0
0
0
2
2
2
2
2
2
2
2
2
2
2
2
2
2
2
2
2
2
2
2
2
2
2
2
2
2
2
1
1
0
0
0
</DataArray>
<DataArray NumberOfComponents='1' type='Float32' Name='Temperature' format='ascii'>
-3.000000
-3.000000
-3.000000
-3.000000
-3.000000
-3.000000
-3.000000
-3.000000
-3.000000
-3.000000
-3.000000
-3.000000
-3.000000
-3.000000
-3.000000
-3.000000
-4.949143
-4.943134
-4.933256
-4.917683
-4.895641
-4.866026
-4.827450
-4.778249
-4.716494
-4.640007
-4.546400
-4.433123
-4.297536
-4.136996
-3.948977
-3.731202
-3.481798
-3.199467
-2.883660
-2.534744
-2.154154
-1.744558
-1.309227
-0.858028
-0.360660
-0.002889
0.225642
20.251612
38.655504
58.410790
75.510872
89.243535
-3.000000
-3.000000
-3.000000
-3.000000
-3.000000
-3.000000
-3.000000
-3.000000
-4.947354
-4.941092
-4.930795
-4.914556
-4.891562
-4.860656
-4.820383
-4.769004
-4.704498
-4.624588
-4.526761
-4.408315
-4.266403
-4.098095
-3.900457
-3.670640
-3.406005
-3.104293
-2.763850
-2.383913
-1.964987
-1.508777
-1.021985
-0.491030
-0.003022
0.005402
15.221414
35.409093
60.835333
88.504103
112.770048
132.399614
-3.000000
-3.000000
-3.000000
-3.000000
-3.000000
-3.000000
-3.000000
-3.000000
-4.946467
-4.940099
-4.929627
-4.913111
-4.889723
-4.858283
-4.817306
-4.765013
-4.699334
-4.617929
-4.518213
-4.397400
-4.252558
-4.080683
-3.878798
-3.644076
-3.374000
-3.066557
-2.720482
-2.335512
-1.912721
-1.454069
-0.968595
-0.427537
-0.006833
0.006148
20.922729
46.671877
79.542103
115.600255
147.439474
173.330805
-3.000000
-3.000000
-3.000000
-3.000000
-3.000000
-3.000000
-3.000000
-3.000000
-4.945601
-4.939090
-4.928377
-4.911464
-4.887482
-4.855192
-4.813028
-4.759105
-4.691224
-4.606892
-4.503358
-4.377666
-4.226740
-4.047489
-3.836944
-3.592423
-3.311702
-2.993177
-2.635883
-2.239143
-1.801333
-1.314647
-0.776933
-0.009206
0.000421
4.592572
30.592655
61.651040
100.992066
144.384176
183.120279
214.946526
-3.000000
-3.000000
-3.000000
-3.000000
-3.000000
-3.000000
-3.000000
-3.000000
-4.945020
-4.938417
-4.927548
-4.910386
-4.886041
-4.853248
-4.810405
-4.755584
-4.686529
-4.600669
-4.495148
-4.366848
-4.212443
-4.028446
-3.811276
-3.557344
-3.263190
-2.925713
-2.542527
-2.112539
-1.636261
-1.119611
-0.552150
-0.007751
0.004071
15.120595
39.231381
74.296232
119.731503
170.560283
216.227378
253.970988
-3.000000
-3.000000
-3.000000
-3.000000
-3.000000
-3.000000
-3.000000
-3.000000
-4.944740
-4.938108
-4.927195
-4.909965
-4.885536
-4.852642
-4.809692
-4.754763
-4.685611
-4.599681
-4.494125
-4.365836
-4.211486
-4.027571
-3.810471
-3.556530
-3.262185
-2.924203
-2.540058
-2.108550
-1.630103
-1.111232
-0.538025
-0.005635
0.001628
16.708420
43.807911
84.194861
136.800045
195.808226
248.930071
292.986208
-3.000000
-3.000000
-3.000000
-3.000000
-3.000000
-3.000000
-3.000000
-3.000000
-4.944438
-4.937750
-4.926740
-4.909354
-4.884693
-4.851473
-4.808077
-4.752556
-4.682636
-4.595731
-4.488973
-4.359249
-4.203247
-4.017516
-3.798531
-3.542779
-3.246884
-2.907811
-2.523205
-2.091938
-1.614264
-1.096986
-0.520744
-0.008230
0.001481
18.684670
49.877655
95.171239
154.010204
220.206139
280.090792
330.063454
-3.000000
-3.000000
-3.000000
-3.000000
-3.000000
-3.000000
-3.000000
-3.000000
-4.944170
-4.937426
-4.926323
-4.908784
-4.883894
-4.850352
-4.806512
-4.750397
-4.679696
-4.591789
-4.483768
-4.352486
-4.194606
-4.006671
-3.785182
-3.526701
-3.228000
-2.886271
-2.499456
-2.066749
-1.588530
-1.072469
-0.492137
-0.008189
0.003390
21.310662
56.008759
106.026007
171.075713
244.602252
311.469787
367.632946
-3.000000
-3.000000
-3.000000
-3.000000
-3.000000
-3.000000
-3.000000
-3.000000
-4.944014
-4.937239
-4.926083
-4.908456
-4.883436
-4.849705
-4.805602
-4.749121
-4.677917
-4.589320
-4.480358
-4.347803
-4.188219
-3.998043
-3.773687
-3.511679
-3.208860
-2.862648
-2.471382
-2.034811
-1.553732
-1.037475
-0.450121
-0.006557
0.009053
24.898416
61.812502
115.813520
186.570779
267.136043
340.814769
403.093027
-3.000000
-3.000000
-3.000000
-3.000000
-3.000000
-3.000000
-3.000000
-3.000000
-4.943898
-4.937099
-4.925899
-4.908200
-4.883066
-4.849165
-4.804806
-4.747947
-4.676185
-4.586773
-4.476640
-4.342431
-4.180575
-3.987383
-3.759188
-3.492537
-3.184437
-2.832662
-2.436085
-1.995128
-1.511045
-0.995191
-0.399911
-0.007111
0.006661
29.380018
68.247137
125.921968
202.214274
289.887213
370.599498
439.319371
-3.000000
-3.000000
-3.000000
-3.000000
-3.000000
-3.000000
-3.000000
-3.000000
-4.943810
-4.936986
-4.925742
-4.907964
-4.882701
-4.848594
-4.803919
-4.746580
-4.674105
-4.583660
-4.472070
-4.335870
-4.171391
-3.974878
-3.742666
-3.471403
-3.158318
-2.801532
-2.400353
-1.955680
-1.469011
-0.953270
-0.350568
-0.000296
0.008558
33.301267
74.231966
135.306937
216.743976
311.145139
398.629884
473.672773
-3.000000
-3.000000
-3.000000
-3.000000
-3.000000
-3.000000
-3.000000
-3.000000
-4.943709
-4.936870
-4.925603
-4.907790
-4.882484
-4.848329
-4.803604
-4.746221
-4.673721
-4.583282
-4.471744
-4.335656
-4.171359
-3.975099
-3.743199
-3.472275
-3.159501
-2.802913
-2.401681
-1.956355
-1.467129
-0.943017
-0.281949
-0.003832
1.996154
34.417839
77.495551
142.602387
230.012270
331.902323
426.796636
508.750690
-3.000000
-3.000000
-3.000000
-3.000000
-3.000000
-3.000000
-3.000000
-3.000000
-4.942353
-4.935292
-4.923659
-4.905270
-4.879152
-4.843919
-4.797825
-4.738760
-4.664266
-4.571546
-4.457502
-4.318785
-4.151878
-3.953205
-3.719281
-3.446896
-3.133349
-2.776706
-2.376066
-1.931969
-1.445350
-0.929689
-0.319871
0.002194
0.009801
36.250122
82.717865
151.506570
243.664901
351.663855
452.986713
541.334309
-3.000000
-3.000000
-3.000000
-3.000000
-3.000000
-3.000000
-3.000000
-3.000000
-4.940237
-4.932973
-4.921018
-4.902144
-4.875383
-4.839355
-4.792322
-4.732197
-4.656545
-4.562604
-4.447316
-4.307377
-4.139300
-3.939492
-3.704329
-3.430177
-3.113291
-2.749502
-2.333712
-1.859596
-1.320586
-0.716582
-0.008669
0.001122
9.631801
39.227099
87.522036
159.876008
256.922576
370.793429
477.997050
572.210051
-4.944519
-4.937604
-4.926209
-4.908194
-4.882602
-4.848072
-4.802885
-4.744968
-4.671892
-4.580891
-4.468884
-4.332518
-4.168239
-3.972384
-3.741320
-3.471620
-3.160289
-2.805043
-2.404595
-1.959116
-1.469252
-0.948254
-0.331474
0.001906
0.009902
36.315581
84.256575
156.772145
255.121931
371.909294
483.006216
581.936824
-4.952376
-4.946173
-4.935923
-4.919664
-4.896470
-4.865022
-4.823645
-4.770309
-4.702623
-4.617840
-4.512880
-4.384353
-4.228613
-4.041820
-3.820048
-3.559416
-3.256297
-2.907595
-2.511112
-2.066087
-1.572674
-1.041254
-0.424532
0.000852
0.005492
29.965595
76.426067
148.631253
248.672683
369.237234
485.260881
590.040960
-4.956304
-4.950357
-4.940508
-4.924843
-4.902420
-4.871900
-4.831581
-4.779389
-4.712876
-4.629219
-4.525239
-4.397429
-4.242005
-4.054984
-3.832301
-3.569980
-3.264361
-2.912423
-2.512155
-2.063098
-1.565678
-1.031321
-0.407515
-0.002007
0.008745
31.977599
78.283288
150.280352
250.622574
373.025469
492.288773
601.833956
-4.962843
-4.957543
-4.948737
-4.934680
-4.914460
-4.886784
-4.849991
-4.802043
-4.740508
-4.662552
-4.564936
-4.444037
-4.295873
-4.116171
-3.900464
-3.644261
-3.343292
-2.993869
-2.593357
-2.140815
-1.636649
-1.091325
-0.462542
-0.004696
0.009351
28.456907
71.658683
142.375766
243.864382
370.081728
494.721249
611.082555
-4.966204
-4.961153
-4.952738
-4.939263
-4.919808
-4.893068
-4.857368
-4.810651
-4.750464
-4.673955
-4.577877
-4.458612
-4.312211
-4.134444
-3.920895
-3.667083
-3.368660
-3.021706
-2.623158
-2.171457
-1.666382
-1.117162
-0.485790
0.000206
0.006749
27.025484
71.717445
142.968296
245.110024
373.379905
501.680360
623.781136
-4.971695
-4.967256
-4.959835
-4.947904
-4.930585
-4.906634
-4.874438
-4.832004
-4.776927
-4.706380
-4.617104
-4.505414
-4.367219
-4.198053
-3.993136
-3.747467
-3.455992
-3.113905
-2.717127
-2.263099
-1.751047
-1.188879
-0.549017
-0.005371
0.007691
23.477268
64.587973
134.381959
237.635404
369.961338
504.205276
634.340366
-4.974544
-4.970345
-4.963303
-4.951937
-4.935364
-4.912326
-4.881196
-4.839952
-4.786157
-4.716949
-4.629036
-4.518719
-4.381930
-4.214281
-4.011129
-3.767654
-3.478953
-3.140210
-2.747010
-2.295987
-1.785245
-1.220521
-0.579557
-0.000289
0.004591
21.502772
64.802774
134.988583
238.564447
372.833087
511.078227
648.139688
-4.979040
-4.975409
-4.969294
-4.959380
-4.944836
-4.924480
-4.896769
-4.859768
-4.811119
-4.748016
-4.667195
-4.564931
-4.437063
-4.279021
-4.085869
-3.852340
-3.572883
-3.241736
-2.853175
-2.402152
-1.885148
-1.305458
-0.650740
-0.005930
0.006008
18.057018
57.128399
125.680511
230.304433
368.843536
513.631109
660.237449
-4.981409
-4.978008
-4.972257
-4.962890
-4.949072
-4.929613
-4.902951
-4.867125
-4.819735
-4.757919
-4.678349
-4.577237
-4.450383
-4.293240
-4.101007
-3.868723
-3.591326
-3.263636
-2.880293
-2.435812
-1.924990
-1.346680
-0.693731
-0.000660
0.002464
15.310586
57.655317
126.367697
230.863443
371.159174
520.304481
675.351872
-4.984985
-4.982096
-4.977189
-4.969154
-4.957223
-4.940292
-4.916906
-4.885211
-4.842920
-4.787269
-4.714996
-4.622336
-4.505036
-4.358407
-4.177397
-3.956679
-3.690706
-3.373653
-2.999179
-2.560056
-2.048124
-1.456341
-0.782923
-0.006319
0.004444
12.118346
49.349676
116.289429
221.745147
366.480595
522.782869
689.267590
-4.986907
-4.984235
-4.979675
-4.972164
-4.960936
-4.944882
-4.922535
-4.892016
-4.850995
-4.796643
-4.725614
-4.634035
-4.517539
-4.371334
-4.190324
-3.969289
-3.703100
-3.386924
-3.016241
-2.586324
-2.090812
-1.517207
-0.861996
-0.000879
0.000589
8.257657
50.432136
117.144714
221.869095
368.079370
529.096366
705.968860
-4.989654
-4.987430
-4.983616
-4.977297
-4.967778
-4.954053
-4.934775
-4.908199
-4.872139
-4.823904
-4.760269
-4.677443
-4.571074
-4.436284
-4.267750
-4.059840
-3.806816
-3.503103
-3.143549
-2.723434
-2.237648
-1.675074
-1.031234
-0.071628
0.003165
5.543132
41.360405
106.253028
211.825549
362.570227
531.343740
722.048861
-4.991172
-4.989151
-4.985662
-4.979841
-4.970999
-4.958134
-4.939893
-4.914515
-4.879773
-4.832916
-4.770623
-4.688977
-4.583470
-4.449046
-4.280200
-4.071148
-3.816076
-3.509490
-3.146670
-2.724193
-2.240645
-1.695613
-1.103986
-0.388485
-0.001023
0.059907
43.394467
107.391448
211.435325
363.255398
537.071186
740.683455
-4.993247
-4.991619
-4.988793
-4.984046
-4.976776
-4.966098
-4.950806
-4.929307
-4.899559
-4.858998
-4.804476
-4.732209
-4.637748
-4.515975
-4.361146
-4.166989
-3.926886
-3.634174
-3.282603
-2.866983
-2.384122
-1.832625
-1.224115
-0.503751
0.000272
0.005587
35.727726
96.581036
200.781232
356.816623
538.847996
759.353404
-4.994669
-4.993302
-4.990911
-4.986864
-4.980604
-4.971312
-4.957855
-4.938724
-4.911961
-4.875081
-4.825003
-4.757989
-4.669603
-4.554704
-4.407465
-4.221452
-3.989758
-3.705245
-3.360938
-2.950643
-2.469942
-1.916451
-1.299442
-0.576266
-0.007381
0.007066
31.282607
90.577032
194.174410
353.016900
542.291687
780.804292
-4.995591
-4.994376
-4.992232
-4.988568
-4.982836
-4.974221
-4.961586
-4.943406
-4.917679
-4.881849
-4.832733
-4.766455
-4.678422
-4.563322
-4.415182
-4.227474
-3.993299
-3.705663
-3.357900
-2.944261
-2.460840
-1.905628
-1.288372
-0.563767
-0.005546
0.005953
32.256946
91.517304
192.692638
351.941229
546.575649
803.310497
-4.996746
-4.995798
-4.994113
-4.991211
-4.986624
-4.979654
-4.969314
-4.954258
-4.932695
-4.902301
-4.860130
-4.802539
-4.725135
-4.622767
-4.489559
-4.319014
-4.104157
-3.837699
-3.512189
-3.120125
-2.654208
-2.107769
-1.479649
-0.756155
-0.007914
0.002360
19.541076
78.355746
180.099888
343.491920
546.922796
826.994704
-4.997434
-4.996628
-4.995180
-4.992656
-4.988610
-4.982368
-4.972964
-4.959060
-4.938853
-4.909975
-4.869392
-4.813319
-4.737162
-4.635504
-4.502145
-4.330191
-4.112206
-3.840397
-3.506870
-3.104011
-2.625252
-2.065785
-1.429531
-0.693357
0.000406
0.003127
24.245235
80.406392
178.092912
340.822111
549.504768
852.772315
-4.998176
-4.997568
-4.996468
-4.994531
-4.991391
-4.986488
-4.979006
-4.967801
-4.951305
-4.927420
-4.893408
-4.845784
-4.780228
-4.691528
-4.573594
-4.419546
-4.221909
-3.972920
-3.664915
-3.290666
-2.843286
-2.315219
-1.693032
-0.973747
-0.008251
-0.000135
9.274154
66.540401
164.578628
330.808808
548.180430
880.736093
-4.998627
-4.998132
-4.997223
-4.995601
-4.992926
-4.988670
-4.982055
-4.971961
-4.956830
-4.934539
-4.902278
-4.856420
-4.792430
-4.704807
-4.587108
-4.432068
-4.231801
-3.978066
-3.662483
-3.276568
-2.811549
-2.258253
-1.609332
-0.859298
0.000022
0.000330
15.520150
69.100884
161.770972
326.240444
548.348934
910.682761
-4.999066
-4.998707
-4.998042
-4.996841
-4.994836
-4.991601
-4.986500
-4.978606
-4.966604
-4.948676
-4.922364
-4.884436
-4.830750
-4.756150
-4.654410
-4.518260
-4.339529
-4.109435
-3.819051
-3.459971
-3.025142
-2.510008
-1.911618
-1.246894
-0.417199
-0.001852
0.009414
54.804730
147.483633
314.376224
544.447380
943.959189
-4.999336
-4.999059
-4.998537
-4.997580
-4.995947
-4.993256
-4.988917
-4.982051
-4.971382
-4.955100
-4.930708
-4.894854
-4.843171
-4.770159
-4.669127
-4.532274
-4.350917
-4.115922
-3.818328
-3.450089
-3.004670
-2.476974
-1.857808
-1.149118
-0.083051
-0.001995
5.906625
58.038254
143.835757
307.560677
541.116559
979.202607
-4.999572
-4.999381
-4.999016
-4.998338
-4.997164
-4.995197
-4.991972
-4.986787
-4.978600
-4.965913
-4.946618
-4.917833
-4.875725
-4.815348
-4.730512
-4.613733
-4.456279
-4.248371
-3.979572
-3.639426
-3.218381
-2.709163
-2.106984
-1.423057
-0.592155
-0.003073
0.005840
42.642228
128.785419
293.532995
533.324255
1019.144447
-4.999717
-4.999579
-4.999311
-4.998803
-4.997902
-4.996354
-4.993751
-4.989455
-4.982495
-4.971428
-4.954168
-4.927776
-4.888244
-4.830270
-4.747101
-4.630480
-4.470768
-4.257332
-3.979235
-3.626227
-3.189979
-2.665562
-2.051047
-1.362768
-0.523027
-0.003476
0.008739
47.712270
124.505356
284.118188
524.936739
1061.176039
-4.999829
-4.999740
-4.999564
-4.999224
-4.998609
-4.997532
-4.995684
-4.992576
-4.987444
-4.979138
-4.965955
-4.945461
-4.914264
-4.867796
-4.800103
-4.703702
-4.569545
-4.387119
-4.144724
-3.829927
-3.430256
-2.934349
-2.333129
-1.628759
-0.790942
-0.004014
0.001766
29.720298
108.808271
267.699236
511.358649
1109.570784
-4.999897
-4.999838
-4.999719
-4.999483
-4.999046
-4.998257
-4.996865
-4.994451
-4.990348
-4.983503
-4.972315
-4.954397
-4.926309
-4.883246
-4.818727
-4.724359
-4.589757
-4.402752
-4.150001
-3.818107
-3.395228
-2.873156
-2.248209
-1.532898
-0.678932
-0.004598
0.005513
37.758764
103.996054
255.324091
495.675672
1160.378676
-4.999943
-4.999908
-4.999836
-4.999689
-4.999411
-4.998897
-4.997966
-4.996315
-4.993442
-4.988545
-4.980366
-4.967001
-4.945644
-4.912297
-4.861464
-4.785885
-4.676369
-4.521832
-4.309589
-4.025897
-3.656561
-3.187231
-2.603193
-1.889190
-1.037932
0.005804
-0.001954
16.392313
88.403577
236.475594
473.557151
1219.607836
-4.999969
-4.999948
-4.999904
-4.999813
-4.999633
-4.999290
-4.998648
-4.997469
-4.995348
-4.991606
-4.985140
-4.974202
-4.956107
-4.926850
-4.880670
-4.809574
-4.702955
-4.547421
-4.327076
-4.024496
-3.622619
-3.107664
-2.471992
-1.723566
-0.842877
-0.006829
0.002509
28.471683
83.080508
220.878069
447.380283
1283.217604
-4.999985
-4.999974
-4.999949
-4.999896
-4.999790
-4.999580
-4.999175
-4.998405
-4.996975
-4.994368
-4.989718
-4.981600
-4.967748
-4.944658
-4.907099
-4.847546
-4.755609
-4.617622
-4.416620
-4.133040
-3.746532
-3.239208
-2.599714
-1.832462
-0.931356
-0.009124
0.004310
24.175037
72.688028
200.948931
417.067683
1366.972285
-4.999993
-4.999987
-4.999974
-4.999946
-4.999887
-4.999766
-4.999523
-4.999047
-4.998130
-4.996400
-4.993207
-4.987443
-4.977274
-4.959759
-4.930337
-4.882181
-4.805481
-4.686758
-4.508446
-4.249113
-3.884816
-3.392232
-2.753674
-1.966520
-1.035838
-0.007769
0.000654
20.212180
62.912909
180.901255
385.227460
1325.114898
-4.999997
-4.999994
-4.999988
-4.999974
-4.999944
-4.999880
-4.999746
-4.999471
-4.998923
-4.997848
-4.995786
-4.991921
-4.984843
-4.972194
-4.950163
-4.912799
-4.851171
-4.752448
-4.599074
-4.368379
-4.033164
-3.564041
-2.934538
-2.130332
-1.162588
-0.009628
0.001937
16.494019
53.419178
160.563410
351.653043
1278.126999
-4.999999
-4.999998
-4.999995
-4.999989
-4.999974
-4.999943
-4.999874
-4.999726
-4.999419
-4.998791
-4.997535
-4.995083
-4.990404
-4.981700
-4.965923
-4.938098
-4.890410
-4.811098
-4.683293
-4.484061
-4.184116
-3.748850
-3.141955
-2.331434
-1.323476
-0.008159
-0.001895
13.209292
44.729946
141.056863
318.108325
1227.864507
-5.000000
-4.999999
-4.999998
-4.999996
-4.999990
-4.999976
-4.999944
-4.999873
-4.999717
-4.999383
-4.998683