<?xml version='1.0' encoding='UTF-8'?>
<VTKFile xmlns='VTK' byte_order='LittleEndian' version='0.1' type='UnstructuredGrid'>
<UnstructuredGrid>
<Piece NumberOfCells='1816' NumberOfPoints='1816'>
<Points>
<DataArray NumberOfComponents='3' type='Float32' Name='Position' format='ascii'>
1.570000 0.400000 0.000000
1.570000 0.412500 0.000000
1.570000 0.425000 0.000000
1.570000 0.437500 0.000000
1.570000 0.450000 0.000000
1.570000 0.462500 0.000000
1.570000 0.475000 0.000000
1.570000 0.487500 0.000000
1.607500 0.400000 0.000000
1.607500 0.412500 0.000000
1.607500 0.425000 0.000000
1.607500 0.437500 0.000000
1.607500 0.450000 0.000000
1.607500 0.462500 0.000000
1.607500 0.475000 0.000000
1.607500 0.487500 0.000000
0.025000 0.000000 0.000000
0.025000 0.012500 0.000000
0.025000 0.025000 0.000000
0.025000 0.037500 0.000000
0.025000 0.050000 0.000000
0.025000 0.062500 0.000000
0.025000 0.075000 0.000000
0.025000 0.087500 0.000000
0.025000 0.100000 0.000000
0.025000 0.112500 0.000000
0.025000 0.125000 0.000000
0.025000 0.137500 0.000000
0.025000 0.150000 0.000000
0.025000 0.162500 0.000000
0.025000 0.175000 0.000000
0.025000 0.187500 0.000000
0.025000 0.200000 0.000000
0.025000 0.212500 0.000000
0.025000 0.225000 0.000000
0.025000 0.237500 0.000000
0.025000 0.250000 0.000000
0.025000 0.262500 0.000000
0.025000 0.275000 0.000000
0.025000 0.287500 0.000000
0.025000 0.300000 0.000000
0.025000 0.312500 0.000000
0.025000 0.325000 0.000000
0.025000 0.337500 0.000000
0.025000 0.350000 0.000000
0.025000 0.362500 0.000000
0.025000 0.375000 0.000000
0.025000 0.387500 0.000000
1.645000 0.400000 0.000000
1.645000 0.412500 0.000000
1.645000 0.425000 0.000000
1.645000 0.437500 0.000000
1.645000 0.450000 0.000000
1.645000 0.462500 0.000000
1.645000 0.475000 0.000000
1.645000 0.487500 0.000000
0.062500 0.000000 0.000000
0.062500 0.012500 0.000000
0.062500 0.025000 0.000000
0.062500 0.037500 0.000000
0.062500 0.050000 0.000000
0.062500 0.062500 0.000000
0.062500 0.075000 0.000000
0.062500 0.087500 0.000000
0.062500 0.100000 0.000000
0.062500 0.112500 0.000000
0.062500 0.125000 0.000000
0.062500 0.137500 0.000000
0.062500 0.150000 0.000000
0.062500 0.162500 0.000000
0.062500 0.175000 0.000000
0.062500 0.187500 0.000000
0.062500 0.200000 0.000000
0.062500 0.212500 0.000000
0.062500 0.225000 0.000000
0.062500 0.237500 0.000000
0.062500 0.250000 0.000000
0.062500 0.262500 0.000000
0.062500 0.275000 0.000000
0.062500 0.287500 0.000000
0.062500 0.300000 0.000000
0.062500 0.312500 0.000000
0.062500 0.325000 0.000000
0.062500 0.337500 0.000000
0.062500 0.350000 0.000000
0.062500 0.362500 0.000000
0.062500 0.375000 0.000000
0.062500 0.387500 0.000000
1.682500 0.400000 0.000000
1.682500 0.412500 0.000000
1.682500 0.425000 0.000000
1.682500 0.437500 0.000000
1.682500 0.450000 0.000000
1.682500 0.462500 0.000000
1.682500 0.475000 0.000000
1.682500 0.487500 0.000000
0.100000 0.000000 0.000000
0.100000 0.012500 0.000000
0.100000 0.025000 0.000000
0.100000 0.037500 0.000000
0.100000 0.050000 0.000000
0.100000 0.062500 0.000000
0.100000 0.075000 0.000000
0.100000 0.087500 0.000000
0.100000 0.100000 0.000000
0.100000 0.112500 0.000000
0.100000 0.125000 0.000000
0.100000 0.137500 0.000000
0.100000 0.150000 0.000000
0.100000 0.162500 0.000000
0.100000 0.175000 0.000000
0.100000 0.187500 0.000000
0.100000 0.200000 0.000000
0.100000 0.212500 0.000000
0.100000 0.225000 0.000000
0.100000 0.237500 0.000000
0.100000 0.250000 0.000000
0.100000 0.262500 0.000000
0.100000 0.275000 0.000000
0.100000 0.287500 0.000000
0.100000 0.300000 0.000000
0.100000 0.312500 0.000000
0.100000 0.325000 0.000000
0.100000 0.337500 0.000000
0.100000 0.350000 0.000000
0.100000 0.362500 0.000000
0.100000 0.375000 0.000000
0.100000 0.387500 0.000000
1.720000 0.400000 0.000000
1.720000 0.412500 0.000000
1.720000 0.425000 0.000000
1.720000 0.437500 0.000000
1.720000 0.450000 0.000000
1.720000 0.462500 0.000000
1.720000 0.475000 0.000000
1.720000 0.487500 0.000000
0.137500 0.000000 0.000000
0.137500 0.012500 0.000000
0.137500 0.025000 0.000000
0.137500 0.037500 0.000000
0.137500 0.050000 0.000000
0.137500 0.062500 0.000000
0.137500 0.075000 0.000000
0.137500 0.087500 0.000000
0.137500 0.100000 0.000000
0.137500 0.112500 0.000000
0.137500 0.125000 0.000000
0.137500 0.137500 0.000000
0.137500 0.150000 0.000000
0.137500 0.162500 0.000000
0.137500 0.175000 0.000000
0.137500 0.187500 0.000000
0.137500 0.200000 0.000000
0.137500 0.212500 0.000000
0.137500 0.225000 0.000000
0.137500 0.237500 0.000000
0.137500 0.250000 0.000000
0.137500 0.262500 0.000000
0.137500 0.275000 0.000000
0.137500 0.287500 0.000000
0.137500 0.300000 0.000000
0.137500 0.312500 0.000000
0.137500 0.325000 0.000000
0.137500 0.337500 0.000000
0.137500 0.350000 0.000000
0.137500 0.362500 0.000000
0.137500 0.375000 0.000000
0.137500 0.387500 0.000000
1.757500 0.400000 0.000000
1.757500 0.412500 0.000000
1.757500 0.425000 0.000000
1.757500 0.437500 0.000000
1.757500 0.450000 0.000000
1.757500 0.462500 0.000000
1.757500 0.475000 0.000000
1.757500 0.487500 0.000000
0.175000 0.000000 0.000000
0.175000 0.012500 0.000000
0.175000 0.025000 0.000000
0.175000 0.037500 0.000000
0.175000 0.050000 0.000000
0.175000 0.062500 0.000000
0.175000 0.075000 0.000000
0.175000 0.087500 0.000000
0.175000 0.100000 0.000000
0.175000 0.112500 0.000000
0.175000 0.125000 0.000000
0.175000 0.137500 0.000000
0.175000 0.150000 0.000000
0.175000 0.162500 0.000000
0.175000 0.175000 0.000000
0.175000 0.187500 0.000000
0.175000 0.200000 0.000000
0.175000 0.212500 0.000000
0.175000 0.225000 0.000000
0.175000 0.237500 0.000000
0.175000 0.250000 0.000000
0.175000 0.262500 0.000000
0.175000 0.275000 0.000000
0.175000 0.287500 0.000000
0.175000 0.300000 0.000000
0.175000 0.312500 0.000000
0.175000 0.325000 0.000000
0.175000 0.337500 0.000000
0.175000 0.350000 0.000000
0.175000 0.362500 0.000000
0.175000 0.375000 0.000000
0.175000 0.387500 0.000000
1.795000 0.400000 0.000000
1.795000 0.412500 0.000000
1.795000 0.425000 0.000000
1.795000 0.437500 0.000000
1.795000 0.450000 0.000000
1.795000 0.462500 0.000000
1.795000 0.475000 0.000000
1.795000 0.487500 0.000000
0.212500 0.000000 0.000000
0.212500 0.012500 0.000000
0.212500 0.025000 0.000000
0.212500 0.037500 0.000000
0.212500 0.050000 0.000000
0.212500 0.062500 0.000000
0.212500 0.075000 0.000000
0.212500 0.087500 0.000000
0.212500 0.100000 0.000000
0.212500 0.112500 0.000000
0.212500 0.125000 0.000000
0.212500 0.137500 0.000000
0.212500 0.150000 0.000000
0.212500 0.162500 0.000000
0.212500 0.175000 0.000000
0.212500 0.187500 0.000000
0.212500 0.200000 0.000000
0.212500 0.212500 0.000000
0.212500 0.225000 0.000000
0.212500 0.237500 0.000000
0.212500 0.250000 0.000000
0.212500 0.262500 0.000000
0.212500 0.275000 0.000000
0.212500 0.287500 0.000000
0.212500 0.300000 0.000000
0.212500 0.312500 0.000000
0.212500 0.325000 0.000000
0.212500 0.337500 0.000000
0.212500 0.350000 0.000000
0.212500 0.362500 0.000000
0.212500 0.375000 0.000000
0.212500 0.387500 0.000000
1.832500 0.400000 0.000000
1.832500 0.412500 0.000000
1.832500 0.425000 0.000000
1.832500 0.437500 0.000000
1.832500 0.450000 0.000000
1.832500 0.462500 0.000000
1.832500 0.475000 0.000000
1.832500 0.487500 0.000000
0.250000 0.000000 0.000000
0.250000 0.012500 0.000000
0.250000 0.025000 0.000000
0.250000 0.037500 0.000000
0.250000 0.050000 0.000000
0.250000 0.062500 0.000000
0.250000 0.075000 0.000000
0.250000 0.087500 0.000000
0.250000 0.100000 0.000000
0.250000 0.112500 0.000000
0.250000 0.125000 0.000000
0.250000 0.137500 0.000000
0.250000 0.150000 0.000000
0.250000 0.162500 0.000000
0.250000 0.175000 0.000000
0.250000 0.187500 0.000000
0.250000 0.200000 0.000000
0.250000 0.212500 0.000000
0.250000 0.225000 0.000000
0.250000 0.237500 0.000000
0.250000 0.250000 0.000000
0.250000 0.262500 0.000000
0.250000 0.275000 0.000000
0.250000 0.287500 0.000000
0.250000 0.300000 0.000000
0.250000 0.312500 0.000000
0.250000 0.325000 0.000000
0.250000 0.337500 0.000000
0.250000 0.350000 0.000000
0.250000 0.362500 0.000000
0.250000 0.375000 0.000000
0.250000 0.387500 0.000000
1.870000 0.400000 0.000000
1.870000 0.412500 0.000000
1.870000 0.425000 0.000000
1.870000 0.437500 0.000000
1.870000 0.450000 0.000000
1.870000 0.462500 0.000000
1.870000 0.475000 0.000000
1.870000 0.487500 0.000000
0.287500 0.000000 0.000000
0.287500 0.012500 0.000000
0.287500 0.025000 0.000000
0.287500 0.037500 0.000000
0.287500 0.050000 0.000000
0.287500 0.062500 0.000000
0.287500 0.075000 0.000000
0.287500 0.087500 0.000000
0.287500 0.100000 0.000000
0.287500 0.112500 0.000000
0.287500 0.125000 0.000000
0.287500 0.137500 0.000000
0.287500 0.150000 0.000000
0.287500 0.162500 0.000000
0.287500 0.175000 0.000000
0.287500 0.187500 0.000000
0.287500 0.200000 0.000000
0.287500 0.212500 0.000000
0.287500 0.225000 0.000000
0.287500 0.237500 0.000000
0.287500 0.250000 0.000000
0.287500 0.262500 0.000000
0.287500 0.275000 0.000000
0.287500 0.287500 0.000000
0.287500 0.300000 0.000000
0.287500 0.312500 0.000000
0.287500 0.325000 0.000000
0.287500 0.337500 0.000000
0.287500 0.350000 0.000000
0.287500 0.362500 0.000000
0.287500 0.375000 0.000000
0.287500 0.387500 0.000000
1.907500 0.400000 0.000000
1.907500 0.412500 0.000000
1.907500 0.425000 0.000000
1.907500 0.437500 0.000000
1.907500 0.450000 0.000000
1.907500 0.462500 0.000000
1.907500 0.475000 0.000000
1.907500 0.487500 0.000000
0.325000 0.000000 0.000000
0.325000 0.012500 0.000000
0.325000 0.025000 0.000000
0.325000 0.037500 0.000000
0.325000 0.050000 0.000000
0.325000 0.062500 0.000000
0.325000 0.075000 0.000000
0.325000 0.087500 0.000000
0.325000 0.100000 0.000000
0.325000 0.112500 0.000000
0.325000 0.125000 0.000000
0.325000 0.137500 0.000000
0.325000 0.150000 0.000000
0.325000 0.162500 0.000000
0.325000 0.175000 0.000000
0.325000 0.187500 0.000000
0.325000 0.200000 0.000000
0.325000 0.212500 0.000000
0.325000 0.225000 0.000000
0.325000 0.237500 0.000000
0.325000 0.250000 0.000000
0.325000 0.262500 0.000000
0.325000 0.275000 0.000000
[...]
<PointData>
<DataArray NumberOfComponents='1' type='Int32' Name='ParticleType' format='ascii'>
5
5
5
5
5
5
5
5
5
5
5
5
5
5
5
5
2
2
2
2
2
2
2
2
2
2
2
2
2
2
2
2
2
2
2
2
2
2
2
2
2
1
1
0
0
0
0
0
5
5
5
5
5
5
5
5
2
2
2
2
2
2
2
2
2
2
2
2
2
2
2
2
2
2
2
2
2
2
2
2
1
1
0
0
0
0
0
0
5
5
5
5
5
5
5
5
2
2
2
2
2
2
2
2
2
2
2
2
2
2
2
2
2
2
2
2
2
2
2
2
1
1
0
0
0
0
0
0
5
5
5
5
5
5
5
5
2
2
2
2
2
2
2
2
2
2
2
2
2
2
2
2
2
2
2
2
2
2
2
2
1
0
0
0
0
0
0
0
5
5
5
5
5
5
5
5
2
2
2
2
2
2
2
2
2
2
2
2
2
2
2
2
2
2
2
2
2
2
2
1
1
0
0
0
0
0
0
0
5
5
5
5
5
5
5
5
2
2
2
2
2
2
2
2
2
2
2
2
2
2
2
2
2
2
2
2
2
2
2
1
1
0
0
0
0
0
0
0
5
5
5
5
5
5
5
5
2
2
2
2
2
2
2
2
2
2
2
2
2
2
2
2
2
2
2
2
2
2
2
1
1
0
0
0
0
0
0
0
5
5
5
5
5
5
5
5
2
2
2
2
2
2
2
2
2
2
2
2
2
2
2
2
2
2
2
2
2
2
2
1
1
0
0
0
0
0
0
0
5
5
5
5
5
5
5
5
2
2
2
2
2
2
2
2
2
2
2
2
2
2
2
2
2
2
2
2
2
2
2
1
1
0
0
0
0
0
0
0
5
5
5
5
5
5
5
5
2
2
2
2
2
2
2
2
2
2
2
2
2
2
2
2
2
2
2
2
2
2
2
1
1
0
0
0
0
0
0
0
5
5
5
5
5
5
5
5
2
2
2
2
2
2
2
2
2
2
2
2
2
2
2
2
2
2
2
2
2
2
2
1
1
0
0
0
0
0
0
0
5
5
5
5
5
5
5
5
2
2
2
2
2
2
2
2
2
2
2
2
2
2
2
2
2
2
2
2
2
2
2
1
0
0
0
0
0
0
0
0
5
5
5
5
5
5
5
5
2
2
2
2
2
2
2
2
2
2
2
2
2
2
2
2
2
2
2
2
2
2
2
1
1
0
0
0
0
0
0
0
5
5
5
5
5
5
5
5
2
2
2
2
2
2
2
2
2
2
2
2
2
2
2
2
2
2
2
2
2
2
1
1
0
0
0
0
0
0
0
0
2
2
2
2
2
2
2
2
2
2
2
2
2
2
2
2
2
2
2
2
2
2
2
1
1
0
0
0
0
0
0
0
2
2
2
2
2
2
2
2
2
2
2
2
2
2
2
2
2
2
2
2
2
2
2
1
1
0
0
0
0
0
0
0
2
2
2
2
2
2
2
2
2
2
2
2
2
2
2
2
2
2
2
2
2
2
2
1
1
0
0
0
0
0
0
0
2
2
2
2
2
2
2
2
2
2
2
2
2
2
2
2
2
2
2
2
2
2
2
1
1
0
0
0
0
0
0
0
2
2
2
2
2
2
2
2
2
2
2
2
2
2
2
2
2
2
2
2
2
2
2
1
1
0
0
0
0
0
0
0
2
2
2
2
2
2
2
2
2
2
2
2
2
2
2
2
2
2
2
2
2
2
2
1
1
0
0
0
0
0
0
0
2
2
2
2
2
2
2
2
2
2
2
2
2
2
2
2
2
2
2
2
2
2
2
1
1
0
0
0
0
0
0
0
2
2
2
2
2
2
2
2
2
2
2
2
2
2
2
2
2
2
2
2
2
2
2
1
1
0
0
0
0
0
0
0
2
2
2
2
2
2
2
2
2
2
2
2
2
2
2
2
2
2
2
2
2
2
2
1
1
0
0
0
0
0
0
0
2
2
2
2
2
2
2
2
2
2
2
2
2
2
2
2
2
2
2
2
2
2
2
1
1
0
0
0
0
0
0
0
2
2
2
2
2
2
2
2
2
2
2
2
2
2
2
2
2
2
2
2
2
2
2
1
1
0
0
0
0
0
0
0
2
2
2
2
2
2
2
2
2
2
2
2
2
2
2
2
2
2
2
2
2
2
2
2
1
0
0
0
0
0
0
0
2
2
2
2
2
2
2
2
2
2
2
2
2
2
2
2
2
2
2
2
2
2
2
2
1
1
0
0
0
0
0
0
2
2
2
2
2
2
2
2
2
2
2
2
2
2
2
2
2
2
2
2
2
2
2
2
1
1
0
0
0
0
0
0
2
2
2
2
2
2
2
2
2
2
2
2
2
2
2
2
2
2
2
2
2
2
2
2
1
1
0
0
0
0
0
0
2
2
2
2
2
2
2
2
2
2
2
2
2
2
2
2
2
2
2
2
2
2
2
2
1
1
0
0
0
0
0
0
2
2
2
2
2
2
2
2
2
2
2
2
2
2
2
2
2
2
2
2
2
2
2
2
1
1
0
0
0
0
0
0
2
2
2
2
2
2
2
2
2
2
2
2
2
2
2
2
2
2
2
2
2
2
2
2
1
1
0
0
0
0
0
0
2
2
2
2
2
2
2
2
2
2
2
2
2
2
2
2
2
2
2
2
2
2
2
2
1
1
0
0
0
0
0
0
2
2
2
2
2
2
2
2
2
2
2
2
2
2
2
2
2
2
2
2
2
2
2
2
1
1
0
0
0
0
0
0
2
2
2
2
2
2
2
2
2
2
2
2
2
2
2
2
2
2
2
2
2
2
2
2
2
1
1
0
0
0
0
0
2
2
2
2
2
2
2
2
2
2
2
2
2
2
2
2
2
2
2
2
2
2
2
2
2
1
0
0
0
0
0
0
2
2
2
2
2
2
2
2
2
2
2
2
2
2
2
2
2
2
2
2
2
2
2
2
2
1
1
0
0
0
0
0
2
2
2
2
2
2
2
2
2
2
2
2
2
2
2
2
2
2
2
2
2
2
2
2
2
1
1
0
0
0
0
0
2
2
2
2
2
2
2
2
2
2
2
2
2
2
2
2
2
2
2
2
2
2
2
2
2
1
1
0
0
0
0
0
2
2
2
2
2
2
2
2
2
2
2
2
2
2
2
2
2
2
2
2
2
2
2
2
2
1
1
0
0
0
0
0
2
2
2
2
2
2
2
2
2
2
2
2
2
2
2
2
2
2
2
2
2
2
2
2
2
1
1
0
0
0
0
0
2
2
2
2
2
2
2
2
2
2
2
2
2
2
2
2
2
2
2
2
2
2
2
2
2
1
1
0
0
0
0
0
2
2
2
2
2
2
2
2
2
2
2
2
2
2
2
2
2
2
2
2
2
2
2
2
2
1
1
0
0
0
0
0
2
2
2
2
2
2
2
2
2
2
2
2
2
2
2
2
2
2
2
2
2
2
2
2
2
1
1
0
0
0
0
0
2
2
2
2
2
2
2
2
2
2
2
2
2
2
2
2
2
2
2
2
2
2
2
2
2
1
1
0
0
0
0
0
2
2
2
2
2
2
2
2
2
2
2
2
2
2
2
2
2
2
2
2
2
2
2
2
2
1
1
0
0
0
0
0
2
2
2
2
2
2
2
2
2
2
2
2
2
2
2
2
2
2
2
2
2
2
2
2
2
2
1
0
0
0
0
0
2
2
2
2
2
2
2
2
2
2
2
2
2
2
2
2
2
2
2
2
2
2
2
2
2
2
1
0
0
0
0
0
2
2
2
2
2
2
2
2
2
2
2
2
2
2
2
2
2
2
2
2
2
2
2
2
2
2
1
0
0
0
0
0
2
2
2
2
2
2
2
2
2
2
2
2
2
2
2
2
2
2
2
2
2
2
2
2
2
2
1
0
0
0
0
0
2
2
2
2
2
2
2
2
2
2
2
2
2
2
2
2
2
2
2
2
2
2
2
2
2
2
2
0
0
0
0
0
2
2
2
2
2
2
2
2
2
2
2
2
2
2
2
2
2
2
2
2
2
2
2
2
2
2
2
0
0
0
0
0
2
2
2
2
2
2
2
2
2
2
2
2
2
2
2
2
2
2
2
2
2
2
2
2
2
2
2
2
1
0
0
0
</DataArray>
<DataArray NumberOfComponents='1' type='Float32' Name='Temperature' format='ascii'>
-3.000000
-3.000000
-3.000000
-3.000000
-3.000000
-3.000000
-3.000000
-3.000000
-3.000000
-3.000000
-3.000000
-3.000000
-3.000000
-3.000000
-3.000000
-3.000000
-4.951989
-4.946187
-4.936639
-4.921565
-4.900192
-4.871417
-4.833850
-4.785822
-4.725393
-4.650364
-4.558320
-4.446667
-4.312711
-4.153744
-3.967158
-3.750585
-3.502052
-3.220160
-2.904259
-2.554632
-2.172650
-1.760951
-1.322833
-0.868252
-0.368504
-0.003016
0.009802
20.130033
38.605157
58.567948
75.935332
89.947223
-3.000000
-3.000000
-3.000000
-3.000000
-3.000000
-3.000000
-3.000000
-3.000000
-4.950310
-4.944264
-4.934310
-4.918590
-4.896291
-4.866255
-4.827027
-4.776860
-4.713723
-4.635322
-4.539120
-4.422385
-4.282232
-4.115689
-3.919762
-3.691527
-3.428242
-3.127508
-2.787486
-2.407200
-1.986933
-1.528243
-1.037581
-0.502899
-0.003111
0.005063
14.773976
35.069971
60.702526
88.724904
113.392787
133.436412
-3.000000
-3.000000
-3.000000
-3.000000
-3.000000
-3.000000
-3.000000
-3.000000
-4.949476
-4.943328
-4.933207
-4.917223
-4.894546
-4.863999
-4.824097
-4.773054
-4.708792
-4.628954
-4.530932
-4.411906
-4.268899
-4.098851
-3.898710
-3.665553
-3.396742
-3.090122
-2.744263
-2.358736
-1.934480
-1.473410
-0.984345
-0.440310
-0.006991
0.005715
20.403421
46.222236
79.347407
115.870975
148.247595
174.695036
-3.000000
-3.000000
-3.000000
-3.000000
-3.000000
-3.000000
-3.000000
-3.000000
-4.948675
-4.942395
-4.932047
-4.915689
-4.892453
-4.861102
-4.820071
-4.767471
-4.701091
-4.618417
-4.516664
-4.392828
-4.243769
-4.066314
-3.857397
-3.614230
-3.334495
-3.016548
-2.659590
-2.263638
-1.829010
-1.352631
-0.836485
-0.131748
0.000174
3.388697
30.064783
61.139234
100.748623
144.686957
184.090130
216.621619
-3.000000
-3.000000
-3.000000
-3.000000
-3.000000
-3.000000
-3.000000
-3.000000
-4.948138
-4.941769
-4.931274
-4.914678
-4.891095
-4.859261
-4.817578
-4.764113
-4.696603
-4.612464
-4.508816
-4.382518
-4.230208
-4.048362
-3.833344
-3.581486
-3.289191
-2.953133
-2.570593
-2.140052
-1.661631
-1.140688
-0.569009
-0.007860
0.003677
14.414393
38.487971
73.614875
119.401685
170.891982
217.358998
255.953581
-3.000000
-3.000000
-3.000000
-3.000000
-3.000000
-3.000000
-3.000000
-3.000000
-4.947873
-4.941476
-4.930936
-4.914273
-4.890604
-4.858669
-4.816876
-4.763302
-4.695695
-4.611487
-4.507812
-4.381541
-4.229318
-4.047605
-3.832736
-3.580976
-3.288631
-2.952236
-2.568918
-2.137018
-1.656534
-1.133341
-0.556063
-0.005747
0.001101
15.888384
42.911354
83.386080
136.406105
196.185470
250.240851
295.299773
-3.000000
-3.000000
-3.000000
-3.000000
-3.000000
-3.000000
-3.000000
-3.000000
-4.947598
-4.941147
-4.930517
-4.913705
-4.889816
-4.857569
-4.815346
-4.761196
-4.692835
-4.607662
-4.502786
-4.375065
-4.221153
-4.037560
-3.820712
-3.567024
-3.273001
-2.935411
-2.551591
-2.120005
-1.640519
-1.119255
-0.539698
-0.008375
0.000880
17.728084
48.908279
94.278432
153.558385
220.610340
281.554201
332.683054
-3.000000
-3.000000
-3.000000
-3.000000
-3.000000
-3.000000
-3.000000
-3.000000
-4.947355
-4.940853
-4.930134
-4.913178
-4.889072
-4.856517
-4.813869
-4.759144
-4.690025
-4.603871
-4.497752
-4.368487
-4.212700
-4.026888
-3.807490
-3.550986
-3.254020
-2.913591
-2.527366
-2.094196
-1.614164
-1.094311
-0.511264
-0.008359
0.002795
20.271780
54.954372
105.035914
170.555718
245.029086
313.089312
370.574559
-3.000000
-3.000000
-3.000000
-3.000000
-3.000000
-3.000000
-3.000000
-3.000000
-4.947214
-4.940683
-4.929915
-4.912877
-4.888649
-4.855917
-4.813021
-4.757953
-4.688360
-4.601557
-4.494550
-4.364075
-4.206653
-4.018660
-3.796424
-3.536359
-3.235143
-2.889984
-2.498969
-2.061572
-1.578411
-1.058318
-0.468402
-0.006746
0.008662
23.879952
60.661581
114.706390
185.966700
267.574424
342.580613
406.349200
-3.000000
-3.000000
-3.000000
-3.000000
-3.000000
-3.000000
-3.000000
-3.000000
-4.947109
-4.940556
-4.929749
-4.912645
-4.888314
-4.855427
-4.812299
-4.756886
-4.686782
-4.599226
-4.491122
-4.359078
-4.199463
-4.008505
-3.782422
-3.517611
-3.210896
-2.859838
-2.463100
-2.020911
-1.534452
-1.014713
-0.416889
-0.007344
0.006068
28.434736
67.011978
124.690431
201.512433
290.328306
372.513134
442.908536
-3.000000
-3.000000
-3.000000
-3.000000
-3.000000
-3.000000
-3.000000
-3.000000
-4.947033
-4.940458
-4.929612
-4.912438
-4.887992
-4.854921
-4.811506
-4.755652
-4.684885
-4.596354
-4.486853
-4.352871
-4.190661
-3.996366
-3.766189
-3.496610
-3.184677
-2.828318
-2.426671
-1.980507
-1.491311
-0.971722
-0.366619
-0.000484
0.008018
32.403410
72.928316
133.960387
215.943347
311.579899
400.678703
477.584984
-3.000000
-3.000000
-3.000000
-3.000000
-3.000000
-3.000000
-3.000000
-3.000000
-4.946944
-4.940355
-4.929486
-4.912280
-4.887792
-4.854675
-4.811212
-4.755318
-4.684528
-4.596008
-4.486568
-4.352712
-4.190708
-3.996702
-3.766885
-3.497709
-3.186165
-2.830100
-2.428549
-1.982159
-1.492248
-0.971559
-0.361330
-0.004098
0.306668
33.397313
76.055272
141.122884
229.114830
332.339596
428.996901
513.019181
-3.000000
-3.000000
-3.000000
-3.000000
-3.000000
-3.000000
-3.000000
-3.000000
-4.945692
-4.938888
-4.927663
-4.909894
-4.884609
-4.850426
-4.805598
-4.748014
-4.675204
-4.584352
-4.472328
-4.335737
-4.170996
-3.974441
-3.742473
-3.471748
-3.159410
-2.803363
-2.402555
-1.957385
-1.468719
-0.949564
-0.337809
0.002019
0.009295
35.167725
81.249287
149.958357
242.684367
352.079102
455.300187
545.926684
-3.000000
-3.000000
-3.000000
-3.000000
-3.000000
-3.000000
-3.000000
-3.000000
-4.943643
-4.936633
-4.925083
-4.906822
-4.880884
-4.845890
-4.800103
-4.741431
-4.667429
-4.575316
-4.462008
-4.324159
-4.158233
-3.960592
-3.727592
-3.455649
-3.141206
-2.780429
-2.368475
-1.898535
-1.360769
-0.754186
-0.008727
0.000741
8.345236
37.865629
85.891031
158.238634
255.886117
371.214435
480.426030
577.109653
-4.947770
-4.941106
-4.930111
-4.912701
-4.887923
-4.854420
-4.810473
-4.754007
-4.682588
-4.593434
-4.483438
-4.349207
-4.187129
-3.993463
-3.764467
-3.496580
-3.186650
-2.832211
-2.431803
-1.985422
-1.493618
-0.969106
-0.350439
0.001728
0.009398
35.141847
82.638838
155.055309
253.976905
372.255233
485.459849
587.058291
-4.955321
-4.949361
-4.939501
-4.923835
-4.901441
-4.871007
-4.830864
-4.778983
-4.712970
-4.630070
-4.527183
-4.400894
-4.247513
-4.063147
-3.843782
-3.585419
-3.284259
-2.936978
-2.541101
-2.095562
-1.600326
-1.065131
-0.446662
0.000697
0.004791
28.584371
74.681548
146.773140
247.384384
369.497174
487.757843
595.448085
-4.959101
-4.953396
-4.943934
-4.928859
-4.907235
-4.877730
-4.838647
-4.787916
-4.723087
-4.641329
-4.539444
-4.413896
-4.260854
-4.076268
-3.855975
-3.595858
-3.292075
-2.941370
-2.541471
-2.091656
-1.592214
-1.054025
-0.428307
-0.002205
0.008221
30.696882
76.564796
148.393047
249.245677
373.196524
494.784782
607.472163
-4.965356
-4.960290
-4.951861
-4.938379
-4.918944
-4.892271
-4.856713
-4.810241
-4.750430
-4.674444
-4.579038
-4.460567
-4.315015
-4.138048
-3.925100
-3.671529
-3.372847
-3.025077
-2.625238
-2.172032
-1.665647
-1.115965
-0.484504
-0.004896
0.008916
27.168746
69.813943
140.313460
242.304230
370.135011
497.246786
617.050537
-4.968578
-4.963758
-4.955716
-4.942813
-4.924137
-4.898394
-4.863919
-4.818665
-4.760180
-4.685608
-4.591690
-4.474787
-4.330914
-4.155794
-3.944938
-3.693755
-3.397722
-3.052665
-2.655174
-2.203278
-1.696433
-1.143108
-0.509391
0.000063
0.006181
25.610130
69.902691
140.904357
243.470146
373.330598
504.191916
630.024382
-4.973797
-4.969579
-4.962515
-4.951133
-4.934569
-4.911590
-4.880603
-4.839628
-4.786270
-4.717706
-4.630675
-4.521482
-4.386015
-4.219774
-4.017924
-3.775362
-3.486860
-3.147316
-2.752208
-2.298397
-1.784576
-1.217719
-0.574328
-0.005535
0.007239
22.077596
62.634463
132.130420
235.793310
369.770117
506.731960
640.969724
-4.976515
-4.972534
-4.965846
-4.955025
-4.939200
-4.917131
-4.887204
-4.847412
-4.795325
-4.728080
-4.642373
-4.534484
-4.400314
-4.235435
-4.035164
-3.794628
-3.508837
-3.172797
-2.781747
-2.331735
-1.820150
-1.251378
-0.607439
-0.000401
0.004013
19.923514
62.914301
132.751201
236.629321
372.507442
513.564442
655.096680
-4.980758
-4.977331
-4.971549
-4.962150
-4.948320
-4.928897
-4.902357
-4.866786
-4.819840
-4.758725
-4.680174
-4.580452
-4.455377
-4.300354
-4.110424
-3.880297
-3.604377
-3.276770
-2.891398
-2.442467
-1.925334
-1.341315
-0.681827
-0.006052
0.005573
16.528078
55.081605
123.242355
228.147436
368.346599
516.109359
667.649450
-4.983004
-4.979804
-4.974382
-4.965525
-4.952415
-4.933883
-4.908390
-4.873993
-4.828307
-4.768477
-4.691165
-4.592559
-4.468417
-4.314134
-4.124853
-3.895577
-3.621256
-3.296778
-2.916802
-2.475535
-1.966764
-1.386435
-0.730275
-0.000734
0.001929
13.523807
55.728299
123.964893
228.597353
370.488193
522.704755
683.157720
-4.986349
-4.983645
-4.979042
-4.971482
-4.960215
-4.944162
-4.921895
-4.891587
-4.850972
-4.797305
-4.727329
-4.637267
-4.522839
-4.379308
-4.201566
-3.984245
-3.721819
-3.408612
-3.038551
-2.604508
-2.097513
-1.506496
-0.829393
-0.006389
0.004069
10.433293
47.234164
113.673592
219.238451
365.603022
525.139569
697.613533
-4.988158
-4.985668
-4.981405
-4.974362
-4.963790
-4.948609
-4.927378
-4.898247
-4.858908
-4.806551
-4.737830
-4.648856
-4.535219
-4.392054
-4.214159
-3.996177
-3.732845
-3.419286
-3.051249
-2.625005
-2.136302
-1.573964
-0.934935
-0.000907
0.000165
6.197623
48.521740
114.591316
219.233500
366.979001
531.322215
714.792943
-4.990701
-4.988641
-4.985097
-4.979204
-4.970289
-4.957376
-4.939148
-4.913897
-4.879465
-4.833191
-4.771863
-4.691694
-4.588312
-4.456793
-4.291733
-4.087374
-3.837811
-3.537279
-3.180536
-2.763251
-2.282156
-1.732099
-1.115531
-0.271545
0.002900
3.661895
39.213732
103.476729
208.933525
361.221108
533.472278
731.519120
-4.992118
-4.990254
-4.987027
-4.981623
-4.973375
-4.961312
-4.944115
-4.920060
-4.886954
-4.842073
-4.782110
-4.703148
-4.600652
-4.469508
-4.304112
-4.098530
-3.846742
-3.542985
-3.182222
-2.760690
-2.276661
-1.729608
-1.133703
-0.417106
-0.001282
0.009417
41.550172
104.700440
208.388622
361.624349
538.994449
750.739871
-4.994012
-4.992521
-4.989923
-4.985543
-4.978802
-4.968846
-4.954509
-4.934238
-4.906035
-4.867375
-4.815141
-4.745572
-4.654218
-4.535941
-4.384939
-4.194833
-3.958827
-3.669981
-3.321649
-2.908124
-2.425628
-1.872327
-1.258806
-0.536096
0.000079
0.004732
33.687354
93.637166
197.448294
354.873807
540.588943
770.188497
-4.995310
-4.994067
-4.991885
-4.988174
-4.982404
-4.973788
-4.961235
-4.943281
-4.918013
-4.882992
-4.835175
-4.770849
-4.685587
-4.574235
-4.430925
-4.249143
-4.021843
-3.741656
-3.401230
-2.993814
-2.514252
-1.959472
-1.337378
-0.611410
-0.007630
0.006402
29.125927
87.528296
190.612641
350.732439
543.762185
792.458445
-4.996157
-4.995061
-4.993119
-4.989783
-4.984532
-4.976588
-4.964858
-4.947864
-4.923653
-4.889716
-4.842902
-4.779357
-4.694483
-4.582937
-4.438679
-4.255076
-4.025064
-3.741407
-3.397077
-2.985836
-2.503157
-1.946487
-1.324344
-0.597287
-0.005782
0.005195
30.174159
88.586741
188.966800
349.279696
547.668702
815.775127
-4.997190
-4.996341
-4.994828
-4.992205
-4.988035
-4.981654
-4.972121
-4.958141
-4.937979
-4.909365
-4.869404
-4.814486
-4.740228
-4.641458
-4.512244
-4.346002
-4.135652
-3.873823
-3.553004
-3.165600
-2.703900
-2.160164
-1.529827
-0.804042
-0.008060
0.001645
16.919725
75.221374
176.120646
340.440277
547.641196
840.514337
-4.997809
-4.997095
-4.995807
-4.993547
-4.989899
-4.984227
-4.975613
-4.962777
-4.943976
-4.916900
-4.878567
-4.825227
-4.752295
-4.654329
-4.525069
-4.357533
-4.144171
-3.877047
-3.548041
-3.149131
-2.672982
-2.113700
-1.472965
-0.733283
0.000285
0.002359
21.991898
77.394782
173.906020
337.297376
549.665384
867.310051
-4.998459
-4.997926
-4.996956
-4.995238
-4.992431
-4.988012
-4.981214
-4.970948
-4.955711
-4.933475
-4.901571
-4.856570
-4.794188
-4.709215
-4.595510
-4.446078
-4.253259
-4.009044
-3.705533
-3.335474
-2.892673
-2.371807
-1.762612
-1.066874
-0.008300
-0.000689
6.317106
63.385856
160.168898
326.820437
547.756823
896.578092
-4.998857
-4.998428
-4.997637
-4.996214
-4.993849
-4.990053
-4.984096
-4.974924
-4.961049
-4.940426
-4.910317
-4.867158
-4.806444
-4.722658
-4.609288
-4.458937
-4.263553
-4.014755
-3.704140
-3.323380
-2.863826
-2.315707
-1.667541
-0.915457
-0.000046
-0.000354
13.054495
66.105442
157.138767
321.687261
547.114637
927.813886
-4.999232
-4.998925
-4.998353
-4.997312
-4.995556
-4.992698
-4.988147
-4.981036
-4.970122
-4.953668
-4.929304
-4.893880
-4.843325
-4.772523
-4.675238
-4.544123
-4.370838
-4.146319
-3.861239
-3.506672
-3.074972
-2.560971
-1.961353
-1.291669
-0.462081
-0.002200
0.008532
51.641081
142.653042
309.275373
542.324128
962.719859
-4.999464
-4.999231
-4.998789
-4.997971
-4.996562
-4.994216
-4.990393
-4.984279
-4.974678
-4.959873
-4.937469
-4.904208
-4.855800
-4.786772
-4.690395
-4.558723
-4.382815
-4.153154
-3.860315
-3.495817
-3.053078
-2.528360
-1.918616
-1.236406
-0.319453
-0.002473
3.154346
55.203114
138.808116
301.802254
537.821141
999.609893
-4.999660
-4.999502
-4.999198
-4.998626
-4.997626
-4.995931
-4.993122
-4.988552
-4.981257
-4.969827
-4.952260
-4.925781
-4.886664
-4.830045
-4.749780
-4.638362
-4.486950
-4.285540
-4.023315
-3.689251
-3.273010
-2.766347
-2.163650
-1.474253
-0.642507
-0.003354
0.004783
39.266817
123.557360
287.153013
528.700810
1041.609878
-4.999780
-4.999668
-4.999449
-4.999029
-4.998276
-4.996965
-4.994735
-4.991007
-4.984895
-4.975058
-4.959533
-4.935519
-4.899134
-4.845180
-4.766937
-4.656069
-4.502708
-4.295804
-4.023810
-3.675728
-3.242428
-2.718269
-2.101005
-1.406023
-0.563503
-0.003800
0.007921
45.023838
119.130545
276.982010
518.620672
1085.763058
-4.999870
-4.999799
-4.999658
-4.999382
-4.998876
-4.997978
-4.996418
-4.993756
-4.989306
-4.982006
-4.970275
-4.951809
-4.923359
-4.880489
-4.817341
-4.726469
-4.598774
-4.423595
-4.188969
-3.882063
-3.489755
-2.999561
-2.400741
-1.691763
-0.850669
-0.004208
0.000666
26.156846
103.357832
259.908437
503.078027
1136.784744
-4.999924
-4.999878
-4.999785
-4.999598
-4.999247
-4.998604
-4.997453
-4.995429
-4.991939
-4.986035
-4.976248
-4.960360
-4.935118
-4.895903
-4.836382
-4.748214
-4.620892
-4.441874
-4.197136
-3.872288
-3.454279
-2.933673
-2.305990
-1.582545
-0.722766
-0.004859
0.004594
35.187651
98.411781
246.693209
484.956083
1190.350418
-4.999959
-4.999933
-4.999877
-4.999764
-4.999545
-4.999135
-4.998381
-4.997021
-4.994618
-4.990458
-4.983405
-4.971706
-4.952734
-4.922684
-4.876236
-4.806242
-4.703510
-4.556794
-4.353087
-4.078271
-3.717972
-3.258108
-2.684382
-1.977470
-1.131146
0.005759
-0.002882
12.670510
83.021823
227.210430
459.941223
1252.962015
-4.999979
-4.999963
-4.999931
-4.999862
-4.999725
-4.999459
-4.998953
-4.998009
-4.996280
-4.993180
-4.987734
-4.978372
-4.962635
-4.936790
-4.895359
-4.830598
-4.732014
-4.586063
-4.376276
-4.084088
-3.690692
-3.180117
-2.542703
-1.784277
-0.892493
-0.007033
0.001613
26.132072
77.565619
210.635089
431.826055
1344.158863
-4.999990
-4.999982
-4.999964
-4.999927
-4.999848
-4.999691
-4.999381
-4.998782
-4.997648
-4.995543
-4.991721
-4.984929
-4.973135
-4.953135
-4.920047
-4.866698
-4.782974
-4.655255
-4.466187
-4.195149
-3.819859
-3.319629
-2.680005
-1.902072
-0.986078
-0.009306
0.003644
21.996709
67.351766
190.077100
399.823856
1340.261426
-4.999996
-4.999992
-4.999983
-4.999963
-4.999921
-4.999834
-4.999655
-4.999296
-4.998591
-4.997235
-4.994683
-4.989984
-4.981533
-4.966700
-4.941311
-4.898988
-4.830351
-4.722208
-4.556913
-4.312274
-3.962525
-3.481132
-2.846020
-2.049058
-1.099512
-0.007900
-0.000080
18.208290
57.841314
170.130740
367.506763
1296.487707
-4.999998
-4.999997
-4.999993
-4.999983
-4.999963
-4.999918
-4.999823
-4.999625
-4.999219
-4.998406
-4.996813
-4.993761
-4.988051
-4.977631
-4.959097
-4.927013
-4.873021
-4.784817
-4.645130
-4.431022
-4.113987
-3.661615
-3.042101
-2.232354
-1.242744
-0.009729
0.001382
14.678118
48.653424
149.959347
333.490476
1247.303912
-4.999999
-4.999999
-4.999997
-4.999993
-4.999984
-4.999963
-4.999917
-4.999815
-4.999598
-4.999143
-4.998211
-4.996346
-4.992704
-4.985766
-4.972893
-4.949660
-4.908929
-4.839665
-4.725616
-4.544089
-4.265283
-3.852735
-3.265861
-2.462318
-1.438919
-0.008216
-0.002469
11.583750
40.296740
130.686562
299.584858
1194.595047
-5.000000
-5.000000
-4.999999
-4.999998
-4.999994
-4.999985
-4.999965
-4.999919
-4.999815
-4.999585