<?xml version='1.0' encoding='UTF-8'?>
<VTKFile xmlns='VTK' byte_order='LittleEndian' version='0.1' type='UnstructuredGrid'>
<UnstructuredGrid>
<Piece NumberOfCells='1816' NumberOfPoints='1816'>
<Points>
<DataArray NumberOfComponents='3' type='Float32' Name='Position' format='ascii'>
1.350000 0.400000 0.000000
1.350000 0.412500 0.000000
1.350000 0.425000 0.000000
1.350000 0.437500 0.000000
1.350000 0.450000 0.000000
1.350000 0.462500 0.000000
1.350000 0.475000 0.000000
1.350000 0.487500 0.000000
1.387500 0.400000 0.000000
1.387500 0.412500 0.000000
1.387500 0.425000 0.000000
1.387500 0.437500 0.000000
1.387500 0.450000 0.000000
1.387500 0.462500 0.000000
1.387500 0.475000 0.000000
1.387500 0.487500 0.000000
0.025000 0.000000 0.000000
0.025000 0.012500 0.000000
0.025000 0.025000 0.000000
0.025000 0.037500 0.000000
0.025000 0.050000 0.000000
0.025000 0.062500 0.000000
0.025000 0.075000 0.000000
0.025000 0.087500 0.000000
0.025000 0.100000 0.000000
0.025000 0.112500 0.000000
0.025000 0.125000 0.000000
0.025000 0.137500 0.000000
0.025000 0.150000 0.000000
0.025000 0.162500 0.000000
0.025000 0.175000 0.000000
0.025000 0.187500 0.000000
0.025000 0.200000 0.000000
0.025000 0.212500 0.000000
0.025000 0.225000 0.000000
0.025000 0.237500 0.000000
0.025000 0.250000 0.000000
0.025000 0.262500 0.000000
0.025000 0.275000 0.000000
0.025000 0.287500 0.000000
0.025000 0.300000 0.000000
0.025000 0.312500 0.000000
0.025000 0.325000 0.000000
0.025000 0.337500 0.000000
0.025000 0.350000 0.000000
0.025000 0.362500 0.000000
0.025000 0.375000 0.000000
0.025000 0.387500 0.000000
1.425000 0.400000 0.000000
1.425000 0.412500 0.000000
1.425000 0.425000 0.000000
1.425000 0.437500 0.000000
1.425000 0.450000 0.000000
1.425000 0.462500 0.000000
1.425000 0.475000 0.000000
1.425000 0.487500 0.000000
0.062500 0.000000 0.000000
0.062500 0.012500 0.000000
0.062500 0.025000 0.000000
0.062500 0.037500 0.000000
0.062500 0.050000 0.000000
0.062500 0.062500 0.000000
0.062500 0.075000 0.000000
0.062500 0.087500 0.000000
0.062500 0.100000 0.000000
0.062500 0.112500 0.000000
0.062500 0.125000 0.000000
0.062500 0.137500 0.000000
0.062500 0.150000 0.000000
0.062500 0.162500 0.000000
0.062500 0.175000 0.000000
0.062500 0.187500 0.000000
0.062500 0.200000 0.000000
0.062500 0.212500 0.000000
0.062500 0.225000 0.000000
0.062500 0.237500 0.000000
0.062500 0.250000 0.000000
0.062500 0.262500 0.000000
0.062500 0.275000 0.000000
0.062500 0.287500 0.000000
0.062500 0.300000 0.000000
0.062500 0.312500 0.000000
0.062500 0.325000 0.000000
0.062500 0.337500 0.000000
0.062500 0.350000 0.000000
0.062500 0.362500 0.000000
0.062500 0.375000 0.000000
0.062500 0.387500 0.000000
1.462500 0.400000 0.000000
1.462500 0.412500 0.000000
1.462500 0.425000 0.000000
1.462500 0.437500 0.000000
1.462500 0.450000 0.000000
1.462500 0.462500 0.000000
1.462500 0.475000 0.000000
1.462500 0.487500 0.000000
0.100000 0.000000 0.000000
0.100000 0.012500 0.000000
0.100000 0.025000 0.000000
0.100000 0.037500 0.000000
0.100000 0.050000 0.000000
0.100000 0.062500 0.000000
0.100000 0.075000 0.000000
0.100000 0.087500 0.000000
0.100000 0.100000 0.000000
0.100000 0.112500 0.000000
0.100000 0.125000 0.000000
0.100000 0.137500 0.000000
0.100000 0.150000 0.000000
0.100000 0.162500 0.000000
0.100000 0.175000 0.000000
0.100000 0.187500 0.000000
0.100000 0.200000 0.000000
0.100000 0.212500 0.000000
0.100000 0.225000 0.000000
0.100000 0.237500 0.000000
0.100000 0.250000 0.000000
0.100000 0.262500 0.000000
0.100000 0.275000 0.000000
0.100000 0.287500 0.000000
0.100000 0.300000 0.000000
0.100000 0.312500 0.000000
0.100000 0.325000 0.000000
0.100000 0.337500 0.000000
0.100000 0.350000 0.000000
0.100000 0.362500 0.000000
0.100000 0.375000 0.000000
0.100000 0.387500 0.000000
1.500000 0.400000 0.000000
1.500000 0.412500 0.000000
1.500000 0.425000 0.000000
1.500000 0.437500 0.000000
1.500000 0.450000 0.000000
1.500000 0.462500 0.000000
1.500000 0.475000 0.000000
1.500000 0.487500 0.000000
0.137500 0.000000 0.000000
0.137500 0.012500 0.000000
0.137500 0.025000 0.000000
0.137500 0.037500 0.000000
0.137500 0.050000 0.000000
0.137500 0.062500 0.000000
0.137500 0.075000 0.000000
0.137500 0.087500 0.000000
0.137500 0.100000 0.000000
0.137500 0.112500 0.000000
0.137500 0.125000 0.000000
0.137500 0.137500 0.000000
0.137500 0.150000 0.000000
0.137500 0.162500 0.000000
0.137500 0.175000 0.000000
0.137500 0.187500 0.000000
0.137500 0.200000 0.000000
0.137500 0.212500 0.000000
0.137500 0.225000 0.000000
0.137500 0.237500 0.000000
0.137500 0.250000 0.000000
0.137500 0.262500 0.000000
0.137500 0.275000 0.000000
0.137500 0.287500 0.000000
0.137500 0.300000 0.000000
0.137500 0.312500 0.000000
0.137500 0.325000 0.000000
0.137500 0.337500 0.000000
0.137500 0.350000 0.000000
0.137500 0.362500 0.000000
0.137500 0.375000 0.000000
0.137500 0.387500 0.000000
1.537500 0.400000 0.000000
1.537500 0.412500 0.000000
1.537500 0.425000 0.000000
1.537500 0.437500 0.000000
1.537500 0.450000 0.000000
1.537500 0.462500 0.000000
1.537500 0.475000 0.000000
1.537500 0.487500 0.000000
0.175000 0.000000 0.000000
0.175000 0.012500 0.000000
0.175000 0.025000 0.000000
0.175000 0.037500 0.000000
0.175000 0.050000 0.000000
0.175000 0.062500 0.000000
0.175000 0.075000 0.000000
0.175000 0.087500 0.000000
0.175000 0.100000 0.000000
0.175000 0.112500 0.000000
0.175000 0.125000 0.000000
0.175000 0.137500 0.000000
0.175000 0.150000 0.000000
0.175000 0.162500 0.000000
0.175000 0.175000 0.000000
0.175000 0.187500 0.000000
0.175000 0.200000 0.000000
0.175000 0.212500 0.000000
0.175000 0.225000 0.000000
0.175000 0.237500 0.000000
0.175000 0.250000 0.000000
0.175000 0.262500 0.000000
0.175000 0.275000 0.000000
0.175000 0.287500 0.000000
0.175000 0.300000 0.000000
0.175000 0.312500 0.000000
0.175000 0.325000 0.000000
0.175000 0.337500 0.000000
0.175000 0.350000 0.000000
0.175000 0.362500 0.000000
0.175000 0.375000 0.000000
0.175000 0.387500 0.000000
1.575000 0.400000 0.000000
1.575000 0.412500 0.000000
1.575000 0.425000 0.000000
1.575000 0.437500 0.000000
1.575000 0.450000 0.000000
1.575000 0.462500 0.000000
1.575000 0.475000 0.000000
1.575000 0.487500 0.000000
0.212500 0.000000 0.000000
0.212500 0.012500 0.000000
0.212500 0.025000 0.000000
0.212500 0.037500 0.000000
0.212500 0.050000 0.000000
0.212500 0.062500 0.000000
0.212500 0.075000 0.000000
0.212500 0.087500 0.000000
0.212500 0.100000 0.000000
0.212500 0.112500 0.000000
0.212500 0.125000 0.000000
0.212500 0.137500 0.000000
0.212500 0.150000 0.000000
0.212500 0.162500 0.000000
0.212500 0.175000 0.000000
0.212500 0.187500 0.000000
0.212500 0.200000 0.000000
0.212500 0.212500 0.000000
0.212500 0.225000 0.000000
0.212500 0.237500 0.000000
0.212500 0.250000 0.000000
0.212500 0.262500 0.000000
0.212500 0.275000 0.000000
0.212500 0.287500 0.000000
0.212500 0.300000 0.000000
0.212500 0.312500 0.000000
0.212500 0.325000 0.000000
0.212500 0.337500 0.000000
0.212500 0.350000 0.000000
0.212500 0.362500 0.000000
0.212500 0.375000 0.000000
0.212500 0.387500 0.000000
1.612500 0.400000 0.000000
1.612500 0.412500 0.000000
1.612500 0.425000 0.000000
1.612500 0.437500 0.000000
1.612500 0.450000 0.000000
1.612500 0.462500 0.000000
1.612500 0.475000 0.000000
1.612500 0.487500 0.000000
0.250000 0.000000 0.000000
0.250000 0.012500 0.000000
0.250000 0.025000 0.000000
0.250000 0.037500 0.000000
0.250000 0.050000 0.000000
0.250000 0.062500 0.000000
0.250000 0.075000 0.000000
0.250000 0.087500 0.000000
0.250000 0.100000 0.000000
0.250000 0.112500 0.000000
0.250000 0.125000 0.000000
0.250000 0.137500 0.000000
0.250000 0.150000 0.000000
0.250000 0.162500 0.000000
0.250000 0.175000 0.000000
0.250000 0.187500 0.000000
0.250000 0.200000 0.000000
0.250000 0.212500 0.000000
0.250000 0.225000 0.000000
0.250000 0.237500 0.000000
0.250000 0.250000 0.000000
0.250000 0.262500 0.000000
0.250000 0.275000 0.000000
0.250000 0.287500 0.000000
0.250000 0.300000 0.000000
0.250000 0.312500 0.000000
0.250000 0.325000 0.000000
0.250000 0.337500 0.000000
0.250000 0.350000 0.000000
0.250000 0.362500 0.000000
0.250000 0.375000 0.000000
0.250000 0.387500 0.000000
1.650000 0.400000 0.000000
1.650000 0.412500 0.000000
1.650000 0.425000 0.000000
1.650000 0.437500 0.000000
1.650000 0.450000 0.000000
1.650000 0.462500 0.000000
1.650000 0.475000 0.000000
1.650000 0.487500 0.000000
0.287500 0.000000 0.000000
0.287500 0.012500 0.000000
0.287500 0.025000 0.000000
0.287500 0.037500 0.000000
0.287500 0.050000 0.000000
0.287500 0.062500 0.000000
0.287500 0.075000 0.000000
0.287500 0.087500 0.000000
0.287500 0.100000 0.000000
0.287500 0.112500 0.000000
0.287500 0.125000 0.000000
0.287500 0.137500 0.000000
0.287500 0.150000 0.000000
0.287500 0.162500 0.000000
0.287500 0.175000 0.000000
0.287500 0.187500 0.000000
0.287500 0.200000 0.000000
0.287500 0.212500 0.000000
0.287500 0.225000 0.000000
0.287500 0.237500 0.000000
0.287500 0.250000 0.000000
0.287500 0.262500 0.000000
0.287500 0.275000 0.000000
0.287500 0.287500 0.000000
0.287500 0.300000 0.000000
0.287500 0.312500 0.000000
0.287500 0.325000 0.000000
0.287500 0.337500 0.000000
0.287500 0.350000 0.000000
0.287500 0.362500 0.000000
0.287500 0.375000 0.000000
0.287500 0.387500 0.000000
1.687500 0.400000 0.000000
1.687500 0.412500 0.000000
1.687500 0.425000 0.000000
1.687500 0.437500 0.000000
1.687500 0.450000 0.000000
1.687500 0.462500 0.000000
1.687500 0.475000 0.000000
1.687500 0.487500 0.000000
0.325000 0.000000 0.000000
0.325000 0.012500 0.000000
0.325000 0.025000 0.000000
0.325000 0.037500 0.000000
0.325000 0.050000 0.000000
0.325000 0.062500 0.000000
0.325000 0.075000 0.000000
0.325000 0.087500 0.000000
0.325000 0.100000 0.000000
0.325000 0.112500 0.000000
0.325000 0.125000 0.000000
0.325000 0.137500 0.000000
0.325000 0.150000 0.000000
0.325000 0.162500 0.000000
0.325000 0.175000 0.000000
0.325000 0.187500 0.000000
0.325000 0.200000 0.000000
0.325000 0.212500 0.000000
0.325000 0.225000 0.000000
0.325000 0.237500 0.000000
0.325000 0.250000 0.000000
0.325000 0.262500 0.000000
0.325000 0.275000 0.000000
[...]
<PointData>
<DataArray NumberOfComponents='1' type='Int32' Name='ParticleType' format='ascii'>
5
5
5
5
5
5
5
5
5
5
5
5
5
5
5
5
2
2
2
2
2
2
2
2
2
2
2
2
2
2
2
2
2
2
2
2
2
2
2
2
2
1
1
0
0
0
0
0
5
5
5
5
5
5
5
5
2
2
2
2
2
2
2
2
2
2
2
2
2
2
2
2
2
2
2
2
2
2
2
2
1
1
0
0
0
0
0
0
5
5
5
5
5
5
5
5
2
2
2
2
2
2
2
2
2
2
2
2
2
2
2
2
2
2
2
2
2
2
2
2
1
1
0
0
0
0
0
0
5
5
5
5
5
5
5
5
2
2
2
2
2
2
2
2
2
2
2
2
2
2
2
2
2
2
2
2
2
2
2
2
1
1
0
0
0
0
0
0
5
5
5
5
5
5
5
5
2
2
2
2
2
2
2
2
2
2
2
2
2
2
2
2
2
2
2
2
2
2
2
2
1
0
0
0
0
0
0
0
5
5
5
5
5
5
5
5
2
2
2
2
2
2
2
2
2
2
2
2
2
2
2
2
2
2
2
2
2
2
2
2
1
0
0
0
0
0
0
0
5
5
5
5
5
5
5
5
2
2
2
2
2
2
2
2
2
2
2
2
2
2
2
2
2
2
2
2
2
2
2
2
1
0
0
0
0
0
0
0
5
5
5
5
5
5
5
5
2
2
2
2
2
2
2
2
2
2
2
2
2
2
2
2
2
2
2
2
2
2
2
1
1
0
0
0
0
0
0
0
5
5
5
5
5
5
5
5
2
2
2
2
2
2
2
2
2
2
2
2
2
2
2
2
2
2
2
2
2
2
2
1
1
0
0
0
0
0
0
0
5
5
5
5
5
5
5
5
2
2
2
2
2
2
2
2
2
2
2
2
2
2
2
2
2
2
2
2
2
2
2
1
1
0
0
0
0
0
0
0
5
5
5
5
5
5
5
5
2
2
2
2
2
2
2
2
2
2
2
2
2
2
2
2
2
2
2
2
2
2
2
1
1
0
0
0
0
0
0
0
5
5
5
5
5
5
5
5
2
2
2
2
2
2
2
2
2
2
2
2
2
2
2
2
2
2
2
2
2
2
2
1
1
0
0
0
0
0
0
0
5
5
5
5
5
5
5
5
2
2
2
2
2
2
2
2
2
2
2
2
2
2
2
2
2
2
2
2
2
2
2
1
1
0
0
0
0
0
0
0
5
5
5
5
5
5
5
5
2
2
2
2
2
2
2
2
2
2
2
2
2
2
2
2
2
2
2
2
2
2
2
1
1
0
0
0
0
0
0
0
2
2
2
2
2
2
2
2
2
2
2
2
2
2
2
2
2
2
2
2
2
2
2
1
1
0
0
0
0
0
0
0
2
2
2
2
2
2
2
2
2
2
2
2
2
2
2
2
2
2
2
2
2
2
2
1
1
0
0
0
0
0
0
0
2
2
2
2
2
2
2
2
2
2
2
2
2
2
2
2
2
2
2
2
2
2
2
1
1
0
0
0
0
0
0
0
2
2
2
2
2
2
2
2
2
2
2
2
2
2
2
2
2
2
2
2
2
2
2
1
1
0
0
0
0
0
0
0
2
2
2
2
2
2
2
2
2
2
2
2
2
2
2
2
2
2
2
2
2
2
2
1
1
0
0
0
0
0
0
0
2
2
2
2
2
2
2
2
2
2
2
2
2
2
2
2
2
2
2
2
2
2
2
2
1
0
0
0
0
0
0
0
2
2
2
2
2
2
2
2
2
2
2
2
2
2
2
2
2
2
2
2
2
2
2
2
1
1
0
0
0
0
0
0
2
2
2
2
2
2
2
2
2
2
2
2
2
2
2
2
2
2
2
2
2
2
2
2
1
1
0
0
0
0
0
0
2
2
2
2
2
2
2
2
2
2
2
2
2
2
2
2
2
2
2
2
2
2
2
2
1
1
0
0
0
0
0
0
2
2
2
2
2
2
2
2
2
2
2
2
2
2
2
2
2
2
2
2
2
2
2
2
1
1
0
0
0
0
0
0
2
2
2
2
2
2
2
2
2
2
2
2
2
2
2
2
2
2
2
2
2
2
2
2
1
1
0
0
0
0
0
0
2
2
2
2
2
2
2
2
2
2
2
2
2
2
2
2
2
2
2
2
2
2
2
2
1
1
0
0
0
0
0
0
2
2
2
2
2
2
2
2
2
2
2
2
2
2
2
2
2
2
2
2
2
2
2
2
1
1
0
0
0
0
0
0
2
2
2
2
2
2
2
2
2
2
2
2
2
2
2
2
2
2
2
2
2
2
2
2
1
1
0
0
0
0
0
0
2
2
2
2
2
2
2
2
2
2
2
2
2
2
2
2
2
2
2
2
2
2
2
2
2
1
0
0
0
0
0
0
2
2
2
2
2
2
2
2
2
2
2
2
2
2
2
2
2
2
2
2
2
2
2
2
2
1
0
0
0
0
0
0
2
2
2
2
2
2
2
2
2
2
2
2
2
2
2
2
2
2
2
2
2
2
2
2
2
1
1
0
0
0
0
0
2
2
2
2
2
2
2
2
2
2
2
2
2
2
2
2
2
2
2
2
2
2
2
2
2
1
1
0
0
0
0
0
2
2
2
2
2
2
2
2
2
2
2
2
2
2
2
2
2
2
2
2
2
2
2
2
2
1
1
0
0
0
0
0
2
2
2
2
2
2
2
2
2
2
2
2
2
2
2
2
2
2
2
2
2
2
2
2
2
1
1
0
0
0
0
0
2
2
2
2
2
2
2
2
2
2
2
2
2
2
2
2
2
2
2
2
2
2
2
2
2
1
1
0
0
0
0
0
2
2
2
2
2
2
2
2
2
2
2
2
2
2
2
2
2
2
2
2
2
2
2
2
2
1
1
0
0
0
0
0
2
2
2
2
2
2
2
2
2
2
2
2
2
2
2
2
2
2
2
2
2
2
2
2
2
2
1
1
0
0
0
0
2
2
2
2
2
2
2
2
2
2
2
2
2
2
2
2
2
2
2
2
2
2
2
2
2
1
1
0
0
0
0
0
2
2
2
2
2
2
2
2
2
2
2
2
2
2
2
2
2
2
2
2
2
2
2
2
2
2
1
1
0
0
0
0
2
2
2
2
2
2
2
2
2
2
2
2
2
2
2
2
2
2
2
2
2
2
2
2
2
1
1
0
0
0
0
0
2
2
2
2
2
2
2
2
2
2
2
2
2
2
2
2
2
2
2
2
2
2
2
2
2
2
1
1
0
0
0
0
2
2
2
2
2
2
2
2
2
2
2
2
2
2
2
2
2
2
2
2
2
2
2
2
2
2
1
0
0
0
0
0
2
2
2
2
2
2
2
2
2
2
2
2
2
2
2
2
2
2
2
2
2
2
2
2
2
2
1
0
0
0
0
0
2
2
2
2
2
2
2
2
2
2
2
2
2
2
2
2
2
2
2
2
2
2
2
2
2
2
1
0
0
0
0
0
2
2
2
2
2
2
2
2
2
2
2
2
2
2
2
2
2
2
2
2
2
2
2
2
2
2
2
0
0
0
0
0
2
2
2
2
2
2
2
2
2
2
2
2
2
2
2
2
2
2
2
2
2
2
2
2
2
2
2
0
0
0
0
0
2
2
2
2
2
2
2
2
2
2
2
2
2
2
2
2
2
2
2
2
2
2
2
2
2
2
2
0
0
0
0
0
2
2
2
2
2
2
2
2
2
2
2
2
2
2
2
2
2
2
2
2
2
2
2
2
2
2
2
2
0
0
0
0
2
2
2
2
2
2
2
2
2
2
2
2
2
2
2
2
2
2
2
2
2
2
2
2
2
2
2
2
0
0
0
0
2
2
2
2
2
2
2
2
2
2
2
2
2
2
2
2
2
2
2
2
2
2
2
2
2
2
2
2
2
0
0
0
2
2
2
2
2
2
2
2
2
2
2
2
2
2
2
2
2
2
2
2
2
2
2
2
2
2
2
2
2
2
2
2
2
2
2
2
2
2
2
2
2
2
2
2
2
2
2
2
2
2
2
2
2
2
2
2
2
2
2
2
2
2
2
2
2
2
2
2
2
2
2
2
2
2
2
2
2
2
2
2
2
2
2
2
2
2
2
2
2
2
2
2
2
2
2
2
</DataArray>
<DataArray NumberOfComponents='1' type='Float32' Name='Temperature' format='ascii'>
-3.000000
-3.000000
-3.000000
-3.000000
-3.000000
-3.000000
-3.000000
-3.000000
-3.000000
-3.000000
-3.000000
-3.000000
-3.000000
-3.000000
-3.000000
-3.000000
-4.976932
-4.973297
-4.967217
-4.957436
-4.943231
-4.923573
-4.897132
-4.862264
-4.816992
-4.758995
-4.685618
-4.593887
-4.480557
-4.342178
-4.175204
-3.976136
-3.741704
-3.469100
-3.156240
-2.802045
-2.406727
-1.972103
-1.501265
-1.003690
-0.459450
-0.004367
0.006477
18.031301
37.363903
59.970607
80.859569
98.722176
-3.000000
-3.000000
-3.000000
-3.000000
-3.000000
-3.000000
-3.000000
-3.000000
-4.976204
-4.972427
-4.966105
-4.955925
-4.941122
-4.920607
-4.892973
-4.856476
-4.809021
-4.748156
-4.671084
-4.574698
-4.455640
-4.310397
-4.135423
-3.927276
-3.682756
-3.398975
-3.073276
-2.702909
-2.284433
-1.813265
-1.283826
-0.699878
-0.003823
0.001388
7.693134
30.711132
58.617453
90.849098
120.651217
146.389311
-3.000000
-3.000000
-3.000000
-3.000000
-3.000000
-3.000000
-3.000000
-3.000000
-4.975819
-4.971981
-4.965557
-4.955214
-4.940177
-4.919344
-4.891287
-4.854243
-4.806088
-4.744339
-4.666159
-4.568391
-4.447611
-4.300207
-4.122482
-3.910756
-3.661458
-3.371177
-3.036668
-2.654876
-2.223157
-1.739762
-1.206888
-0.621649
-0.008402
0.000602
12.450098
40.231317
76.269849
118.411925
157.676996
191.781738
-3.000000
-3.000000
-3.000000
-3.000000
-3.000000
-3.000000
-3.000000
-3.000000
-4.975512
-4.971612
-4.965083
-4.954565
-4.939264
-4.918043
-4.889432
-4.851597
-4.802321
-4.738983
-4.658554
-4.557608
-4.432360
-4.278741
-4.092513
-3.869441
-3.605533
-3.297344
-2.942339
-2.539298
-2.088788
-1.592732
-1.061616
-0.462433
-0.001619
0.006358
24.159893
54.352110
96.681626
147.314501
195.379921
237.687897
-3.000000
-3.000000
-3.000000
-3.000000
-3.000000
-3.000000
-3.000000
-3.000000
-4.975317
-4.971375
-4.964772
-4.954133
-4.938645
-4.917152
-4.888153
-4.849775
-4.799750
-4.735397
-4.653614
-4.550899
-4.423394
-4.266966
-4.077348
-3.850319
-3.581957
-3.268904
-2.908582
-2.499086
-2.038310
-1.519296
-0.940372
-0.126487
-0.000128
4.243478
29.641071
64.852977
114.277224
173.728129
230.529246
280.944658
-3.000000
-3.000000
-3.000000
-3.000000
-3.000000
-3.000000
-3.000000
-3.000000
-4.975199
-4.971234
-4.964594
-4.953894
-4.938320
-4.916715
-4.887576
-4.849036
-4.798839
-4.734326
-4.652435
-4.549712
-4.422362
-4.266321
-4.077374
-3.851324
-3.584209
-3.272560
-2.913626
-2.505344
-2.045611
-1.527757
-0.950456
-0.135362
-0.003994
4.221958
32.061846
73.043419
130.363039
199.380039
265.471292
324.499545
-3.000000
-3.000000
-3.000000
-3.000000
-3.000000
-3.000000
-3.000000
-3.000000
-4.975116
-4.971130
-4.964452
-4.953689
-4.938015
-4.916258
-4.886893
-4.848022
-4.797348
-4.732155
-4.649315
-4.545298
-4.416226
-4.257962
-4.066240
-3.836858
-3.565921
-3.250131
-2.887075
-2.475361
-2.014288
-1.499963
-0.935380
-0.148824
-0.005004
3.780142
37.547471
82.890400
146.584033
223.872944
298.509901
365.821150
-3.000000
-3.000000
-3.000000
-3.000000
-3.000000
-3.000000
-3.000000
-3.000000
-4.975052
-4.971048
-4.964338
-4.953516
-4.937749
-4.915848
-4.886265
-4.847069
-4.795922
-4.730058
-4.646285
-4.541007
-4.410279
-4.249909
-4.055600
-3.823157
-3.548731
-3.229095
-2.861846
-2.445303
-1.977604
-1.451036
-0.865229
-0.009501
-0.003277
5.132925
42.679668
92.401186
162.532526
248.302372
331.803234
407.875223
-3.000000
-3.000000
-3.000000
-3.000000
-3.000000
-3.000000
-3.000000
-3.000000
-4.975015
-4.971000
-4.964271
-4.953416
-4.937598
-4.915617
-4.885914
-4.846546
-4.795153
-4.728944
-4.644698
-4.538786
-4.407225
-4.245777
-4.050086
-3.815844
-3.538956
-3.215612
-2.842130
-2.414399
-1.927073
-1.372944
-0.751211
-0.008203
0.004365
9.568249
46.921899
100.490866
176.730007
270.755557
362.942764
447.736312
-3.000000
-3.000000
-3.000000
-3.000000
-3.000000
-3.000000
-3.000000
-3.000000
-4.974988
-4.970965
-4.964221
-4.953341
-4.937483
-4.915443
-4.885653
-4.846158
-4.794585
-4.728123
-4.643521
-4.537103
-4.404804
-4.242233
-4.044743
-3.807507
-3.525582
-3.193973
-2.807782
-2.362664
-1.855505
-1.288766
-0.654079
-0.009386
-0.001206
15.911189
51.875054
108.730826
190.859716
293.290845
394.530873
488.650048
-3.000000
-3.000000
-3.000000
-3.000000
-3.000000
-3.000000
-3.000000
-3.000000
-4.974974
-4.970946
-4.964193
-4.953298
-4.937414
-4.915333
-4.885478
-4.845880
-4.794140
-4.727403
-4.642343
-4.535150
-4.401547
-4.236814
-4.035850
-3.793284
-3.503676
-3.161861
-2.763508
-2.305980
-1.788789
-1.219604
-0.577970
-0.002231
0.000905
21.109023
56.770598
116.402635
203.845794
314.199404
424.187387
527.578328
-3.000000
-3.000000
-3.000000
-3.000000
-3.000000
-3.000000
-3.000000
-3.000000
-4.974970
-4.970936
-4.964175
-4.953265
-4.937362
-4.915254
-4.885367
-4.845736
-4.793971
-4.727235
-4.642228
-4.535183
-4.401881
-4.237674
-4.037536
-3.796153
-3.508086
-3.168076
-2.771557
-2.315524
-1.799052
-1.229355
-0.586069
-0.006295
0.004528
21.019700
58.326580
121.919048
215.652832
334.704837
454.152986
567.695701
-3.000000
-3.000000
-3.000000
-3.000000
-3.000000
-3.000000
-3.000000
-3.000000
-4.974604
-4.970462
-4.963509
-4.952275
-4.935871
-4.913026
-4.882090
-4.841002
-4.787274
-4.717971
-4.629719
-4.518736
-4.380879
-4.211720
-4.006634
-3.760903
-3.469832
-3.128924
-2.734185
-2.282725
-1.773097
-1.211226
-0.575637
0.000425
0.002562
21.088215
63.485504
129.958621
227.939113
353.790641
481.598296
604.950163
-3.000000
-3.000000
-3.000000
-3.000000
-3.000000
-3.000000
-3.000000
-3.000000
-4.973378
-4.969031
-4.961743
-4.949990
-4.932867
-4.909088
-4.876994
-4.834525
-4.779206
-4.708139
-4.618007
-4.505106
-4.365387
-4.194526
-3.988001
-3.741184
-3.449456
-3.108380
-2.714015
-2.263517
-1.755392
-1.195960
-0.559675
-0.001691
0.007658
22.507225
66.820365
137.348501
240.387341
372.708813
507.844539
640.223065
-4.975941
-4.971882
-4.965063
-4.954039
-4.937930
-4.915484
-4.885079
-4.844698
-4.791906
-4.723839
-4.637205
-4.528305
-4.393078
-4.227154
-4.025926
-3.784621
-3.498368
-3.162305
-2.771796
-2.322968
-1.813179
-1.246596
-0.604711
0.000136
0.002826
19.994524
63.055138
133.094653
237.007801
372.554307
512.932540
653.335754
-4.980329
-4.976849
-4.970982
-4.961451
-4.947438
-4.927777
-4.900940
-4.865009
-4.817643
-4.756051
-4.676985
-4.576747
-4.451233
-4.296008
-4.106419
-3.877754
-3.605405
-3.284976
-2.912174
-2.482264
-1.989070
-1.423451
-0.783021
-0.000454
-0.003105
10.008942
54.052195
123.267715
228.546690
368.436421
515.477048
665.768323
-4.982614
-4.979364
-4.973860
-4.964876
-4.951591
-4.932829
-4.907045
-4.872292
-4.826182
-4.765858
-4.687985
-4.588760
-4.463952
-4.308978
-4.119005
-3.889064
-3.614129
-3.289106
-2.908681
-2.467142
-1.958473
-1.379201
-0.724161
-0.003807
0.002005
13.954895
56.205108
124.567297
229.171853
370.665248
522.107666
681.182878
-4.986016
-4.983267
-4.978588
-4.970911
-4.959479
-4.943209
-4.920663
-4.890009
-4.848977
-4.794814
-4.724264
-4.633551
-4.518403
-4.374096
-4.195536
-3.977369
-3.714067
-3.399916
-3.028759
-2.593395
-2.084987
-1.493481
-0.817078
-0.006402
0.004159
10.858885
47.764324
114.331801
219.874328
365.833044
524.554657
695.501400
-4.987854
-4.985318
-4.980982
-4.973824
-4.963089
-4.947691
-4.926182
-4.896706
-4.856947
-4.804092
-4.734792
-4.645165
-4.530809
-4.386877
-4.208196
-3.989444
-3.725397
-3.411202
-3.042564
-2.615516
-2.125170
-1.559390
-0.914413
-0.000901
0.000268
6.720588
48.997964
115.233168
219.902162
367.266073
530.771589
712.558885
-4.990447
-4.988346
-4.984735
-4.978737
-4.969672
-4.956558
-4.938068
-4.912487
-4.877648
-4.830883
-4.768977
-4.688140
-4.584006
-4.451662
-4.285723
-4.080463
-3.830023
-3.528690
-3.171272
-2.753399
-2.271464
-1.719001
-1.096611
-0.224564
0.002970
4.137784
39.750483
104.174493
209.666628
361.571524
532.947629
729.120543
-4.991884
-4.989981
-4.986687
-4.981177
-4.972777
-4.960507
-4.943039
-4.918639
-4.885103
-4.839699
-4.779116
-4.699437
-4.596133
-4.464111
-4.297798
-4.091309
-3.838688
-3.534256
-3.173063
-2.751429
-2.267683
-1.721287
-1.126526
-0.410221
-0.000945
0.009574
41.998404
105.372649
209.159583
362.047007
538.523770
748.192035
-4.993778
-4.992238
-4.989559
-4.985045
-4.978103
-4.967866
-4.953143
-4.932357
-4.903484
-4.863973
-4.810696
-4.739894
-4.647159
-4.527443
-4.375106
-4.184011
-3.947672
-3.659490
-3.313094
-2.902875
-2.424841
-1.876705
-1.267519
-0.552971
0.002262
0.009145
31.642624
93.448408
197.938627
355.316246
540.174835
767.450783
-4.994859
-4.993495
-4.991103
-4.987036
-4.980715
-4.971283
-4.957556
-4.937951
-4.910411
-4.872332
-4.820488
-4.750983
-4.659224
-4.539935
-4.387216
-4.194665
-3.955583
-3.663272
-3.311484
-2.895030
-2.410662
-1.856900
-1.244825
-0.522154
-0.001830
0.007071
34.777259
94.909436
196.795836
354.592921
544.770136
789.005003
-4.996172
-4.995100
-4.993205
-4.989958
-4.984863
-4.977179
-4.965868
-4.949526
-4.926298
-4.893800
-4.849031
-4.788308
-4.707223
-4.600637
-4.462719
-4.287036
-4.066675
-3.794407
-3.462850
-3.064731
-2.593437
-2.043634
-1.417692
-0.694798
0.001768
0.007135
22.834270
82.114152
184.581806
346.621842
545.520037
811.535644
-4.996945
-4.996023
-4.994378
-4.991528
-4.986996
-4.980062
-4.969707
-4.954530
-4.932662
-4.901671
-4.858468
-4.799231
-4.719358
-4.613454
-4.475374
-4.298313
-4.074961
-3.797716
-3.459009
-3.051806
-2.570495
-2.011445
-1.380964
-0.648607
-0.002561
0.004290
26.987546
83.908533
182.725922
344.422953
548.653908
836.178968
-4.997802
-4.997100
-4.995836
-4.993628
-4.990077
-4.984580
-4.976268
-4.963932
-4.945930
-4.920088
-4.883593
-4.832898
-4.763643
-4.670619
-4.547789
-4.388384
-4.185096
-3.930331
-3.616461
-3.235917
-2.780861
-2.242473
-1.610328
-0.880002
0.001443
0.005251
13.032390
70.361923
169.565825
334.971645
547.949775
862.717015
-4.998321
-4.997740
-4.996683
-4.994810
-4.991750
-4.986931
-4.979514
-4.968311
-4.951685
-4.927432
-4.892662
-4.843694
-4.775965
-4.683994
-4.561415
-4.401081
-4.195236
-3.935726
-3.614164
-3.222057
-2.751023
-2.193317
-1.546392
-0.800168
-0.003408
0.001470
18.562386
72.615291
166.928550
330.981543
548.939423
891.238752
-4.998845
-4.998421
-4.997642
-4.996247
-4.993940
-4.990260
-4.984519
-4.975732
-4.962517
-4.942979
-4.914592
-4.874064
-4.817220
-4.738907
-4.632957
-4.492225
-4.308731
-4.073940
-3.779150
-3.415914
-2.976080
-2.450731
-1.822911
-1.085694
-0.001198
-0.004638
8.048508
58.636942
152.891827
319.699590
545.935496
922.725901
-4.999199
-4.998882
-4.998293
-4.997223
-4.995425
-4.992504
-4.987866
-4.980638
-4.969575
-4.952937
-4.928357
-4.892699
-4.841909
-4.770900
-4.673475
-4.542326
-4.369147
-4.144893
-3.860223
-3.506169
-3.074994
-2.561371
-1.961497
-1.288739
-0.429248
0.000072
1.749632
51.989759
143.640608
310.460433
542.858661
957.928448
-4.999434
-4.999191
-4.998730
-4.997879
-4.996418
-4.993990
-4.990045
-4.983752
-4.973896
-4.958738
-4.935857
-4.901974
-4.852779
-4.782794
-4.685298
-4.552383
-4.375169
-4.144237
-3.850276
-3.484928
-3.041683
-2.516660
-1.905839
-1.219638
-0.273139
-0.002434
3.770121
55.898751
140.071257
303.273398
538.707258
994.415325
-4.999639
-4.999473
-4.999155
-4.998558
-4.997516
-4.995756
-4.992846
-4.988127
-4.980615
-4.968877
-4.950884
-4.923836
-4.883977
-4.826423
-4.745016
-4.632254
-4.479321
-4.276267
-4.012369
-3.676742
-3.259247
-2.751892
-2.149292
-1.461280
-0.629819
-0.003289
0.005050
40.115611
124.872442
288.781887
529.932483
1035.888533
-4.999765
-4.999647
-4.999417
-4.998976
-4.998187
-4.996820
-4.994500
-4.990635
-4.984316
-4.974179
-4.958228
-4.933626
-4.896460
-4.841502
-4.762023
-4.649703
-4.494731
-4.286161
-4.012600
-3.663244
-3.229171
-2.704927
-2.088354
-1.395080
-0.553315
-0.003720
0.008129
45.694381
120.482001
278.802362
520.291120
1079.497551
-4.999861
-4.999786
-4.999636
-4.999345
-4.998813
-4.997873
-4.996243
-4.993475
-4.988859
-4.981314
-4.969228
-4.950263
-4.921134
-4.877370
-4.813088
-4.720831
-4.591513
-4.414507
-4.177916
-3.868997
-3.474782
-2.983054
-2.383504
-1.675589
-0.835354
-0.004162
0.000940
27.052199
104.722730
261.892630
505.258891
1129.846031
-4.999918
-4.999869
-4.999770
-4.999572
-4.999200
-4.998523
-4.997315
-4.995198
-4.991559
-4.985428
-4.975300
-4.958915
-4.932972
-4.892803
-4.832035
-4.742310
-4.613147
-4.432095
-4.185299
-3.858626
-3.439339
-2.918328
-2.291333
-1.569978
-0.711763
-0.004804
0.004821
35.825398
99.809761
248.888959
487.769044
1182.703703
-4.999956
-4.999927
-4.999868
-4.999747
-4.999514
-4.999080
-4.998284
-4.996855
-4.994340
-4.990003
-4.982678
-4.970574
-4.951019
-4.920158
-4.872628
-4.801248
-4.696829
-4.548169
-4.342362
-4.065428
-3.703131
-3.241466
-2.666207
-1.959094
-1.114107
-0.004673
-0.002906
13.307457
84.325567
229.551201
463.503204
1244.446736
-4.999977
-4.999960
-4.999925
-4.999851
-4.999704
-4.999421
-4.998884
-4.997885
-4.996066
-4.992818
-4.987138
-4.977415
-4.961142
-4.934530
-4.892049
-4.825921
-4.725662
-4.577820
-4.366126
-4.072346
-3.678106
-3.167862
-2.532130
-1.776530
-0.886518
-0.005635
0.001323
26.652848
78.923663
213.249623
435.695572
1324.772457
-4.999989
-4.999980
-4.999962
-4.999921
-4.999838
-4.999673
-4.999349
-4.998729
-4.997565
-4.995425
-4.991575
-4.984803
-4.973171
-4.953672
-4.921815
-4.871143
-4.792779
-4.675105
-4.503784
-4.262318
-3.933362
-3.500819
-2.952794
-2.282334
-1.509411
-0.524733
-0.005607
0.009712
65.090687
191.397428
403.792229
1346.091923
-4.999995
-4.999991
-4.999981
-4.999960
-4.999914
-4.999819
-4.999626
-4.999242
-4.998491
-4.997054
-4.994363
-4.989436
-4.980623
-4.965234
-4.939034
-4.895582
-4.825466
-4.715526
-4.548262
-4.301788
-3.950827
-3.469463
-2.836135
-2.042706
-1.096403
-0.006199
-0.001975
18.612339
59.074056
172.805248
371.944608
1302.925563
-4.999998
-4.999996
-4.999992
-4.999982
-4.999959
-4.999911
-4.999809
-4.999597
-4.999167
-4.998314
-4.996658
-4.993516
-4.987700
-4.977201
-4.958750
-4.927215
-4.874883
-4.790703
-4.659694
-4.462856
-4.178015
-3.782030
-3.254727
-2.582573
-1.776616
-0.776204
-0.007344
0.005437
47.758486
151.834173
337.864723
1254.296188
-4.999999
-4.999999
-4.999997
-4.999992
-4.999982
-4.999959
-4.999907
-4.999796
-4.999559
-4.999065
-4.998062
-4.996066
-4.992193
-4.984862
-4.971346
-4.947105
-4.904869
-4.833484
-4.716634
-4.531698
-4.249153
-3.833073
-3.243698
-2.440101
-1.420025
-0.006493
-0.004715
11.932000
41.378567
133.260001
304.220268
1202.291026
-5.000000
-5.000000
-4.999999
-4.999997
-4.999993
-4.999983
-4.999961
-4.999909
-4.999795
-4.999545
-4.999011
-4.997901
-4.995648
-4.991190
-4.982611
-4.966568
-4.937466
-4.886344
-4.799558
-4.657531
-4.434122
-4.097545
-3.614082
-2.954768
-2.112226
-1.066473
-0.008315
0.000889
32.385685
113.620109
268.855564
1143.399072
-5.000000
-5.000000
-5.000000
-4.999999
-4.999998
-4.999994
-4.999985
-4.999964
-4.999913
-4.999796
-4.999533
-4.998953
-4.997707
-4.995097
-4.989778
-4.979239
-4.958975
-4.921218
-4.853184
-4.734893
-4.536965
-4.219270
-3.731990
-3.018720
-2.046773
-0.610638
-0.005883
6.716330
26.361546
95.861654
234.143112
1079.890451
-5.000000
-5.000000
-5.000000
-5.000000
-4.999999
-4.999998
-4.999995
-4.999988
-4.999969
-4.999923
-4.999812
-4.999553
-4.998960
-4.997638
-4.994775
-4.988748
-4.976439
-4.952095
-4.905550
-4.819701
-4.667341
-4.408004
-3.986474
-3.335022
-2.396403
-1.028066
-0.001328
4.657080
19.932212
78.175463
198.378807
1007.451629
-5.000000
-5.000000
-5.000000
-5.000000
-5.000000
-5.000000
-4.999999
-4.999997
-4.999991
-4.999975
-4.999936
-4.999836
-4.999591
-4.999006
-4.997647
-4.994583
-4.987884
-4.973708
-4.944738
-4.887669
-4.779551
-4.583057
-4.241517
-3.676204
-2.794757
-1.478105
-0.004970
2.997018
14.484121
62.014726
163.852596
928.726852
-5.000000
-5.000000
-5.000000
-5.000000
-5.000000
-5.000000
-5.000000
-4.999999
-4.999998
-4.999994
-4.999983
-4.999953
-4.999872
-4.999663
-4.999136
-4.997844
-4.994777
-4.987734
-4.972122
-4.938809
-4.870563
-4.736739
-4.486345
-4.040748
-3.285996
-2.091987
-0.091873
1.666414
9.785782
46.781945
129.309383
838.247069
-5.000000
-5.000000
-5.000000
-5.000000
-5.000000
-5.000000
-5.000000
-5.000000
-5.000000
-4.999999
-4.999997
-4.999990
-4.999969
-4.999911
-4.999750
-4.999315
-4.998176
-4.995292
-4.988248
-4.971692
-4.934353
-4.853839
-4.688532
-4.367043
-3.777624
-2.777148
-1.096248
0.735129
6.087495
33.485528
97.184297
739.139487
-5.000000
-5.000000
-5.000000
-5.000000
-5.000000
-5.000000
-5.000000
-5.000000
-5.000000
-5.000000
-5.000000
-4.999999