<?xml version='1.0' encoding='UTF-8'?>
<VTKFile xmlns='VTK' byte_order='LittleEndian' version='0.1' type='UnstructuredGrid'>
<UnstructuredGrid>
<Piece NumberOfCells='1816' NumberOfPoints='1816'>
<Points>
<DataArray NumberOfComponents='3' type='Float32' Name='Position' format='ascii'>
0.970000 0.400000 0.000000
0.970000 0.412500 0.000000
0.970000 0.425000 0.000000
0.970000 0.437500 0.000000
0.970000 0.450000 0.000000
0.970000 0.462500 0.000000
0.970000 0.475000 0.000000
0.970000 0.487500 0.000000
1.007500 0.400000 0.000000
1.007500 0.412500 0.000000
1.007500 0.425000 0.000000
1.007500 0.437500 0.000000
1.007500 0.450000 0.000000
1.007500 0.462500 0.000000
1.007500 0.475000 0.000000
1.007500 0.487500 0.000000
0.025000 0.000000 0.000000
0.025000 0.012500 0.000000
0.025000 0.025000 0.000000
0.025000 0.037500 0.000000
0.025000 0.050000 0.000000
0.025000 0.062500 0.000000
0.025000 0.075000 0.000000
0.025000 0.087500 0.000000
0.025000 0.100000 0.000000
0.025000 0.112500 0.000000
0.025000 0.125000 0.000000
0.025000 0.137500 0.000000
0.025000 0.150000 0.000000
0.025000 0.162500 0.000000
0.025000 0.175000 0.000000
0.025000 0.187500 0.000000
0.025000 0.200000 0.000000
0.025000 0.212500 0.000000
0.025000 0.225000 0.000000
0.025000 0.237500 0.000000
0.025000 0.250000 0.000000
0.025000 0.262500 0.000000
0.025000 0.275000 0.000000
0.025000 0.287500 0.000000
0.025000 0.300000 0.000000
0.025000 0.312500 0.000000
0.025000 0.325000 0.000000
0.025000 0.337500 0.000000
0.025000 0.350000 0.000000
0.025000 0.362500 0.000000
0.025000 0.375000 0.000000
0.025000 0.387500 0.000000
1.045000 0.400000 0.000000
1.045000 0.412500 0.000000
1.045000 0.425000 0.000000
1.045000 0.437500 0.000000
1.045000 0.450000 0.000000
1.045000 0.462500 0.000000
1.045000 0.475000 0.000000
1.045000 0.487500 0.000000
0.062500 0.000000 0.000000
0.062500 0.012500 0.000000
0.062500 0.025000 0.000000
0.062500 0.037500 0.000000
0.062500 0.050000 0.000000
0.062500 0.062500 0.000000
0.062500 0.075000 0.000000
0.062500 0.087500 0.000000
0.062500 0.100000 0.000000
0.062500 0.112500 0.000000
0.062500 0.125000 0.000000
0.062500 0.137500 0.000000
0.062500 0.150000 0.000000
0.062500 0.162500 0.000000
0.062500 0.175000 0.000000
0.062500 0.187500 0.000000
0.062500 0.200000 0.000000
0.062500 0.212500 0.000000
0.062500 0.225000 0.000000
0.062500 0.237500 0.000000
0.062500 0.250000 0.000000
0.062500 0.262500 0.000000
0.062500 0.275000 0.000000
0.062500 0.287500 0.000000
0.062500 0.300000 0.000000
0.062500 0.312500 0.000000
0.062500 0.325000 0.000000
0.062500 0.337500 0.000000
0.062500 0.350000 0.000000
0.062500 0.362500 0.000000
0.062500 0.375000 0.000000
0.062500 0.387500 0.000000
1.082500 0.400000 0.000000
1.082500 0.412500 0.000000
1.082500 0.425000 0.000000
1.082500 0.437500 0.000000
1.082500 0.450000 0.000000
1.082500 0.462500 0.000000
1.082500 0.475000 0.000000
1.082500 0.487500 0.000000
0.100000 0.000000 0.000000
0.100000 0.012500 0.000000
0.100000 0.025000 0.000000
0.100000 0.037500 0.000000
0.100000 0.050000 0.000000
0.100000 0.062500 0.000000
0.100000 0.075000 0.000000
0.100000 0.087500 0.000000
0.100000 0.100000 0.000000
0.100000 0.112500 0.000000
0.100000 0.125000 0.000000
0.100000 0.137500 0.000000
0.100000 0.150000 0.000000
0.100000 0.162500 0.000000
0.100000 0.175000 0.000000
0.100000 0.187500 0.000000
0.100000 0.200000 0.000000
0.100000 0.212500 0.000000
0.100000 0.225000 0.000000
0.100000 0.237500 0.000000
0.100000 0.250000 0.000000
0.100000 0.262500 0.000000
0.100000 0.275000 0.000000
0.100000 0.287500 0.000000
0.100000 0.300000 0.000000
0.100000 0.312500 0.000000
0.100000 0.325000 0.000000
0.100000 0.337500 0.000000
0.100000 0.350000 0.000000
0.100000 0.362500 0.000000
0.100000 0.375000 0.000000
0.100000 0.387500 0.000000
1.120000 0.400000 0.000000
1.120000 0.412500 0.000000
1.120000 0.425000 0.000000
1.120000 0.437500 0.000000
1.120000 0.450000 0.000000
1.120000 0.462500 0.000000
1.120000 0.475000 0.000000
1.120000 0.487500 0.000000
0.137500 0.000000 0.000000
0.137500 0.012500 0.000000
0.137500 0.025000 0.000000
0.137500 0.037500 0.000000
0.137500 0.050000 0.000000
0.137500 0.062500 0.000000
0.137500 0.075000 0.000000
0.137500 0.087500 0.000000
0.137500 0.100000 0.000000
0.137500 0.112500 0.000000
0.137500 0.125000 0.000000
0.137500 0.137500 0.000000
0.137500 0.150000 0.000000
0.137500 0.162500 0.000000
0.137500 0.175000 0.000000
0.137500 0.187500 0.000000
0.137500 0.200000 0.000000
0.137500 0.212500 0.000000
0.137500 0.225000 0.000000
0.137500 0.237500 0.000000
0.137500 0.250000 0.000000
0.137500 0.262500 0.000000
0.137500 0.275000 0.000000
0.137500 0.287500 0.000000
0.137500 0.300000 0.000000
0.137500 0.312500 0.000000
0.137500 0.325000 0.000000
0.137500 0.337500 0.000000
0.137500 0.350000 0.000000
0.137500 0.362500 0.000000
0.137500 0.375000 0.000000
0.137500 0.387500 0.000000
1.157500 0.400000 0.000000
1.157500 0.412500 0.000000
1.157500 0.425000 0.000000
1.157500 0.437500 0.000000
1.157500 0.450000 0.000000
1.157500 0.462500 0.000000
1.157500 0.475000 0.000000
1.157500 0.487500 0.000000
0.175000 0.000000 0.000000
0.175000 0.012500 0.000000
0.175000 0.025000 0.000000
0.175000 0.037500 0.000000
0.175000 0.050000 0.000000
0.175000 0.062500 0.000000
0.175000 0.075000 0.000000
0.175000 0.087500 0.000000
0.175000 0.100000 0.000000
0.175000 0.112500 0.000000
0.175000 0.125000 0.000000
0.175000 0.137500 0.000000
0.175000 0.150000 0.000000
0.175000 0.162500 0.000000
0.175000 0.175000 0.000000
0.175000 0.187500 0.000000
0.175000 0.200000 0.000000
0.175000 0.212500 0.000000
0.175000 0.225000 0.000000
0.175000 0.237500 0.000000
0.175000 0.250000 0.000000
0.175000 0.262500 0.000000
0.175000 0.275000 0.000000
0.175000 0.287500 0.000000
0.175000 0.300000 0.000000
0.175000 0.312500 0.000000
0.175000 0.325000 0.000000
0.175000 0.337500 0.000000
0.175000 0.350000 0.000000
0.175000 0.362500 0.000000
0.175000 0.375000 0.000000
0.175000 0.387500 0.000000
1.195000 0.400000 0.000000
1.195000 0.412500 0.000000
1.195000 0.425000 0.000000
1.195000 0.437500 0.000000
1.195000 0.450000 0.000000
1.195000 0.462500 0.000000
1.195000 0.475000 0.000000
1.195000 0.487500 0.000000
0.212500 0.000000 0.000000
0.212500 0.012500 0.000000
0.212500 0.025000 0.000000
0.212500 0.037500 0.000000
0.212500 0.050000 0.000000
0.212500 0.062500 0.000000
0.212500 0.075000 0.000000
0.212500 0.087500 0.000000
0.212500 0.100000 0.000000
0.212500 0.112500 0.000000
0.212500 0.125000 0.000000
0.212500 0.137500 0.000000
0.212500 0.150000 0.000000
0.212500 0.162500 0.000000
0.212500 0.175000 0.000000
0.212500 0.187500 0.000000
0.212500 0.200000 0.000000
0.212500 0.212500 0.000000
0.212500 0.225000 0.000000
0.212500 0.237500 0.000000
0.212500 0.250000 0.000000
0.212500 0.262500 0.000000
0.212500 0.275000 0.000000
0.212500 0.287500 0.000000
0.212500 0.300000 0.000000
0.212500 0.312500 0.000000
0.212500 0.325000 0.000000
0.212500 0.337500 0.000000
0.212500 0.350000 0.000000
0.212500 0.362500 0.000000
0.212500 0.375000 0.000000
0.212500 0.387500 0.000000
1.232500 0.400000 0.000000
1.232500 0.412500 0.000000
1.232500 0.425000 0.000000
1.232500 0.437500 0.000000
1.232500 0.450000 0.000000
1.232500 0.462500 0.000000
1.232500 0.475000 0.000000
1.232500 0.487500 0.000000
0.250000 0.000000 0.000000
0.250000 0.012500 0.000000
0.250000 0.025000 0.000000
0.250000 0.037500 0.000000
0.250000 0.050000 0.000000
0.250000 0.062500 0.000000
0.250000 0.075000 0.000000
0.250000 0.087500 0.000000
0.250000 0.100000 0.000000
0.250000 0.112500 0.000000
0.250000 0.125000 0.000000
0.250000 0.137500 0.000000
0.250000 0.150000 0.000000
0.250000 0.162500 0.000000
0.250000 0.175000 0.000000
0.250000 0.187500 0.000000
0.250000 0.200000 0.000000
0.250000 0.212500 0.000000
0.250000 0.225000 0.000000
0.250000 0.237500 0.000000
0.250000 0.250000 0.000000
0.250000 0.262500 0.000000
0.250000 0.275000 0.000000
0.250000 0.287500 0.000000
0.250000 0.300000 0.000000
0.250000 0.312500 0.000000
0.250000 0.325000 0.000000
0.250000 0.337500 0.000000
0.250000 0.350000 0.000000
0.250000 0.362500 0.000000
0.250000 0.375000 0.000000
0.250000 0.387500 0.000000
1.270000 0.400000 0.000000
1.270000 0.412500 0.000000
1.270000 0.425000 0.000000
1.270000 0.437500 0.000000
1.270000 0.450000 0.000000
1.270000 0.462500 0.000000
1.270000 0.475000 0.000000
1.270000 0.487500 0.000000
0.287500 0.000000 0.000000
0.287500 0.012500 0.000000
0.287500 0.025000 0.000000
0.287500 0.037500 0.000000
0.287500 0.050000 0.000000
0.287500 0.062500 0.000000
0.287500 0.075000 0.000000
0.287500 0.087500 0.000000
0.287500 0.100000 0.000000
0.287500 0.112500 0.000000
0.287500 0.125000 0.000000
0.287500 0.137500 0.000000
0.287500 0.150000 0.000000
0.287500 0.162500 0.000000
0.287500 0.175000 0.000000
0.287500 0.187500 0.000000
0.287500 0.200000 0.000000
0.287500 0.212500 0.000000
0.287500 0.225000 0.000000
0.287500 0.237500 0.000000
0.287500 0.250000 0.000000
0.287500 0.262500 0.000000
0.287500 0.275000 0.000000
0.287500 0.287500 0.000000
0.287500 0.300000 0.000000
0.287500 0.312500 0.000000
0.287500 0.325000 0.000000
0.287500 0.337500 0.000000
0.287500 0.350000 0.000000
0.287500 0.362500 0.000000
0.287500 0.375000 0.000000
0.287500 0.387500 0.000000
1.307500 0.400000 0.000000
1.307500 0.412500 0.000000
1.307500 0.425000 0.000000
1.307500 0.437500 0.000000
1.307500 0.450000 0.000000
1.307500 0.462500 0.000000
1.307500 0.475000 0.000000
1.307500 0.487500 0.000000
0.325000 0.000000 0.000000
0.325000 0.012500 0.000000
0.325000 0.025000 0.000000
0.325000 0.037500 0.000000
0.325000 0.050000 0.000000
0.325000 0.062500 0.000000
0.325000 0.075000 0.000000
0.325000 0.087500 0.000000
0.325000 0.100000 0.000000
0.325000 0.112500 0.000000
0.325000 0.125000 0.000000
0.325000 0.137500 0.000000
0.325000 0.150000 0.000000
0.325000 0.162500 0.000000
0.325000 0.175000 0.000000
0.325000 0.187500 0.000000
0.325000 0.200000 0.000000
0.325000 0.212500 0.000000
0.325000 0.225000 0.000000
0.325000 0.237500 0.000000
0.325000 0.250000 0.000000
0.325000 0.262500 0.000000
0.325000 0.275000 0.000000
[...]
<PointData>
<DataArray NumberOfComponents='1' type='Int32' Name='ParticleType' format='ascii'>
5
5
5
5
5
5
5
5
5
5
5
5
5
5
5
5
2
2
2
2
2
2
2
2
2
2
2
2
2
2
2
2
2
2
2
2
2
2
2
2
2
1
1
0
0
0
0
0
5
5
5
5
5
5
5
5
2
2
2
2
2
2
2
2
2
2
2
2
2
2
2
2
2
2
2
2
2
2
2
2
2
1
1
0
0
0
0
0
5
5
5
5
5
5
5
5
2
2
2
2
2
2
2
2
2
2
2
2
2
2
2
2
2
2
2
2
2
2
2
2
2
1
1
0
0
0
0
0
5
5
5
5
5
5
5
5
2
2
2
2
2
2
2
2
2
2
2
2
2
2
2
2
2
2
2
2
2
2
2
2
1
1
0
0
0
0
0
0
5
5
5
5
5
5
5
5
2
2
2
2
2
2
2
2
2
2
2
2
2
2
2
2
2
2
2
2
2
2
2
2
1
1
0
0
0
0
0
0
5
5
5
5
5
5
5
5
2
2
2
2
2
2
2
2
2
2
2
2
2
2
2
2
2
2
2
2
2
2
2
2
2
1
0
0
0
0
0
0
5
5
5
5
5
5
5
5
2
2
2
2
2
2
2
2
2
2
2
2
2
2
2
2
2
2
2
2
2
2
2
2
1
1
0
0
0
0
0
0
5
5
5
5
5
5
5
5
2
2
2
2
2
2
2
2
2
2
2
2
2
2
2
2
2
2
2
2
2
2
2
2
1
1
0
0
0
0
0
0
5
5
5
5
5
5
5
5
2
2
2
2
2
2
2
2
2
2
2
2
2
2
2
2
2
2
2
2
2
2
2
2
1
1
0
0
0
0
0
0
5
5
5
5
5
5
5
5
2
2
2
2
2
2
2
2
2
2
2
2
2
2
2
2
2
2
2
2
2
2
2
2
1
1
0
0
0
0
0
0
5
5
5
5
5
5
5
5
2
2
2
2
2
2
2
2
2
2
2
2
2
2
2
2
2
2
2
2
2
2
2
2
1
1
0
0
0
0
0
0
5
5
5
5
5
5
5
5
2
2
2
2
2
2
2
2
2
2
2
2
2
2
2
2
2
2
2
2
2
2
2
2
1
1
0
0
0
0
0
0
5
5
5
5
5
5
5
5
2
2
2
2
2
2
2
2
2
2
2
2
2
2
2
2
2
2
2
2
2
2
2
2
1
1
0
0
0
0
0
0
5
5
5
5
5
5
5
5
2
2
2
2
2
2
2
2
2
2
2
2
2
2
2
2
2
2
2
2
2
2
2
2
1
1
0
0
0
0
0
0
2
2
2
2
2
2
2
2
2
2
2
2
2
2
2
2
2
2
2
2
2
2
2
2
1
1
0
0
0
0
0
0
2
2
2
2
2
2
2
2
2
2
2
2
2
2
2
2
2
2
2
2
2
2
2
2
1
1
0
0
0
0
0
0
2
2
2
2
2
2
2
2
2
2
2
2
2
2
2
2
2
2
2
2
2
2
2
2
1
1
0
0
0
0
0
0
2
2
2
2
2
2
2
2
2
2
2
2
2
2
2
2
2
2
2
2
2
2
2
2
2
1
0
0
0
0
0
0
2
2
2
2
2
2
2
2
2
2
2
2
2
2
2
2
2
2
2
2
2
2
2
2
1
1
0
0
0
0
0
0
2
2
2
2
2
2
2
2
2
2
2
2
2
2
2
2
2
2
2
2
2
2
2
2
2
1
1
0
0
0
0
0
2
2
2
2
2
2
2
2
2
2
2
2
2
2
2
2
2
2
2
2
2
2
2
2
2
1
1
0
0
0
0
0
2
2
2
2
2
2
2
2
2
2
2
2
2
2
2
2
2
2
2
2
2
2
2
2
2
1
1
0
0
0
0
0
2
2
2
2
2
2
2
2
2
2
2
2
2
2
2
2
2
2
2
2
2
2
2
2
2
1
1
0
0
0
0
0
2
2
2
2
2
2
2
2
2
2
2
2
2
2
2
2
2
2
2
2
2
2
2
2
2
1
1
0
0
0
0
0
2
2
2
2
2
2
2
2
2
2
2
2
2
2
2
2
2
2
2
2
2
2
2
2
2
1
1
0
0
0
0
0
2
2
2
2
2
2
2
2
2
2
2
2
2
2
2
2
2
2
2
2
2
2
2
2
2
2
1
0
0
0
0
0
2
2
2
2
2
2
2
2
2
2
2
2
2
2
2
2
2
2
2
2
2
2
2
2
2
1
1
0
0
0
0
0
2
2
2
2
2
2
2
2
2
2
2
2
2
2
2
2
2
2
2
2
2
2
2
2
2
2
1
1
0
0
0
0
2
2
2
2
2
2
2
2
2
2
2
2
2
2
2
2
2
2
2
2
2
2
2
2
2
2
1
1
0
0
0
0
2
2
2
2
2
2
2
2
2
2
2
2
2
2
2
2
2
2
2
2
2
2
2
2
2
1
1
0
0
0
0
0
2
2
2
2
2
2
2
2
2
2
2
2
2
2
2
2
2
2
2
2
2
2
2
2
2
2
1
1
0
0
0
0
2
2
2
2
2
2
2
2
2
2
2
2
2
2
2
2
2
2
2
2
2
2
2
2
2
2
1
0
0
0
0
0
2
2
2
2
2
2
2
2
2
2
2
2
2
2
2
2
2
2
2
2
2
2
2
2
2
2
1
1
0
0
0
0
2
2
2
2
2
2
2
2
2
2
2
2
2
2
2
2
2
2
2
2
2
2
2
2
2
2
1
0
0
0
0
0
2
2
2
2
2
2
2
2
2
2
2
2
2
2
2
2
2
2
2
2
2
2
2
2
2
2
2
1
0
0
0
0
2
2
2
2
2
2
2
2
2
2
2
2
2
2
2
2
2
2
2
2
2
2
2
2
2
2
2
0
0
0
0
0
2
2
2
2
2
2
2
2
2
2
2
2
2
2
2
2
2
2
2
2
2
2
2
2
2
2
2
1
0
0
0
0
2
2
2
2
2
2
2
2
2
2
2
2
2
2
2
2
2
2
2
2
2
2
2
2
2
2
2
2
0
0
0
0
2
2
2
2
2
2
2
2
2
2
2
2
2
2
2
2
2
2
2
2
2
2
2
2
2
2
2
2
0
0
0
0
2
2
2
2
2
2
2
2
2
2
2
2
2
2
2
2
2
2
2
2
2
2
2
2
2
2
2
2
2
0
0
0
2
2
2
2
2
2
2
2
2
2
2
2
2
2
2
2
2
2
2
2
2
2
2
2
2
2
2
2
2
2
2
2
2
2
2
2
2
2
2
2
2
2
2
2
2
2
2
2
2
2
2
2
2
2
2
2
2
2
2
2
2
2
2
2
2
2
2
2
2
2
2
2
2
2
2
2
2
2
2
2
2
2
2
2
2
2
2
2
2
2
2
2
2
2
2
2
2
2
2
2
2
2
2
2
2
2
2
2
2
2
2
2
2
2
2
2
2
2
2
2
2
2
2
2
2
2
2
2
2
2
2
2
2
2
2
2
2
2
2
2
2
2
2
2
2
2
2
2
2
2
2
2
2
2
2
2
2
2
2
2
2
2
2
2
2
2
2
2
2
2
2
2
2
2
2
2
2
2
2
2
2
2
2
2
2
2
2
2
2
2
2
2
2
2
2
2
2
2
2
2
2
2
2
2
2
2
2
2
2
2
2
2
2
2
2
2
2
2
2
2
2
2
2
2
2
2
2
2
2
2
2
2
2
2
2
2
2
2
2
2
2
2
2
2
2
2
2
2
2
2
2
2
2
2
2
2
2
2
2
2
2
2
2
2
2
2
2
2
2
2
2
2
2
2
2
2
2
2
2
2
2
2
2
2
2
2
2
2
2
2
2
2
2
2
2
2
2
2
2
2
2
2
2
2
2
2
2
2
2
2
2
2
2
2
2
2
2
2
2
2
2
2
2
2
2
2
2
2
2
2
2
2
2
2
2
2
2
2
2
2
2
2
2
2
2
2
2
2
2
2
2
2
2
2
2
2
2
2
2
2
2
2
2
2
2
2
2
2
2
2
2
2
2
2
2
2
2
2
2
2
2
2
2
2
2
2
2
2
2
2
2
2
2
2
2
2
2
2
2
2
2
2
2
2
2
2
2
2
2
2
2
2
2
2
2
2
</DataArray>
<DataArray NumberOfComponents='1' type='Float32' Name='Temperature' format='ascii'>
-3.000000
-3.000000
-3.000000
-3.000000
-3.000000
-3.000000
-3.000000
-3.000000
-3.000000
-3.000000
-3.000000
-3.000000
-3.000000
-3.000000
-3.000000
-3.000000
-4.996651
-4.995729
-4.994102
-4.991322
-4.986968
-4.980419
-4.970802
-4.956935
-4.937263
-4.909783
-4.871978
-4.820763
-4.752450
-4.662764
-4.546897
-4.399631
-4.215522
-3.989118
-3.715158
-3.388643
-3.004667
-2.557971
-2.042730
-1.452990
-0.795776
-0.006049
-0.000875
8.276898
31.311954
60.158979
90.309768
120.605164
-3.000000
-3.000000
-3.000000
-3.000000
-3.000000
-3.000000
-3.000000
-3.000000
-4.996574
-4.995627
-4.993954
-4.991091
-4.986605
-4.979847
-4.969909
-4.955558
-4.935165
-4.906623
-4.867268
-4.813806
-4.742258
-4.647938
-4.525476
-4.368911
-4.171878
-3.927912
-3.630898
-3.275663
-2.858701
-2.379030
-1.838320
-1.246969
-0.584086
-0.001965
0.004688
21.804801
50.852281
91.118428
134.252227
178.867108
-3.000000
-3.000000
-3.000000
-3.000000
-3.000000
-3.000000
-3.000000
-3.000000
-4.996531
-4.995569
-4.993870
-4.990962
-4.986402
-4.979532
-4.969428
-4.954836
-4.934105
-4.905100
-4.865131
-4.810884
-4.738368
-4.642903
-4.519143
-4.361174
-4.162685
-3.917254
-3.618764
-3.261967
-2.843176
-2.361131
-1.816926
-1.222181
-0.542697
-0.004943
0.004826
26.930853
65.432144
118.389447
175.349028
234.877852
-3.000000
-3.000000
-3.000000
-3.000000
-3.000000
-3.000000
-3.000000
-3.000000
-4.996505
-4.995534
-4.993818
-4.990880
-4.986271
-4.979323
-4.969096
-4.954317
-4.933300
-4.903868
-4.863269
-4.808106
-4.734284
-4.636996
-4.510758
-4.349515
-4.146838
-3.896198
-3.591290
-3.226244
-2.795338
-2.291607
-1.700515
-1.016890
-0.003358
-0.003460
6.251268
35.158322
81.345309
146.026488
216.496677
291.467506
-3.000000
-3.000000
-3.000000
-3.000000
-3.000000
-3.000000
-3.000000
-3.000000
-4.996492
-4.995516
-4.993791
-4.990837
-4.986201
-4.979208
-4.968909
-4.954017
-4.932824
-4.903123
-4.862118
-4.806353
-4.731657
-4.633128
-4.505157
-4.341528
-4.135551
-3.880223
-3.568293
-3.192103
-2.743119
-2.211601
-1.587174
-0.871939
-0.002510
0.003889
10.401366
42.460329
95.691005
171.382939
254.856016
345.193510
-3.000000
-3.000000
-3.000000
-3.000000
-3.000000
-3.000000
-3.000000
-3.000000
-4.996485
-4.995506
-4.993776
-4.990812
-4.986158
-4.979137
-4.968793
-4.953827
-4.932518
-4.902636
-4.861358
-4.805187
-4.729907
-4.630564
-4.501512
-4.336542
-4.129113
-3.872685
-3.561170
-3.189405
-2.753462
-2.250334
-1.672945
-1.023876
-0.073469
0.003454
5.124977
47.984136
109.080189
196.236915
293.163746
399.924409
-3.000000
-3.000000
-3.000000
-3.000000
-3.000000
-3.000000
-3.000000
-3.000000
-4.996482
-4.995501
-4.993768
-4.990798
-4.986134
-4.979096
-4.968723
-4.953710
-4.932325
-4.902325
-4.860864
-4.804420
-4.728740
-4.628823
-4.498959
-4.332833
-4.123696
-3.864558
-3.548320
-3.167706
-2.714935
-2.181465
-1.559195
-0.847092
-0.009041
0.000303
12.301104
54.311199
121.526919
219.033780
328.865731
452.103361
-3.000000
-3.000000
-3.000000
-3.000000
-3.000000
-3.000000
-3.000000
-3.000000
-4.996480
-4.995498
-4.993763
-4.990790
-4.986120
-4.979071
-4.968679
-4.953634
-4.932199
-4.902116
-4.860524
-4.803874
-4.727869
-4.627433
-4.496719
-4.329159
-4.117545
-3.854132
-3.530751
-3.139029
-2.670997
-2.120208
-1.487015
-0.764208
-0.007894
-0.001553
17.668553
60.530584
133.617093
241.506037
364.695782
505.787427
-3.000000
-3.000000
-3.000000
-3.000000
-3.000000
-3.000000
-3.000000
-3.000000
-4.996479
-4.995497
-4.993761
-4.990786
-4.986113
-4.979058
-4.968655
-4.953593
-4.932128
-4.901996
-4.860324
-4.803546
-4.727337
-4.626574
-4.495339
-4.326951
-4.114036
-3.848633
-3.522356
-3.126738
-2.654049
-2.098511
-1.462356
-0.734153
0.000924
0.000375
19.794947
65.329252
144.113199
261.921916
398.031865
557.200647
-3.000000
-3.000000
-3.000000
-3.000000
-3.000000
-3.000000
-3.000000
-3.000000
-4.996479
-4.995496
-4.993760
-4.990783
-4.986108
-4.979048
-4.968638
-4.953563
-4.932074
-4.901903
-4.860165
-4.803278
-4.726890
-4.625840
-4.494146
-4.325038
-4.111028
-3.844037
-3.515615
-3.117398
-2.642061
-2.084490
-1.448490
-0.717669
-0.008545
0.004587
21.728044
69.857703
154.195262
282.043267
431.612769
610.641536
-3.000000
-3.000000
-3.000000
-3.000000
-3.000000
-3.000000
-3.000000
-3.000000
-4.996479
-4.995497
-4.993760
-4.990783
-4.986107
-4.979047
-4.968634
-4.953553
-4.932053
-4.901861
-4.860087
-4.803136
-4.726640
-4.625409
-4.493420
-4.323847
-4.109131
-3.841122
-3.511333
-3.111438
-2.634276
-2.074956
-1.438026
-0.703361
-0.008594
0.008158
23.218372
73.670801
163.015860
300.249553
462.761606
662.044422
-3.000000
-3.000000
-3.000000
-3.000000
-3.000000
-3.000000
-3.000000
-3.000000
-4.996485
-4.995504
-4.993770
-4.990797
-4.986128
-4.979075
-4.968673
-4.953604
-4.932116
-4.901933
-4.860158
-4.803194
-4.726673
-4.625425
-4.493494
-4.324203
-4.110278
-3.843997
-3.517377
-3.122424
-2.651677
-2.098985
-1.465324
-0.735620
-0.002315
0.007540
20.707997
75.967232
170.844519
317.941719
494.087300
715.958972
-3.000000
-3.000000
-3.000000
-3.000000
-3.000000
-3.000000
-3.000000
-3.000000
-4.996506
-4.995527
-4.993794
-4.990820
-4.986142
-4.979063
-4.968597
-4.953394
-4.931639
-4.900951
-4.858260
-4.799695
-4.720473
-4.614835
-4.476044
-4.296500
-4.068012
-3.782298
-3.431716
-3.010224
-2.514584
-1.944457
-1.312052
-0.575051
-0.005796
0.004481
31.853748
81.939744
177.975678
332.629647
521.580155
766.846564
-3.000000
-3.000000
-3.000000
-3.000000
-3.000000
-3.000000
-3.000000
-3.000000
-4.996414
-4.995372
-4.993522
-4.990336
-4.985302
-4.977658
-4.966327
-4.949844
-4.926264
-4.893076
-4.847107
-4.784454
-4.700429
-4.589553
-4.445597
-4.261688
-4.030510
-3.744611
-3.396880
-2.981235
-2.493637
-1.932299
-1.307164
-0.576572
0.002004
0.004599
31.319818
88.823334
188.688111
348.682833
546.921031
814.947735
-4.997063
-4.996166
-4.994561
-4.991776
-4.987336
-4.980527
-4.970333
-4.955358
-4.933732
-4.903021
-4.860130
-4.801227
-4.721702
-4.616159
-4.478467
-4.301871
-4.079147
-3.802815
-3.465425
-3.059994
-2.580792
-2.023917
-1.394682
-0.666004
-0.004519
0.003968
25.544947
82.922454
181.653675
343.632557
548.804746
839.583884
-4.997889
-4.997207
-4.995980
-4.993832
-4.990372
-4.985006
-4.976875
-4.964785
-4.947108
-4.921685
-4.885721
-4.835680
-4.767213
-4.675113
-4.553339
-4.395112
-4.193108
-3.939726
-3.627370
-3.248568
-2.795656
-2.259937
-1.630211
-0.902432
-0.008855
-0.001239
12.280470
69.535392
168.485854
334.065103
547.970065
866.419215
-4.998391
-4.997830
-4.996806
-4.994989
-4.992015
-4.987320
-4.980079
-4.969119
-4.952818
-4.928988
-4.894757
-4.846450
-4.779510
-4.688450
-4.566885
-4.407640
-4.202933
-3.944584
-3.624196
-3.233248
-2.763246
-2.206161
-1.558630
-0.811693
-0.003200
0.001295
17.969747
71.861618
165.815855
329.954814
548.791130
895.235510
-4.998892
-4.998482
-4.997725
-4.996368
-4.994118
-4.990519
-4.984891
-4.976254
-4.963229
-4.943924
-4.915808
-4.875574
-4.819021
-4.740958
-4.635166
-4.494442
-4.310756
-4.075560
-3.780262
-3.416885
-2.978864
-2.462139
-1.863978
-1.201764
-0.359170
0.003744
1.197350
57.774372
151.778956
318.617571
545.637907
927.103022
-4.999201
-4.998879
-4.998278
-4.997181
-4.995328
-4.992300
-4.987463
-4.979879
-4.968202
-4.950540
-4.924311
-4.886086
-4.831441
-4.754858
-4.649699
-4.508290
-4.322173
-4.082511
-3.780625
-3.408481
-2.958665
-2.423111
-1.786335
-1.043588
-0.003413
-0.001156
8.691410
60.673204
148.254065
312.339126
543.260596
960.910442
-4.999478
-4.999253
-4.998828
-4.998042
-4.996695
-4.994459
-4.990829
-4.985050
-4.976014
-4.962139
-4.941230
-4.910308
-4.865452
-4.801643
-4.712657
-4.591026
-4.428108
-4.214318
-3.939545
-3.593814
-3.168222
-2.656273
-2.053779
-1.373598
-0.541869
0.002845
0.006980
45.855256
133.476549
298.910934
536.578761
999.074324
-4.999648
-4.999483
-4.999165
-4.998567
-4.997516
-4.995731
-4.992760
-4.987909
-4.980133
-4.967897
-4.949008
-4.920415
-4.878002
-4.816396
-4.728835
-4.607145
-4.441908
-4.222861
-3.939583
-3.582450
-3.143784
-2.619220
-2.007062
-1.324488
-0.486745
-0.002823
0.009584
50.140749
129.245285
290.126624
529.583491
1039.266649
-4.999784
-4.999675
-4.999463
-4.999056
-4.998330
-4.997071
-4.994937
-4.991387
-4.985594
-4.976320
-4.961762
-4.939369
-4.905629
-4.855865
-4.784041
-4.682647
-4.542669
-4.353711
-4.104288
-3.782324
-3.375956
-2.874849
-2.271280
-1.570370
-0.733357
0.002131
0.003054
33.179649
113.753786
274.343981
517.640327
1085.395796
-4.999866
-4.999793
-4.999646
-4.999359
-4.998831
-4.997892
-4.996254
-4.993450
-4.988741
-4.980981
-4.968447
-4.948610
-4.917873
-4.871281
-4.802248
-4.702372
-4.561409
-4.367544
-4.108037
-3.770328
-3.343553
-2.820459
-2.197950
-1.489550
-0.639984
-0.003985
0.006524
40.110351
108.985343
262.692586
503.977748
1133.824228
-4.999925
-4.999880
-4.999789
-4.999606
-4.999265
-4.998641
-4.997529
-4.995582
-4.992239
-4.986616
-4.977347
-4.962394
-4.938796
-4.902399
-4.847571
-4.766972
-4.651428
-4.489989
-4.270203
-3.978575
-3.601071
-3.123539
-2.532133
-1.816734
-0.966927
0.001652
-0.000949
19.830005
93.313350
244.451704
484.258350
1190.136152
-4.999958
-4.999931
-4.999874
-4.999757
-4.999530
-4.999104
-4.998319
-4.996899
-4.994381
-4.990003
-4.982545
-4.970107
-4.949815
-4.917457
-4.867070
-4.790527
-4.677235
-4.514069
-4.285761
-3.975935
-3.568935
-3.052491
-2.419998
-1.680200
-0.806602
-0.004913
0.003133
30.575705
88.065651
229.643867
460.987397
1249.276924
-4.999979
-4.999964
-4.999932
-4.999864
-4.999730
-4.999469
-4.998976
-4.998058
-4.996385
-4.993399
-4.988182
-4.979268
-4.964385
-4.940127
-4.901569
-4.841868
-4.751918
-4.620207
-4.433007
-4.175067
-3.830902
-3.386552
-2.831379
-2.154875
-1.365358
-0.193030
-0.004244
5.825824
73.331319
208.958297
431.399599
1344.064084
-4.999990
-4.999982
-4.999964
-4.999926
-4.999847
-4.999688
-4.999376
-4.998773
-4.997634
-4.995522
-4.991690
-4.984891
-4.973098
-4.953123
-4.920114
-4.866956
-4.783616
-4.656598
-4.468696
-4.199423
-3.826534
-3.329126
-2.692086
-1.915011
-0.997063
-0.005592
-0.000236
21.990691
67.578481
190.594657
400.664886
1341.372067
-4.999996
-4.999992
-4.999983
-4.999964
-4.999922
-4.999836
-4.999660
-4.999308
-4.998621
-4.997303
-4.994833
-4.990311
-4.982227
-4.968130
-4.944188
-4.904626
-4.841121
-4.742242
-4.593168
-4.375948
-4.070636
-3.657524
-3.120595
-2.449698
-1.659540
-0.668147
-0.000725
0.007431
55.173182
169.137397
367.289375
1296.457597
-4.999998
-4.999997
-4.999993
-4.999984
-4.999963
-4.999919
-4.999826
-4.999631
-4.999234
-4.998441
-4.996894
-4.993943
-4.988451
-4.978487
-4.960882
-4.930637
-4.880187
-4.798622
-4.671044
-4.478410
-4.198290
-3.806996
-3.283458
-2.612967
-1.804695
-0.800050
-0.001929
0.004616
46.661830
149.230277
333.330274
1247.272703
-4.999999
-4.999999
-4.999997
-4.999993
-4.999984
-4.999963
-4.999917
-4.999815
-4.999598
-4.999144
-4.998215
-4.996355
-4.992724
-4.985810
-4.972987
-4.949851
-4.909305
-4.840382
-4.726933
-4.546416
-4.269215
-3.859032
-3.275234
-2.474575
-1.452087
-0.006600
-0.004888
11.537511
40.288907
130.686913
299.590302
1194.603455
-5.000000
-5.000000
-4.999999
-4.999998
-4.999994
-4.999985
-4.999965
-4.999919
-4.999816
-4.999589
-4.999101
-4.998079
-4.995988
-4.991825
-4.983758
-4.968570
-4.940833
-4.891782
-4.807962
-4.669884
-4.451267
-4.119785
-3.640644
-2.983375
-2.138672
-1.088571
-0.008671
0.000337
31.443983
111.150040
264.164842
1134.930957
-5.000000
-5.000000
-5.000000
-4.999999
-4.999998
-4.999995
-4.999987
-4.999968
-4.999923
-4.999819
-4.999583
-4.999057
-4.997919
-4.995517
-4.990583
-4.980737
-4.961661
-4.925858
-4.860874
-4.747067
-4.555276
-4.245264
-3.766530
-3.061465
-2.094609
-0.670524
-0.006771
6.415101
25.466241
93.477062
229.421374
1070.549383
-5.000000
-5.000000
-5.000000
-5.000000
-4.999999
-4.999999
-4.999996
-4.999990
-4.999973
-4.999933
-4.999836
-4.999606
-4.999077
-4.997890
-4.995301
-4.989820
-4.978578
-4.956274
-4.913563
-4.834801
-4.695288
-4.458620
-4.075535
-3.487152
-2.635699
-1.504822
-0.009390
-0.004050
18.776414
75.811100
193.666786
997.088700
-5.000000
-5.000000
-5.000000
-5.000000
-5.000000
-5.000000
-4.999999
-4.999997
-4.999992
-4.999979
-4.999945
-4.999859
-4.999644
-4.999127
-4.997914
-4.995150
-4.989046
-4.976005
-4.949093
-4.895577
-4.793250
-4.605575
-4.276324
-3.725995
-2.857228
-1.550579
-0.007757
2.793825
13.814686
59.931397
159.243495
917.205506
-5.000000
-5.000000
-5.000000
-5.000000
-5.000000
-5.000000
-5.000000
-4.999999
-4.999998
-4.999995
-4.999986
-4.999961
-4.999893
-4.999714
-4.999257
-4.998124
-4.995404
-4.989088
-4.974941
-4.944468
-4.881542
-4.757467
-4.524943
-4.113155
-3.425620
-2.380394
-0.640004
-0.007234
9.153719
44.872437
124.865738
825.340240
-5.000000
-5.000000
-5.000000
-5.000000
-5.000000
-5.000000
-5.000000
-5.000000
-5.000000
-4.999999
-4.999997
-4.999992
-4.999975
-4.999928
-4.999794
-4.999427
-4.998451
-4.995945
-4.989734
-4.974923
-4.941031
-4.866883
-4.712431
-4.407701
-3.841251
-2.866449
-1.221841
0.637594
5.658013
31.826947
93.013313
724.663381
-5.000000
-5.000000
-5.000000
-5.000000
-5.000000
-5.000000
-5.000000
-5.000000
-5.000000
-5.000000
-5.000000
-4.999999
-4.999997
-4.999988
-4.999963
-4.999883
-4.999644
-4.998948
-4.996990
-4.991690
-4.977930
-4.943786
-4.863146
-4.682672
-4.302143
-3.550278
-2.181379
-0.008755
2.897984
20.327636
62.965958
607.938848
-5.000000
-5.000000
-5.000000
-5.000000
-5.000000
-5.000000
-5.000000
-5.000000
-5.000000
-5.000000
-5.000000
-5.000000
-5.000000
-4.999999
-4.999996
-4.999987
-4.999953
-4.999836
-4.999453
-4.998231
-4.994491
-4.983537
-4.953002
-4.872501
-4.673232
-4.213848
-3.251078
-1.260689
1.068459
11.256654
37.430056
479.020839
-5.000000
-5.000000
-5.000000
-5.000000
-5.000000
-5.000000
-5.000000
-5.000000
-5.000000
-5.000000
-5.000000
-5.000000
-5.000000
-5.000000
-5.000000
-4.999999
-4.999998
-4.999991
-4.999962
-4.999849
-4.999418
-4.997827
-4.992193
-4.973194
-4.912642
-4.732137
-4.226892
-2.993367
0.082801
4.462272
16.634155
328.325290
-5.000000
-5.000000
-5.000000
-5.000000
-5.000000
-5.000000
-5.000000
-5.000000
-5.000000
-5.000000
-5.000000
-5.000000
-5.000000
-5.000000
-5.000000
-5.000000
-5.000000
-5.000000
-4.999999
-4.999997
-4.999988
-4.999946
-4.999749
-4.998816
-4.994436
-4.974498
-4.887304
-4.539889
-3.268181
0.640102
3.561880
160.600726
-5.000000
-5.000000
-5.000000
-5.000000
-5.000000
-5.000000
-5.000000
-5.000000
-5.000000
-5.000000
-5.000000
-5.000000
-5.000000
-5.000000
-5.000000
-5.000000
-5.000000
-5.000000
-5.000000
-5.000000
-5.000000
-5.000000
-4.999998
-4.999992
-4.999965
-4.999842
-4.999308
-4.997142
-4.989322
-4.959554
-4.909212
-4.477707
-5.000000
-5.000000
-5.000000
-5.000000
-5.000000
-5.000000
-5.000000
-5.000000
-5.000000
-5.000000
-5.000000
-5.000000
-5.000000
-5.000000
-5.000000
-5.000000
-5.000000
-5.000000
-5.000000
-5.000000
-5.000000
-5.000000
-5.000000
-5.000000
-5.000000
-4.999999
-4.999998
-4.999991
-4.999967
-4.999879
-4.999715
-4.998803
-5.000000
-5.000000
-5.000000
-5.000000
-5.000000
-5.000000
-5.000000
-5.000000
-5.000000
-5.000000
-5.000000
-5.000000
-5.000000
-5.000000
-5.000000
-5.000000
-5.000000
-5.000000
-5.000000
-5.000000
-5.000000
-5.000000
-5.000000
-5.000000
-5.000000
-5.000000
-5.000000
-5.000000
-5.000000
-5.000000
-4.999999
-4.999998
-5.000000
-5.000000
-5.000000
-5.000000
-5.000000
-5.000000
-5.000000
-5.000000
-5.000000
-5.000000
-5.000000
-5.000000
-5.000000
-5.000000
-5.000000
-5.000000
-5.000000
-5.000000
-5.000000
-5.000000
-5.000000
-5.000000
-5.000000
-5.000000
-5.000000
-5.000000
-5.000000
-5.000000
-5.000000
-5.000000
-5.000000
-5.000000
-5.000000
-5.000000
-5.000000
-5.000000
-5.000000
-5.000000
-5.000000
-5.000000
-5.000000
-5.000000
-5.000000
-5.000000
-5.000000
-5.000000
-5.000000
-5.000000
-5.000000
-5.000000
-5.000000
-5.000000
-5.000000
-5.000000
-5.000000
-5.000000
-5.000000
-5.000000
-5.000000
-5.000000
-5.000000
-5.000000
-5.000000
-5.000000
-5.000000
-5.000000
-5.000000
-5.000000
-5.000000
-5.000000
-5.000000
-5.000000
-5.000000
-5.000000
-5.000000
-5.000000
-5.000000
-5.000000
-5.000000
-5.000000
-5.000000
-5.000000
-5.000000
-5.000000
-5.000000
-5.000000
-5.000000
-5.000000
-5.000000
-5.000000
-5.000000
-5.000000
-5.000000
-5.000000
-5.000000
-5.000000
-5.000000
-5.000000
-5.000000
-5.000000
-5.000000
-5.000000
-5.000000
-5.000000
-5.000000
-5.000000
-5.000000
-5.000000
-5.000000
-5.000000
-5.000000
-5.000000