<?xml version='1.0' encoding='UTF-8'?>
<VTKFile xmlns='VTK' byte_order='LittleEndian' version='0.1' type='UnstructuredGrid'>
<UnstructuredGrid>
<Piece NumberOfCells='1816' NumberOfPoints='1816'>
<Points>
<DataArray NumberOfComponents='3' type='Float32' Name='Position' format='ascii'>
1.050000 0.400000 0.000000
1.050000 0.412500 0.000000
1.050000 0.425000 0.000000
1.050000 0.437500 0.000000
1.050000 0.450000 0.000000
1.050000 0.462500 0.000000
1.050000 0.475000 0.000000
1.050000 0.487500 0.000000
1.087500 0.400000 0.000000
1.087500 0.412500 0.000000
1.087500 0.425000 0.000000
1.087500 0.437500 0.000000
1.087500 0.450000 0.000000
1.087500 0.462500 0.000000
1.087500 0.475000 0.000000
1.087500 0.487500 0.000000
0.025000 0.000000 0.000000
0.025000 0.012500 0.000000
0.025000 0.025000 0.000000
0.025000 0.037500 0.000000
0.025000 0.050000 0.000000
0.025000 0.062500 0.000000
0.025000 0.075000 0.000000
0.025000 0.087500 0.000000
0.025000 0.100000 0.000000
0.025000 0.112500 0.000000
0.025000 0.125000 0.000000
0.025000 0.137500 0.000000
0.025000 0.150000 0.000000
0.025000 0.162500 0.000000
0.025000 0.175000 0.000000
0.025000 0.187500 0.000000
0.025000 0.200000 0.000000
0.025000 0.212500 0.000000
0.025000 0.225000 0.000000
0.025000 0.237500 0.000000
0.025000 0.250000 0.000000
0.025000 0.262500 0.000000
0.025000 0.275000 0.000000
0.025000 0.287500 0.000000
0.025000 0.300000 0.000000
0.025000 0.312500 0.000000
0.025000 0.325000 0.000000
0.025000 0.337500 0.000000
0.025000 0.350000 0.000000
0.025000 0.362500 0.000000
0.025000 0.375000 0.000000
0.025000 0.387500 0.000000
1.125000 0.400000 0.000000
1.125000 0.412500 0.000000
1.125000 0.425000 0.000000
1.125000 0.437500 0.000000
1.125000 0.450000 0.000000
1.125000 0.462500 0.000000
1.125000 0.475000 0.000000
1.125000 0.487500 0.000000
0.062500 0.000000 0.000000
0.062500 0.012500 0.000000
0.062500 0.025000 0.000000
0.062500 0.037500 0.000000
0.062500 0.050000 0.000000
0.062500 0.062500 0.000000
0.062500 0.075000 0.000000
0.062500 0.087500 0.000000
0.062500 0.100000 0.000000
0.062500 0.112500 0.000000
0.062500 0.125000 0.000000
0.062500 0.137500 0.000000
0.062500 0.150000 0.000000
0.062500 0.162500 0.000000
0.062500 0.175000 0.000000
0.062500 0.187500 0.000000
0.062500 0.200000 0.000000
0.062500 0.212500 0.000000
0.062500 0.225000 0.000000
0.062500 0.237500 0.000000
0.062500 0.250000 0.000000
0.062500 0.262500 0.000000
0.062500 0.275000 0.000000
0.062500 0.287500 0.000000
0.062500 0.300000 0.000000
0.062500 0.312500 0.000000
0.062500 0.325000 0.000000
0.062500 0.337500 0.000000
0.062500 0.350000 0.000000
0.062500 0.362500 0.000000
0.062500 0.375000 0.000000
0.062500 0.387500 0.000000
1.162500 0.400000 0.000000
1.162500 0.412500 0.000000
1.162500 0.425000 0.000000
1.162500 0.437500 0.000000
1.162500 0.450000 0.000000
1.162500 0.462500 0.000000
1.162500 0.475000 0.000000
1.162500 0.487500 0.000000
0.100000 0.000000 0.000000
0.100000 0.012500 0.000000
0.100000 0.025000 0.000000
0.100000 0.037500 0.000000
0.100000 0.050000 0.000000
0.100000 0.062500 0.000000
0.100000 0.075000 0.000000
0.100000 0.087500 0.000000
0.100000 0.100000 0.000000
0.100000 0.112500 0.000000
0.100000 0.125000 0.000000
0.100000 0.137500 0.000000
0.100000 0.150000 0.000000
0.100000 0.162500 0.000000
0.100000 0.175000 0.000000
0.100000 0.187500 0.000000
0.100000 0.200000 0.000000
0.100000 0.212500 0.000000
0.100000 0.225000 0.000000
0.100000 0.237500 0.000000
0.100000 0.250000 0.000000
0.100000 0.262500 0.000000
0.100000 0.275000 0.000000
0.100000 0.287500 0.000000
0.100000 0.300000 0.000000
0.100000 0.312500 0.000000
0.100000 0.325000 0.000000
0.100000 0.337500 0.000000
0.100000 0.350000 0.000000
0.100000 0.362500 0.000000
0.100000 0.375000 0.000000
0.100000 0.387500 0.000000
1.200000 0.400000 0.000000
1.200000 0.412500 0.000000
1.200000 0.425000 0.000000
1.200000 0.437500 0.000000
1.200000 0.450000 0.000000
1.200000 0.462500 0.000000
1.200000 0.475000 0.000000
1.200000 0.487500 0.000000
0.137500 0.000000 0.000000
0.137500 0.012500 0.000000
0.137500 0.025000 0.000000
0.137500 0.037500 0.000000
0.137500 0.050000 0.000000
0.137500 0.062500 0.000000
0.137500 0.075000 0.000000
0.137500 0.087500 0.000000
0.137500 0.100000 0.000000
0.137500 0.112500 0.000000
0.137500 0.125000 0.000000
0.137500 0.137500 0.000000
0.137500 0.150000 0.000000
0.137500 0.162500 0.000000
0.137500 0.175000 0.000000
0.137500 0.187500 0.000000
0.137500 0.200000 0.000000
0.137500 0.212500 0.000000
0.137500 0.225000 0.000000
0.137500 0.237500 0.000000
0.137500 0.250000 0.000000
0.137500 0.262500 0.000000
0.137500 0.275000 0.000000
0.137500 0.287500 0.000000
0.137500 0.300000 0.000000
0.137500 0.312500 0.000000
0.137500 0.325000 0.000000
0.137500 0.337500 0.000000
0.137500 0.350000 0.000000
0.137500 0.362500 0.000000
0.137500 0.375000 0.000000
0.137500 0.387500 0.000000
1.237500 0.400000 0.000000
1.237500 0.412500 0.000000
1.237500 0.425000 0.000000
1.237500 0.437500 0.000000
1.237500 0.450000 0.000000
1.237500 0.462500 0.000000
1.237500 0.475000 0.000000
1.237500 0.487500 0.000000
0.175000 0.000000 0.000000
0.175000 0.012500 0.000000
0.175000 0.025000 0.000000
0.175000 0.037500 0.000000
0.175000 0.050000 0.000000
0.175000 0.062500 0.000000
0.175000 0.075000 0.000000
0.175000 0.087500 0.000000
0.175000 0.100000 0.000000
0.175000 0.112500 0.000000
0.175000 0.125000 0.000000
0.175000 0.137500 0.000000
0.175000 0.150000 0.000000
0.175000 0.162500 0.000000
0.175000 0.175000 0.000000
0.175000 0.187500 0.000000
0.175000 0.200000 0.000000
0.175000 0.212500 0.000000
0.175000 0.225000 0.000000
0.175000 0.237500 0.000000
0.175000 0.250000 0.000000
0.175000 0.262500 0.000000
0.175000 0.275000 0.000000
0.175000 0.287500 0.000000
0.175000 0.300000 0.000000
0.175000 0.312500 0.000000
0.175000 0.325000 0.000000
0.175000 0.337500 0.000000
0.175000 0.350000 0.000000
0.175000 0.362500 0.000000
0.175000 0.375000 0.000000
0.175000 0.387500 0.000000
1.275000 0.400000 0.000000
1.275000 0.412500 0.000000
1.275000 0.425000 0.000000
1.275000 0.437500 0.000000
1.275000 0.450000 0.000000
1.275000 0.462500 0.000000
1.275000 0.475000 0.000000
1.275000 0.487500 0.000000
0.212500 0.000000 0.000000
0.212500 0.012500 0.000000
0.212500 0.025000 0.000000
0.212500 0.037500 0.000000
0.212500 0.050000 0.000000
0.212500 0.062500 0.000000
0.212500 0.075000 0.000000
0.212500 0.087500 0.000000
0.212500 0.100000 0.000000
0.212500 0.112500 0.000000
0.212500 0.125000 0.000000
0.212500 0.137500 0.000000
0.212500 0.150000 0.000000
0.212500 0.162500 0.000000
0.212500 0.175000 0.000000
0.212500 0.187500 0.000000
0.212500 0.200000 0.000000
0.212500 0.212500 0.000000
0.212500 0.225000 0.000000
0.212500 0.237500 0.000000
0.212500 0.250000 0.000000
0.212500 0.262500 0.000000
0.212500 0.275000 0.000000
0.212500 0.287500 0.000000
0.212500 0.300000 0.000000
0.212500 0.312500 0.000000
0.212500 0.325000 0.000000
0.212500 0.337500 0.000000
0.212500 0.350000 0.000000
0.212500 0.362500 0.000000
0.212500 0.375000 0.000000
0.212500 0.387500 0.000000
1.312500 0.400000 0.000000
1.312500 0.412500 0.000000
1.312500 0.425000 0.000000
1.312500 0.437500 0.000000
1.312500 0.450000 0.000000
1.312500 0.462500 0.000000
1.312500 0.475000 0.000000
1.312500 0.487500 0.000000
0.250000 0.000000 0.000000
0.250000 0.012500 0.000000
0.250000 0.025000 0.000000
0.250000 0.037500 0.000000
0.250000 0.050000 0.000000
0.250000 0.062500 0.000000
0.250000 0.075000 0.000000
0.250000 0.087500 0.000000
0.250000 0.100000 0.000000
0.250000 0.112500 0.000000
0.250000 0.125000 0.000000
0.250000 0.137500 0.000000
0.250000 0.150000 0.000000
0.250000 0.162500 0.000000
0.250000 0.175000 0.000000
0.250000 0.187500 0.000000
0.250000 0.200000 0.000000
0.250000 0.212500 0.000000
0.250000 0.225000 0.000000
0.250000 0.237500 0.000000
0.250000 0.250000 0.000000
0.250000 0.262500 0.000000
0.250000 0.275000 0.000000
0.250000 0.287500 0.000000
0.250000 0.300000 0.000000
0.250000 0.312500 0.000000
0.250000 0.325000 0.000000
0.250000 0.337500 0.000000
0.250000 0.350000 0.000000
0.250000 0.362500 0.000000
0.250000 0.375000 0.000000
0.250000 0.387500 0.000000
1.350000 0.400000 0.000000
1.350000 0.412500 0.000000
1.350000 0.425000 0.000000
1.350000 0.437500 0.000000
1.350000 0.450000 0.000000
1.350000 0.462500 0.000000
1.350000 0.475000 0.000000
1.350000 0.487500 0.000000
0.287500 0.000000 0.000000
0.287500 0.012500 0.000000
0.287500 0.025000 0.000000
0.287500 0.037500 0.000000
0.287500 0.050000 0.000000
0.287500 0.062500 0.000000
0.287500 0.075000 0.000000
0.287500 0.087500 0.000000
0.287500 0.100000 0.000000
0.287500 0.112500 0.000000
0.287500 0.125000 0.000000
0.287500 0.137500 0.000000
0.287500 0.150000 0.000000
0.287500 0.162500 0.000000
0.287500 0.175000 0.000000
0.287500 0.187500 0.000000
0.287500 0.200000 0.000000
0.287500 0.212500 0.000000
0.287500 0.225000 0.000000
0.287500 0.237500 0.000000
0.287500 0.250000 0.000000
0.287500 0.262500 0.000000
0.287500 0.275000 0.000000
0.287500 0.287500 0.000000
0.287500 0.300000 0.000000
0.287500 0.312500 0.000000
0.287500 0.325000 0.000000
0.287500 0.337500 0.000000
0.287500 0.350000 0.000000
0.287500 0.362500 0.000000
0.287500 0.375000 0.000000
0.287500 0.387500 0.000000
1.387500 0.400000 0.000000
1.387500 0.412500 0.000000
1.387500 0.425000 0.000000
1.387500 0.437500 0.000000
1.387500 0.450000 0.000000
1.387500 0.462500 0.000000
1.387500 0.475000 0.000000
1.387500 0.487500 0.000000
0.325000 0.000000 0.000000
0.325000 0.012500 0.000000
0.325000 0.025000 0.000000
0.325000 0.037500 0.000000
0.325000 0.050000 0.000000
0.325000 0.062500 0.000000
0.325000 0.075000 0.000000
0.325000 0.087500 0.000000
0.325000 0.100000 0.000000
0.325000 0.112500 0.000000
0.325000 0.125000 0.000000
0.325000 0.137500 0.000000
0.325000 0.150000 0.000000
0.325000 0.162500 0.000000
0.325000 0.175000 0.000000
0.325000 0.187500 0.000000
0.325000 0.200000 0.000000
0.325000 0.212500 0.000000
0.325000 0.225000 0.000000
0.325000 0.237500 0.000000
0.325000 0.250000 0.000000
0.325000 0.262500 0.000000
0.325000 0.275000 0.000000
[...]
<PointData>
<DataArray NumberOfComponents='1' type='Int32' Name='ParticleType' format='ascii'>
5
5
5
5
5
5
5
5
5
5
5
5
5
5
5
5
2
2
2
2
2
2
2
2
2
2
2
2
2
2
2
2
2
2
2
2
2
2
2
2
2
1
1
0
0
0
0
0
5
5
5
5
5
5
5
5
2
2
2
2
2
2
2
2
2
2
2
2
2
2
2
2
2
2
2
2
2
2
2
2
2
1
1
0
0
0
0
0
5
5
5
5
5
5
5
5
2
2
2
2
2
2
2
2
2
2
2
2
2
2
2
2
2
2
2
2
2
2
2
2
2
1
1
0
0
0
0
0
5
5
5
5
5
5
5
5
2
2
2
2
2
2
2
2
2
2
2
2
2
2
2
2
2
2
2
2
2
2
2
2
1
1
0
0
0
0
0
0
5
5
5
5
5
5
5
5
2
2
2
2
2
2
2
2
2
2
2
2
2
2
2
2
2
2
2
2
2
2
2
2
1
1
0
0
0
0
0
0
5
5
5
5
5
5
5
5
2
2
2
2
2
2
2
2
2
2
2
2
2
2
2
2
2
2
2
2
2
2
2
2
1
1
0
0
0
0
0
0
5
5
5
5
5
5
5
5
2
2
2
2
2
2
2
2
2
2
2
2
2
2
2
2
2
2
2
2
2
2
2
2
1
1
0
0
0
0
0
0
5
5
5
5
5
5
5
5
2
2
2
2
2
2
2
2
2
2
2
2
2
2
2
2
2
2
2
2
2
2
2
2
1
1
0
0
0
0
0
0
5
5
5
5
5
5
5
5
2
2
2
2
2
2
2
2
2
2
2
2
2
2
2
2
2
2
2
2
2
2
2
2
1
1
0
0
0
0
0
0
5
5
5
5
5
5
5
5
2
2
2
2
2
2
2
2
2
2
2
2
2
2
2
2
2
2
2
2
2
2
2
2
1
1
0
0
0
0
0
0
5
5
5
5
5
5
5
5
2
2
2
2
2
2
2
2
2
2
2
2
2
2
2
2
2
2
2
2
2
2
2
2
1
1
0
0
0
0
0
0
5
5
5
5
5
5
5
5
2
2
2
2
2
2
2
2
2
2
2
2
2
2
2
2
2
2
2
2
2
2
2
2
1
1
0
0
0
0
0
0
5
5
5
5
5
5
5
5
2
2
2
2
2
2
2
2
2
2
2
2
2
2
2
2
2
2
2
2
2
2
2
2
1
1
0
0
0
0
0
0
5
5
5
5
5
5
5
5
2
2
2
2
2
2
2
2
2
2
2
2
2
2
2
2
2
2
2
2
2
2
2
2
1
1
0
0
0
0
0
0
2
2
2
2
2
2
2
2
2
2
2
2
2
2
2
2
2
2
2
2
2
2
2
2
1
1
0
0
0
0
0
0
2
2
2
2
2
2
2
2
2
2
2
2
2
2
2
2
2
2
2
2
2
2
2
2
1
1
0
0
0
0
0
0
2
2
2
2
2
2
2
2
2
2
2
2
2
2
2
2
2
2
2
2
2
2
2
2
1
1
0
0
0
0
0
0
2
2
2
2
2
2
2
2
2
2
2
2
2
2
2
2
2
2
2
2
2
2
2
2
1
1
0
0
0
0
0
0
2
2
2
2
2
2
2
2
2
2
2
2
2
2
2
2
2
2
2
2
2
2
2
2
1
1
0
0
0
0
0
0
2
2
2
2
2
2
2
2
2
2
2
2
2
2
2
2
2
2
2
2
2
2
2
2
2
1
0
0
0
0
0
0
2
2
2
2
2
2
2
2
2
2
2
2
2
2
2
2
2
2
2
2
2
2
2
2
1
1
0
0
0
0
0
0
2
2
2
2
2
2
2
2
2
2
2
2
2
2
2
2
2
2
2
2
2
2
2
2
2
1
1
0
0
0
0
0
2
2
2
2
2
2
2
2
2
2
2
2
2
2
2
2
2
2
2
2
2
2
2
2
2
1
1
0
0
0
0
0
2
2
2
2
2
2
2
2
2
2
2
2
2
2
2
2
2
2
2
2
2
2
2
2
2
1
1
0
0
0
0
0
2
2
2
2
2
2
2
2
2
2
2
2
2
2
2
2
2
2
2
2
2
2
2
2
2
1
1
0
0
0
0
0
2
2
2
2
2
2
2
2
2
2
2
2
2
2
2
2
2
2
2
2
2
2
2
2
2
1
1
0
0
0
0
0
2
2
2
2
2
2
2
2
2
2
2
2
2
2
2
2
2
2
2
2
2
2
2
2
2
1
1
0
0
0
0
0
2
2
2
2
2
2
2
2
2
2
2
2
2
2
2
2
2
2
2
2
2
2
2
2
2
2
1
0
0
0
0
0
2
2
2
2
2
2
2
2
2
2
2
2
2
2
2
2
2
2
2
2
2
2
2
2
2
2
1
1
0
0
0
0
2
2
2
2
2
2
2
2
2
2
2
2
2
2
2
2
2
2
2
2
2
2
2
2
2
1
1
0
0
0
0
0
2
2
2
2
2
2
2
2
2
2
2
2
2
2
2
2
2
2
2
2
2
2
2
2
2
2
1
1
0
0
0
0
2
2
2
2
2
2
2
2
2
2
2
2
2
2
2
2
2
2
2
2
2
2
2
2
2
1
1
0
0
0
0
0
2
2
2
2
2
2
2
2
2
2
2
2
2
2
2
2
2
2
2
2
2
2
2
2
2
2
1
1
0
0
0
0
2
2
2
2
2
2
2
2
2
2
2
2
2
2
2
2
2
2
2
2
2
2
2
2
2
2
1
0
0
0
0
0
2
2
2
2
2
2
2
2
2
2
2
2
2
2
2
2
2
2
2
2
2
2
2
2
2
2
1
1
0
0
0
0
2
2
2
2
2
2
2
2
2
2
2
2
2
2
2
2
2
2
2
2
2
2
2
2
2
2
1
0
0
0
0
0
2
2
2
2
2
2
2
2
2
2
2
2
2
2
2
2
2
2
2
2
2
2
2
2
2
2
2
1
0
0
0
0
2
2
2
2
2
2
2
2
2
2
2
2
2
2
2
2
2
2
2
2
2
2
2
2
2
2
2
0
0
0
0
0
2
2
2
2
2
2
2
2
2
2
2
2
2
2
2
2
2
2
2
2
2
2
2
2
2
2
2
1
0
0
0
0
2
2
2
2
2
2
2
2
2
2
2
2
2
2
2
2
2
2
2
2
2
2
2
2
2
2
2
2
0
0
0
0
2
2
2
2
2
2
2
2
2
2
2
2
2
2
2
2
2
2
2
2
2
2
2
2
2
2
2
2
0
0
0
0
2
2
2
2
2
2
2
2
2
2
2
2
2
2
2
2
2
2
2
2
2
2
2
2
2
2
2
2
2
0
0
0
2
2
2
2
2
2
2
2
2
2
2
2
2
2
2
2
2
2
2
2
2
2
2
2
2
2
2
2
2
2
2
2
2
2
2
2
2
2
2
2
2
2
2
2
2
2
2
2
2
2
2
2
2
2
2
2
2
2
2
2
2
2
2
2
2
2
2
2
2
2
2
2
2
2
2
2
2
2
2
2
2
2
2
2
2
2
2
2
2
2
2
2
2
2
2
2
2
2
2
2
2
2
2
2
2
2
2
2
2
2
2
2
2
2
2
2
2
2
2
2
2
2
2
2
2
2
2
2
2
2
2
2
2
2
2
2
2
2
2
2
2
2
2
2
2
2
2
2
2
2
2
2
2
2
2
2
2
2
2
2
2
2
2
2
2
2
2
2
2
2
2
2
2
2
2
2
2
2
2
2
2
2
2
2
2
2
2
2
2
2
2
2
2
2
2
2
2
2
2
2
2
2
2
2
2
2
2
2
2
2
2
2
2
2
2
2
2
2
2
2
2
2
2
2
2
2
2
2
2
2
2
2
2
2
2
2
2
2
2
2
2
2
2
2
2
2
2
2
2
2
2
2
2
2
2
2
2
2
2
2
2
2
2
2
2
2
2
2
2
2
2
2
2
2
2
2
2
2
2
2
2
2
2
2
2
2
2
2
2
2
2
2
2
2
2
2
2
2
2
2
2
2
2
2
2
2
2
2
2
2
2
2
2
2
2
2
2
2
2
2
2
2
2
2
2
2
2
2
2
2
2
2
2
2
2
2
2
2
2
2
2
2
2
2
2
2
2
2
2
2
2
2
</DataArray>
<DataArray NumberOfComponents='1' type='Float32' Name='Temperature' format='ascii'>
-3.000000
-3.000000
-3.000000
-3.000000
-3.000000
-3.000000
-3.000000
-3.000000
-3.000000
-3.000000
-3.000000
-3.000000
-3.000000
-3.000000
-3.000000
-3.000000
-4.994447
-4.993105
-4.990773
-4.986854
-4.980846
-4.972012
-4.959345
-4.941517
-4.916820
-4.883115
-4.837785
-4.777701
-4.699222
-4.598216
-4.470132
-4.310094
-4.113023
-3.873777
-3.587272
-3.248644
-2.853508
-2.398558
-1.882530
-1.309091
-0.682404
-0.005830
0.000657
11.370398
33.033969
60.445585
88.275317
115.017439
-3.000000
-3.000000
-3.000000
-3.000000
-3.000000
-3.000000
-3.000000
-3.000000
-4.994308
-4.992926
-4.990522
-4.986478
-4.980272
-4.971135
-4.958013
-4.939510
-4.913825
-4.878686
-4.831292
-4.768263
-4.685624
-4.578815
-4.442770
-4.272048
-4.061070
-3.804443
-3.497387
-3.136254
-2.719093
-2.246293
-1.720306
-1.152740
-0.513928
-0.001435
0.006665
24.232929
53.252169
91.686018
131.393832
170.534881
-3.000000
-3.000000
-3.000000
-3.000000
-3.000000
-3.000000
-3.000000
-3.000000
-4.994229
-4.992823
-4.990380
-4.986270
-4.979961
-4.970672
-4.957334
-4.938533
-4.912444
-4.876775
-4.828703
-4.764831
-4.681174
-4.573170
-4.435755
-4.263492
-4.050797
-3.792245
-3.482979
-3.119215
-2.698797
-2.221891
-1.690512
-1.118249
-0.460230
-0.004141
0.007248
30.434979
68.645382
119.205042
171.655320
223.796105
-3.000000
-3.000000
-3.000000
-3.000000
-3.000000
-3.000000
-3.000000
-3.000000
-4.994179
-4.992758
-4.990287
-4.986129
-4.979742
-4.970333
-4.956813
-4.937739
-4.911250
-4.875003
-4.826106
-4.761084
-4.675844
-4.565701
-4.425422
-4.249319
-4.031356
-3.765231
-3.444369
-3.061832
-2.610316
-2.082783
-1.475103
-0.791490
-0.003207
-0.001631
11.233273
39.999421
85.641786
147.271578
212.103319
277.569204
-3.000000
-3.000000
-3.000000
-3.000000
-3.000000
-3.000000
-3.000000
-3.000000
-4.994153
-4.992723
-4.990236
-4.986050
-4.979617
-4.970135
-4.956501
-4.937254
-4.910506
-4.873873
-4.824415
-4.758583
-4.672190
-4.560411
-4.417814
-4.238415
-4.015759
-3.743015
-3.413123
-3.019108
-2.554836
-2.016205
-1.405731
-0.720253
-0.002242
0.005384
15.534619
48.138538
100.923958
173.098325
249.862375
328.528017
-3.000000
-3.000000
-3.000000
-3.000000
-3.000000
-3.000000
-3.000000
-3.000000
-4.994137
-4.992702
-4.990206
-4.986001
-4.979539
-4.970010
-4.956302
-4.936941
-4.910022
-4.873140
-4.823329
-4.757016
-4.670006
-4.557501
-4.414184
-4.234344
-4.012050
-3.741330
-3.416263
-3.030925
-2.579226
-2.054953
-1.453929
-0.774809
-0.006677
0.004874
12.804333
53.989416
115.002426
198.384535
287.580993
380.304770
-3.000000
-3.000000
-3.000000
-3.000000
-3.000000
-3.000000
-3.000000
-3.000000
-4.994129
-4.992691
-4.990188
-4.985973
-4.979492
-4.969932
-4.956176
-4.936739
-4.909704
-4.872647
-4.822574
-4.755873
-4.668284
-4.554909
-4.410249
-4.228290
-4.002603
-3.726487
-3.393152
-2.996060
-2.529645
-1.990196
-1.381407
-0.690666
-0.008551
0.002670
19.130820
61.418881
128.549108
221.816768
322.844614
429.567932
-3.000000
-3.000000
-3.000000
-3.000000
-3.000000
-3.000000
-3.000000
-3.000000
-4.994124
-4.992684
-4.990177
-4.985955
-4.979462
-4.969881
-4.956091
-4.936600
-4.909476
-4.872276
-4.821973
-4.754900
-4.666707
-4.552347
-4.406099
-4.221626
-3.992105
-3.710450
-3.369692
-2.963623
-2.487832
-1.940398
-1.329105
-0.629456
-0.007246
0.001615
24.135561
68.558507
141.745868
245.018436
358.306808
480.107171
-3.000000
-3.000000
-3.000000
-3.000000
-3.000000
-3.000000
-3.000000
-3.000000
-4.994122
-4.992681
-4.990172
-4.985945
-4.979445
-4.969853
-4.956043
-4.936518
-4.909341
-4.872055
-4.821614
-4.754322
-4.665786
-4.550897
-4.403847
-4.218196
-3.987010
-3.703115
-3.359534
-2.950171
-2.470894
-1.920056
-1.306511
-0.599862
0.001379
0.003441
26.591738
74.125358
153.254650
266.181332
391.384715
528.378963
-3.000000
-3.000000
-3.000000
-3.000000
-3.000000
-3.000000
-3.000000
-3.000000
-4.994121
-4.992679
-4.990168
-4.985939
-4.979433
-4.969832
-4.956006
-4.936455
-4.909234
-4.871875
-4.821319
-4.753843
-4.665022
-4.549699
-4.402012
-4.215462
-3.983071
-3.697666
-3.352344
-2.941189
-2.460340
-1.908337
-1.294954
-0.583522
-0.007714
0.007013
28.862458
79.425985
164.412320
287.161592
424.805840
578.386798
-3.000000
-3.000000
-3.000000
-3.000000
-3.000000
-3.000000
-3.000000
-3.000000
-4.994121
-4.992679
-4.990168
-4.985937
-4.979430
-4.969824
-4.955991
-4.936426
-4.909180
-4.871780
-4.821154
-4.753566
-4.664566
-4.548970
-4.400881
-4.213763
-3.980605
-3.694220
-3.347719
-2.935228
-2.452950
-1.899387
-1.284826
-0.567869
-0.007698
0.009967
30.688876
83.965416
174.292566
306.286829
455.943711
626.341438
-3.000000
-3.000000
-3.000000
-3.000000
-3.000000
-3.000000
-3.000000
-3.000000
-4.994130
-4.992689
-4.990181
-4.985955
-4.979452
-4.969852
-4.956023
-4.936461
-4.909212
-4.871803
-4.821162
-4.753563
-4.664585
-4.549102
-4.401315
-4.214841
-3.982854
-3.698335
-3.354453
-2.945153
-2.466103
-1.914998
-1.300494
-0.584437
-0.001699
0.009441
29.456589
86.919413
183.147115
324.964749
487.372584
676.425067
-3.000000
-3.000000
-3.000000
-3.000000
-3.000000
-3.000000
-3.000000
-3.000000
-4.994144
-4.992698
-4.990177
-4.985923
-4.979365
-4.969658
-4.955631
-4.935716
-4.907858
-4.869427
-4.817125
-4.746909
-4.653943
-4.532609
-4.376588
-4.179071
-3.933093
-3.632034
-3.270253
-2.843821
-2.351380
-1.793467
-1.184705
-0.462860
-0.004754
0.007543
38.419488
93.657118
191.834086
341.077706
515.294184
723.430705
-3.000000
-3.000000
-3.000000
-3.000000
-3.000000
-3.000000
-3.000000
-3.000000
-4.993910
-4.992363
-4.989662
-4.985096
-4.978048
-4.967608
-4.952528
-4.931153
-4.901343
-4.860407
-4.805032
-4.731235
-4.634350
-4.509048
-4.349423
-4.149158
-3.901781
-3.601046
-3.241445
-2.818833
-2.331253
-1.778304
-1.173580
-0.452834
0.002678
0.007719
39.112202
100.324473
202.893350
358.158010
541.480247
767.844164
-4.994861
-4.993493
-4.991090
-4.987006
-4.980655
-4.971174
-4.957369
-4.937649
-4.909943
-4.871633
-4.819481
-4.749585
-4.657355
-4.537535
-4.384268
-4.191223
-3.951798
-3.659411
-3.307932
-2.892260
-2.409181
-1.857202
-1.247074
-0.527958
-0.003684
0.006931
34.113086
94.657078
196.702462
354.578445
544.770923
789.004395
-4.996172
-4.995100
-4.993204
-4.989956
-4.984860
-4.977173
-4.965858
-4.949510
-4.926275
-4.893769
-4.848992
-4.788265
-4.707185
-4.600623
-4.462762
-4.287185
-4.067010
-3.795040
-3.463938
-3.066483
-2.596118
-2.047555
-1.423187
-0.702048
-0.008282
0.001885
22.786054
82.079261
184.560126
346.610096
545.514302
811.532834
-4.996945
-4.996023
-4.994378
-4.991528
-4.986996
-4.980062
-4.969707
-4.954530
-4.932662
-4.901671
-4.858468
-4.799231
-4.719360
-4.613459
-4.475383
-4.298329
-4.074988
-3.797759
-3.459072
-3.051892
-2.570608
-2.011581
-1.381113
-0.648746
-0.002632
0.004288
26.987287
83.908198
182.725691
344.422815
548.653838
836.178932
-4.997802
-4.997100
-4.995836
-4.993627
-4.990077
-4.984580
-4.976268
-4.963932
-4.945929
-4.920087
-4.883591
-4.832896
-4.763640
-4.670616
-4.547783
-4.388377
-4.185087
-3.930320
-3.616448
-3.235902
-2.780846
-2.242458
-1.610315
-0.879992
0.001449
0.005252
13.032388
70.361929
169.565828
334.971647
547.949776
862.717016
-4.998320
-4.997740
-4.996682
-4.994809
-4.991748
-4.986927
-4.979508
-4.968302
-4.951671
-4.927409
-4.892627
-4.843640
-4.775885
-4.683879
-4.561253
-4.400860
-4.194944
-3.935351
-3.613705
-3.221523
-2.750442
-2.192753
-1.545954
-0.800024
-0.003099
0.001477
18.557549
72.616817
166.929539
330.982178
548.939784
891.238968
-4.998840
-4.998414
-4.997631
-4.996228
-4.993907
-4.990203
-4.984424
-4.975574
-4.962259
-4.942566
-4.913944
-4.873069
-4.815725
-4.736715
-4.629827
-4.487883
-4.302898
-4.066397
-3.769885
-3.405503
-2.966812
-2.449829
-1.851601
-1.188319
-0.325346
0.003815
1.986280
58.551709
152.941212
319.772801
545.974173
922.735469
-4.999160
-4.998825
-4.998200
-4.997063
-4.995144
-4.992019
-4.987038
-4.979249
-4.967284
-4.949231
-4.922487
-4.883599
-4.828132
-4.750566
-4.644276
-4.501629
-4.314224
-4.073299
-3.770230
-3.396953
-2.945800
-2.408153
-1.768422
-1.021893
-0.003402
-0.001012
9.339914
61.405599
149.472959
313.649163
543.848436
956.171003
-4.999449
-4.999214
-4.998770
-4.997953
-4.996555
-4.994240
-4.990494
-4.984543
-4.975263
-4.961051
-4.939685
-4.908164
-4.862542
-4.797784
-4.707661
-4.584714
-4.420339
-4.205013
-3.928726
-3.581648
-3.155055
-2.642650
-2.040383
-1.361516
-0.529979
0.002899
0.007224
46.674262
134.746466
300.369810
537.448790
993.868343
-4.999626
-4.999453
-4.999120
-4.998495
-4.997401
-4.995545
-4.992467
-4.987455
-4.979444
-4.966874
-4.947522
-4.918308
-4.875091
-4.812479
-4.723709
-4.600637
-4.433906
-4.213356
-3.928707
-3.570501
-3.131228
-2.606670
-1.995178
-1.314158
-0.476891
-0.002738
0.009770
50.816575
130.552943
291.763713
530.817024
1033.583294
-4.999770
-4.999655
-4.999432
-4.999005
-4.998245
-4.996933
-4.994714
-4.991035
-4.985051
-4.975498
-4.960548
-4.937616
-4.903162
-4.852476
-4.779509
-4.676742
-4.535180
-4.344471
-4.093206
-3.769439
-3.361504
-2.859362
-2.255629
-1.556106
-0.719741
0.002172
0.003326
34.046464
115.100937
276.143396
519.292464
1079.119435
-4.999857
-4.999779
-4.999623
-4.999320
-4.998766
-4.997781
-4.996070
-4.993151
-4.988264
-4.980240
-4.967319
-4.946935
-4.915450
-4.867870
-4.797587
-4.696198
-4.553507
-4.357799
-4.096500
-3.757273
-3.329510
-2.806202
-2.184392
-1.477872
-0.629414
-0.003915
0.006741
40.768517
110.366489
264.693657
506.154221
1126.929650
-4.999919
-4.999871
-4.999774
-4.999581
-4.999219
-4.998563
-4.997396
-4.995361
-4.991880
-4.986044
-4.976460
-4.961051
-4.936816
-4.899559
-4.843613
-4.761620
-4.644411
-4.481075
-4.259219
-3.965420
-3.585719
-3.106103
-2.513085
-1.797877
-0.948837
0.001675
-0.000694
20.739893
94.677763
246.615926
487.052319
1182.479961
-4.999954
-4.999925
-4.999864
-4.999739
-4.999498
-4.999047
-4.998218
-4.996725
-4.994087
-4.989519
-4.981767
-4.968888
-4.947954
-4.914695
-4.863089
-4.784973
-4.669753
-4.504373
-4.273729
-3.961724
-3.553079
-3.035952
-2.404079
-1.666587
-0.795103
-0.004869
0.003360
31.186407
89.460362
232.023953
464.536656
1240.815732
-4.999977
-4.999961
-4.999926
-4.999853
-4.999709
-4.999432
-4.998909
-4.997940
-4.996182
-4.993058
-4.987624
-4.978379
-4.963011
-4.938068
-4.898590
-4.837713
-4.746359
-4.613107
-4.424405
-4.165261
-3.820482
-3.376291
-2.821833
-2.145246
-1.352521
-0.154684
0.000884
6.249459
74.580972
211.517429
435.242696
1324.658918
-4.999989
-4.999980
-4.999962
-4.999921
-4.999839
-4.999673
-4.999351
-4.998733
-4.997574
-4.995443
-4.991610
-4.984871
-4.973297
-4.953901
-4.922221
-4.871842
-4.793942
-4.676978
-4.506684
-4.266618
-3.939416
-3.508823
-2.962556
-2.292936
-1.518993
-0.529944
-0.000538
0.009392
65.080615
191.392523
403.790676
1346.091624
-4.999995
-4.999991
-4.999981
-4.999960
-4.999914
-4.999819
-4.999626
-4.999242
-4.998491
-4.997054
-4.994364
-4.989438
-4.980627
-4.965242
-4.939048
-4.895604
-4.825502
-4.715582
-4.548345
-4.301905
-3.950984
-3.469658
-2.836358
-2.042931
-1.096590
-0.006285
-0.001982
18.612324
59.074033
172.805238
371.944607
1302.925565
-4.999998
-4.999996
-4.999992
-4.999982
-4.999959
-4.999911
-4.999809
-4.999597
-4.999167
-4.998314
-4.996658
-4.993516
-4.987700
-4.977201
-4.958750
-4.927216
-4.874884
-4.790704
-4.659696
-4.462859
-4.178018
-3.782034
-3.254731
-2.582577
-1.776620
-0.776206
-0.007344
0.005437
47.758486
151.834173
337.864723
1254.296187
-4.999999
-4.999999
-4.999997
-4.999992
-4.999982
-4.999959
-4.999907
-4.999796
-4.999559
-4.999065
-4.998062
-4.996066
-4.992193
-4.984862
-4.971346
-4.947106
-4.904870
-4.833484
-4.716635
-4.531700
-4.249155
-3.833077
-3.243703
-2.440108
-1.420033
-0.006502
-0.004722
11.931988
41.378547
133.259968
304.220219
1202.290959
-5.000000
-5.000000
-4.999999
-4.999997
-4.999993
-4.999983
-4.999961
-4.999909
-4.999795
-4.999545
-4.999012
-4.997902
-4.995648
-4.991191
-4.982612
-4.966571
-4.937471
-4.886353
-4.799574
-4.657558
-4.434164
-4.097612
-3.614183
-2.954912
-2.112421
-1.066719
-0.008604
0.000654
32.384913
113.618735
268.853451
1143.396052
-5.000000
-5.000000
-5.000000
-4.999999
-4.999998
-4.999994
-4.999985
-4.999964
-4.999913
-4.999796
-4.999533
-4.998953
-4.997707
-4.995098
-4.989780
-4.979244
-4.958986
-4.921245
-4.853246
-4.735031
-4.537259
-4.219859
-3.733088
-3.020589
-2.049508
-0.614460
-0.006673
6.709595
26.359922
95.860065
234.141021
1079.887329
-5.000000
-5.000000
-5.000000
-5.000000
-4.999999
-4.999998
-4.999995
-4.999988
-4.999969
-4.999923
-4.999813
-4.999554
-4.998964
-4.997653
-4.994818
-4.988871
-4.976778
-4.952996
-4.907844
-4.825286
-4.680267
-4.436296
-4.044714
-3.448549
-2.594471
-1.468829
-0.009358
-0.003788
19.530605
78.048801
198.363541
1007.458992
-5.000000
-5.000000
-5.000000
-5.000000
-5.000000
-5.000000
-4.999999
-4.999997
-4.999991
-4.999975
-4.999936
-4.999836
-4.999591
-4.999006
-4.997648
-4.994585
-4.987889
-4.973724
-4.944781
-4.887780
-4.779813
-4.583630
-4.242679
-3.678360
-2.798255
-1.483451
-0.007717
2.989596
14.485030
62.018344
163.859329
928.739365
-5.000000
-5.000000
-5.000000
-5.000000
-5.000000
-5.000000
-5.000000
-4.999999
-4.999998
-4.999994
-4.999983
-4.999953
-4.999872
-4.999663
-4.999136
-4.997846
-4.994785
-4.987763
-4.972227
-4.939170
-4.871744
-4.740415
-4.497253
-4.071629
-3.368458
-2.310688
-0.544044
-0.007072
9.692103
46.758097
129.312677
838.260747
-5.000000
-5.000000
-5.000000
-5.000000
-5.000000
-5.000000
-5.000000
-5.000000
-5.000000
-4.999999
-4.999997
-4.999990
-4.999969
-4.999911
-4.999750
-4.999315
-4.998175
-4.995290
-4.988245
-4.971687
-4.934348
-4.853842
-4.688571
-4.367201
-3.778071
-2.778185
-1.097959
0.733976
6.089196
33.489127
97.190936
739.155010
-5.000000
-5.000000
-5.000000
-5.000000
-5.000000
-5.000000
-5.000000
-5.000000
-5.000000
-5.000000
-5.000000
-4.999999
-4.999995
-4.999985
-4.999952
-4.999852
-4.999556
-4.998710
-4.996375
-4.990173
-4.974366
-4.935865
-4.846587
-4.650404
-4.244431
-3.460170
-2.054827
-0.008704
3.208980
21.719282
66.727003
624.314887
-5.000000
-5.000000
-5.000000
-5.000000
-5.000000
-5.000000
-5.000000
-5.000000
-5.000000
-5.000000
-5.000000
-5.000000
-5.000000
-4.999999
-4.999995
-4.999981
-4.999935
-4.999781
-4.999283
-4.997737
-4.993121
-4.979944
-4.944154
-4.852240
-4.630605
-4.132230
-3.113670
-1.026238
1.263761
12.345631
40.610825
497.543848
-5.000000
-5.000000
-5.000000
-5.000000
-5.000000
-5.000000
-5.000000
-5.000000
-5.000000
-5.000000
-5.000000
-5.000000
-5.000000
-5.000000
-5.000000
-4.999999
-4.999996
-4.999985
-4.999942
-4.999775
-4.999158
-4.996958
-4.989449
-4.965066
-4.890278
-4.676045
-4.102855
-2.750662
0.165538
5.201425
18.992419
349.445511
-5.000000
-5.000000
-5.000000
-5.000000
-5.000000
-5.000000
-5.000000
-5.000000
-5.000000
-5.000000
-5.000000
-5.000000
-5.000000
-5.000000
-5.000000
-5.000000
-5.000000
-5.000000
-4.999999
-4.999995
-4.999978
-4.999897
-4.999527
-4.997844
-4.990369
-4.958685
-4.831758
-4.377278
-2.817243
0.977393
4.828351
184.690718
-5.000000
-5.000000
-5.000000
-5.000000
-5.000000
-5.000000
-5.000000
-5.000000
-5.000000
-5.000000
-5.000000
-5.000000
-5.000000
-5.000000
-5.000000
-5.000000
-5.000000
-5.000000
-5.000000
-5.000000
-5.000000
-4.999999
-4.999997
-4.999984
-4.999930
-4.999700
-4.998771
-4.995277
-4.983473
-4.942884
-4.870248
-4.313888
-5.000000
-5.000000
-5.000000
-5.000000
-5.000000
-5.000000
-5.000000
-5.000000
-5.000000
-5.000000
-5.000000
-5.000000
-5.000000
-5.000000
-5.000000
-5.000000
-5.000000
-5.000000
-5.000000
-5.000000
-5.000000
-5.000000
-5.000000
-5.000000
-5.000000
-4.999999
-4.999995
-4.999982
-4.999940
-4.999799
-4.999540
-4.998234
-5.000000
-5.000000
-5.000000
-5.000000
-5.000000
-5.000000
-5.000000
-5.000000
-5.000000
-5.000000
-5.000000
-5.000000
-5.000000
-5.000000
-5.000000
-5.000000
-5.000000
-5.000000
-5.000000
-5.000000
-5.000000
-5.000000
-5.000000
-5.000000
-5.000000
-5.000000
-5.000000
-5.000000
-5.000000
-5.000000
-4.999999
-4.999996
-5.000000
-5.000000
-5.000000
-5.000000
-5.000000
-5.000000
-5.000000
-5.000000
-5.000000
-5.000000
-5.000000
-5.000000
-5.000000
-5.000000
-5.000000
-5.000000
-5.000000
-5.000000
-5.000000
-5.000000
-5.000000
-5.000000
-5.000000
-5.000000
-5.000000
-5.000000
-5.000000
-5.000000
-5.000000
-5.000000
-5.000000
-5.000000
-5.000000
-5.000000
-5.000000
-5.000000
-5.000000
-5.000000
-5.000000
-5.000000
-5.000000
-5.000000
-5.000000
-5.000000
-5.000000
-5.000000
-5.000000
-5.000000