<?xml version='1.0' encoding='UTF-8'?>
<VTKFile xmlns='VTK' byte_order='LittleEndian' version='0.1' type='UnstructuredGrid'>
<UnstructuredGrid>
<Piece NumberOfCells='1816' NumberOfPoints='1816'>
<Points>
<DataArray NumberOfComponents='3' type='Float32' Name='Position' format='ascii'>
1.690000 0.400000 0.000000
1.690000 0.412500 0.000000
1.690000 0.425000 0.000000
1.690000 0.437500 0.000000
1.690000 0.450000 0.000000
1.690000 0.462500 0.000000
1.690000 0.475000 0.000000
1.690000 0.487500 0.000000
1.727500 0.400000 0.000000
1.727500 0.412500 0.000000
1.727500 0.425000 0.000000
1.727500 0.437500 0.000000
1.727500 0.450000 0.000000
1.727500 0.462500 0.000000
1.727500 0.475000 0.000000
1.727500 0.487500 0.000000
0.025000 0.000000 0.000000
0.025000 0.012500 0.000000
0.025000 0.025000 0.000000
0.025000 0.037500 0.000000
0.025000 0.050000 0.000000
0.025000 0.062500 0.000000
0.025000 0.075000 0.000000
0.025000 0.087500 0.000000
0.025000 0.100000 0.000000
0.025000 0.112500 0.000000
0.025000 0.125000 0.000000
0.025000 0.137500 0.000000
0.025000 0.150000 0.000000
0.025000 0.162500 0.000000
0.025000 0.175000 0.000000
0.025000 0.187500 0.000000
0.025000 0.200000 0.000000
0.025000 0.212500 0.000000
0.025000 0.225000 0.000000
0.025000 0.237500 0.000000
0.025000 0.250000 0.000000
0.025000 0.262500 0.000000
0.025000 0.275000 0.000000
0.025000 0.287500 0.000000
0.025000 0.300000 0.000000
0.025000 0.312500 0.000000
0.025000 0.325000 0.000000
0.025000 0.337500 0.000000
0.025000 0.350000 0.000000
0.025000 0.362500 0.000000
0.025000 0.375000 0.000000
0.025000 0.387500 0.000000
1.765000 0.400000 0.000000
1.765000 0.412500 0.000000
1.765000 0.425000 0.000000
1.765000 0.437500 0.000000
1.765000 0.450000 0.000000
1.765000 0.462500 0.000000
1.765000 0.475000 0.000000
1.765000 0.487500 0.000000
0.062500 0.000000 0.000000
0.062500 0.012500 0.000000
0.062500 0.025000 0.000000
0.062500 0.037500 0.000000
0.062500 0.050000 0.000000
0.062500 0.062500 0.000000
0.062500 0.075000 0.000000
0.062500 0.087500 0.000000
0.062500 0.100000 0.000000
0.062500 0.112500 0.000000
0.062500 0.125000 0.000000
0.062500 0.137500 0.000000
0.062500 0.150000 0.000000
0.062500 0.162500 0.000000
0.062500 0.175000 0.000000
0.062500 0.187500 0.000000
0.062500 0.200000 0.000000
0.062500 0.212500 0.000000
0.062500 0.225000 0.000000
0.062500 0.237500 0.000000
0.062500 0.250000 0.000000
0.062500 0.262500 0.000000
0.062500 0.275000 0.000000
0.062500 0.287500 0.000000
0.062500 0.300000 0.000000
0.062500 0.312500 0.000000
0.062500 0.325000 0.000000
0.062500 0.337500 0.000000
0.062500 0.350000 0.000000
0.062500 0.362500 0.000000
0.062500 0.375000 0.000000
0.062500 0.387500 0.000000
1.802500 0.400000 0.000000
1.802500 0.412500 0.000000
1.802500 0.425000 0.000000
1.802500 0.437500 0.000000
1.802500 0.450000 0.000000
1.802500 0.462500 0.000000
1.802500 0.475000 0.000000
1.802500 0.487500 0.000000
0.100000 0.000000 0.000000
0.100000 0.012500 0.000000
0.100000 0.025000 0.000000
0.100000 0.037500 0.000000
0.100000 0.050000 0.000000
0.100000 0.062500 0.000000
0.100000 0.075000 0.000000
0.100000 0.087500 0.000000
0.100000 0.100000 0.000000
0.100000 0.112500 0.000000
0.100000 0.125000 0.000000
0.100000 0.137500 0.000000
0.100000 0.150000 0.000000
0.100000 0.162500 0.000000
0.100000 0.175000 0.000000
0.100000 0.187500 0.000000
0.100000 0.200000 0.000000
0.100000 0.212500 0.000000
0.100000 0.225000 0.000000
0.100000 0.237500 0.000000
0.100000 0.250000 0.000000
0.100000 0.262500 0.000000
0.100000 0.275000 0.000000
0.100000 0.287500 0.000000
0.100000 0.300000 0.000000
0.100000 0.312500 0.000000
0.100000 0.325000 0.000000
0.100000 0.337500 0.000000
0.100000 0.350000 0.000000
0.100000 0.362500 0.000000
0.100000 0.375000 0.000000
0.100000 0.387500 0.000000
1.840000 0.400000 0.000000
1.840000 0.412500 0.000000
1.840000 0.425000 0.000000
1.840000 0.437500 0.000000
1.840000 0.450000 0.000000
1.840000 0.462500 0.000000
1.840000 0.475000 0.000000
1.840000 0.487500 0.000000
0.137500 0.000000 0.000000
0.137500 0.012500 0.000000
0.137500 0.025000 0.000000
0.137500 0.037500 0.000000
0.137500 0.050000 0.000000
0.137500 0.062500 0.000000
0.137500 0.075000 0.000000
0.137500 0.087500 0.000000
0.137500 0.100000 0.000000
0.137500 0.112500 0.000000
0.137500 0.125000 0.000000
0.137500 0.137500 0.000000
0.137500 0.150000 0.000000
0.137500 0.162500 0.000000
0.137500 0.175000 0.000000
0.137500 0.187500 0.000000
0.137500 0.200000 0.000000
0.137500 0.212500 0.000000
0.137500 0.225000 0.000000
0.137500 0.237500 0.000000
0.137500 0.250000 0.000000
0.137500 0.262500 0.000000
0.137500 0.275000 0.000000
0.137500 0.287500 0.000000
0.137500 0.300000 0.000000
0.137500 0.312500 0.000000
0.137500 0.325000 0.000000
0.137500 0.337500 0.000000
0.137500 0.350000 0.000000
0.137500 0.362500 0.000000
0.137500 0.375000 0.000000
0.137500 0.387500 0.000000
1.877500 0.400000 0.000000
1.877500 0.412500 0.000000
1.877500 0.425000 0.000000
1.877500 0.437500 0.000000
1.877500 0.450000 0.000000
1.877500 0.462500 0.000000
1.877500 0.475000 0.000000
1.877500 0.487500 0.000000
0.175000 0.000000 0.000000
0.175000 0.012500 0.000000
0.175000 0.025000 0.000000
0.175000 0.037500 0.000000
0.175000 0.050000 0.000000
0.175000 0.062500 0.000000
0.175000 0.075000 0.000000
0.175000 0.087500 0.000000
0.175000 0.100000 0.000000
0.175000 0.112500 0.000000
0.175000 0.125000 0.000000
0.175000 0.137500 0.000000
0.175000 0.150000 0.000000
0.175000 0.162500 0.000000
0.175000 0.175000 0.000000
0.175000 0.187500 0.000000
0.175000 0.200000 0.000000
0.175000 0.212500 0.000000
0.175000 0.225000 0.000000
0.175000 0.237500 0.000000
0.175000 0.250000 0.000000
0.175000 0.262500 0.000000
0.175000 0.275000 0.000000
0.175000 0.287500 0.000000
0.175000 0.300000 0.000000
0.175000 0.312500 0.000000
0.175000 0.325000 0.000000
0.175000 0.337500 0.000000
0.175000 0.350000 0.000000
0.175000 0.362500 0.000000
0.175000 0.375000 0.000000
0.175000 0.387500 0.000000
1.915000 0.400000 0.000000
1.915000 0.412500 0.000000
1.915000 0.425000 0.000000
1.915000 0.437500 0.000000
1.915000 0.450000 0.000000
1.915000 0.462500 0.000000
1.915000 0.475000 0.000000
1.915000 0.487500 0.000000
0.212500 0.000000 0.000000
0.212500 0.012500 0.000000
0.212500 0.025000 0.000000
0.212500 0.037500 0.000000
0.212500 0.050000 0.000000
0.212500 0.062500 0.000000
0.212500 0.075000 0.000000
0.212500 0.087500 0.000000
0.212500 0.100000 0.000000
0.212500 0.112500 0.000000
0.212500 0.125000 0.000000
0.212500 0.137500 0.000000
0.212500 0.150000 0.000000
0.212500 0.162500 0.000000
0.212500 0.175000 0.000000
0.212500 0.187500 0.000000
0.212500 0.200000 0.000000
0.212500 0.212500 0.000000
0.212500 0.225000 0.000000
0.212500 0.237500 0.000000
0.212500 0.250000 0.000000
0.212500 0.262500 0.000000
0.212500 0.275000 0.000000
0.212500 0.287500 0.000000
0.212500 0.300000 0.000000
0.212500 0.312500 0.000000
0.212500 0.325000 0.000000
0.212500 0.337500 0.000000
0.212500 0.350000 0.000000
0.212500 0.362500 0.000000
0.212500 0.375000 0.000000
0.212500 0.387500 0.000000
1.952500 0.400000 0.000000
1.952500 0.412500 0.000000
1.952500 0.425000 0.000000
1.952500 0.437500 0.000000
1.952500 0.450000 0.000000
1.952500 0.462500 0.000000
1.952500 0.475000 0.000000
1.952500 0.487500 0.000000
0.250000 0.000000 0.000000
0.250000 0.012500 0.000000
0.250000 0.025000 0.000000
0.250000 0.037500 0.000000
0.250000 0.050000 0.000000
0.250000 0.062500 0.000000
0.250000 0.075000 0.000000
0.250000 0.087500 0.000000
0.250000 0.100000 0.000000
0.250000 0.112500 0.000000
0.250000 0.125000 0.000000
0.250000 0.137500 0.000000
0.250000 0.150000 0.000000
0.250000 0.162500 0.000000
0.250000 0.175000 0.000000
0.250000 0.187500 0.000000
0.250000 0.200000 0.000000
0.250000 0.212500 0.000000
0.250000 0.225000 0.000000
0.250000 0.237500 0.000000
0.250000 0.250000 0.000000
0.250000 0.262500 0.000000
0.250000 0.275000 0.000000
0.250000 0.287500 0.000000
0.250000 0.300000 0.000000
0.250000 0.312500 0.000000
0.250000 0.325000 0.000000
0.250000 0.337500 0.000000
0.250000 0.350000 0.000000
0.250000 0.362500 0.000000
0.250000 0.375000 0.000000
0.250000 0.387500 0.000000
1.990000 0.400000 0.000000
1.990000 0.412500 0.000000
1.990000 0.425000 0.000000
1.990000 0.437500 0.000000
1.990000 0.450000 0.000000
1.990000 0.462500 0.000000
1.990000 0.475000 0.000000
1.990000 0.487500 0.000000
0.287500 0.000000 0.000000
0.287500 0.012500 0.000000
0.287500 0.025000 0.000000
0.287500 0.037500 0.000000
0.287500 0.050000 0.000000
0.287500 0.062500 0.000000
0.287500 0.075000 0.000000
0.287500 0.087500 0.000000
0.287500 0.100000 0.000000
0.287500 0.112500 0.000000
0.287500 0.125000 0.000000
0.287500 0.137500 0.000000
0.287500 0.150000 0.000000
0.287500 0.162500 0.000000
0.287500 0.175000 0.000000
0.287500 0.187500 0.000000
0.287500 0.200000 0.000000
0.287500 0.212500 0.000000
0.287500 0.225000 0.000000
0.287500 0.237500 0.000000
0.287500 0.250000 0.000000
0.287500 0.262500 0.000000
0.287500 0.275000 0.000000
0.287500 0.287500 0.000000
0.287500 0.300000 0.000000
0.287500 0.312500 0.000000
0.287500 0.325000 0.000000
0.287500 0.337500 0.000000
0.287500 0.350000 0.000000
0.287500 0.362500 0.000000
0.287500 0.375000 0.000000
0.287500 0.387500 0.000000
2.027500 0.400000 0.000000
2.027500 0.412500 0.000000
2.027500 0.425000 0.000000
2.027500 0.437500 0.000000
2.027500 0.450000 0.000000
2.027500 0.462500 0.000000
2.027500 0.475000 0.000000
2.027500 0.487500 0.000000
0.325000 0.000000 0.000000
0.325000 0.012500 0.000000
0.325000 0.025000 0.000000
0.325000 0.037500 0.000000
0.325000 0.050000 0.000000
0.325000 0.062500 0.000000
0.325000 0.075000 0.000000
0.325000 0.087500 0.000000
0.325000 0.100000 0.000000
0.325000 0.112500 0.000000
0.325000 0.125000 0.000000
0.325000 0.137500 0.000000
0.325000 0.150000 0.000000
0.325000 0.162500 0.000000
0.325000 0.175000 0.000000
0.325000 0.187500 0.000000
0.325000 0.200000 0.000000
0.325000 0.212500 0.000000
0.325000 0.225000 0.000000
0.325000 0.237500 0.000000
0.325000 0.250000 0.000000
0.325000 0.262500 0.000000
0.325000 0.275000 0.000000
[...]
<PointData>
<DataArray NumberOfComponents='1' type='Int32' Name='ParticleType' format='ascii'>
5
5
5
5
5
5
5
5
5
5
5
5
5
5
5
5
2
2
2
2
2
2
2
2
2
2
2
2
2
2
2
2
2
2
2
2
2
2
2
2
1
1
0
0
0
0
0
0
5
5
5
5
5
5
5
5
2
2
2
2
2
2
2
2
2
2
2
2
2
2
2
2
2
2
2
2
2
2
2
2
1
1
0
0
0
0
0
0
5
5
5
5
5
5
5
5
2
2
2
2
2
2
2
2
2
2
2
2
2
2
2
2
2
2
2
2
2
2
2
2
1
1
0
0
0
0
0
0
5
5
5
5
5
5
5
5
2
2
2
2
2
2
2
2
2
2
2
2
2
2
2
2
2
2
2
2
2
2
2
1
1
0
0
0
0
0
0
0
5
5
5
5
5
5
5
5
2
2
2
2
2
2
2
2
2
2
2
2
2
2
2
2
2
2
2
2
2
2
2
1
1
0
0
0
0
0
0
0
5
5
5
5
5
5
5
5
2
2
2
2
2
2
2
2
2
2
2
2
2
2
2
2
2
2
2
2
2
2
2
1
1
0
0
0
0
0
0
0
5
5
5
5
5
5
5
5
2
2
2
2
2
2
2
2
2
2
2
2
2
2
2
2
2
2
2
2
2
2
2
1
1
0
0
0
0
0
0
0
5
5
5
5
5
5
5
5
2
2
2
2
2
2
2
2
2
2
2
2
2
2
2
2
2
2
2
2
2
2
2
1
1
0
0
0
0
0
0
0
5
5
5
5
5
5
5
5
2
2
2
2
2
2
2
2
2
2
2
2
2
2
2
2
2
2
2
2
2
2
2
1
0
0
0
0
0
0
0
0
5
5
5
5
5
5
5
5
2
2
2
2
2
2
2
2
2
2
2
2
2
2
2
2
2
2
2
2
2
2
2
1
1
0
0
0
0
0
0
0
5
5
5
5
5
5
5
5
2
2
2
2
2
2
2
2
2
2
2
2
2
2
2
2
2
2
2
2
2
2
2
1
0
0
0
0
0
0
0
0
5
5
5
5
5
5
5
5
2
2
2
2
2
2
2
2
2
2
2
2
2
2
2
2
2
2
2
2
2
2
1
1
0
0
0
0
0
0
0
0
5
5
5
5
5
5
5
5
2
2
2
2
2
2
2
2
2
2
2
2
2
2
2
2
2
2
2
2
2
2
1
1
0
0
0
0
0
0
0
0
5
5
5
5
5
5
5
5
2
2
2
2
2
2
2
2
2
2
2
2
2
2
2
2
2
2
2
2
2
2
1
1
0
0
0
0
0
0
0
0
2
2
2
2
2
2
2
2
2
2
2
2
2
2
2
2
2
2
2
2
2
2
1
1
0
0
0
0
0
0
0
0
2
2
2
2
2
2
2
2
2
2
2
2
2
2
2
2
2
2
2
2
2
2
2
1
1
0
0
0
0
0
0
0
2
2
2
2
2
2
2
2
2
2
2
2
2
2
2
2
2
2
2
2
2
2
2
1
0
0
0
0
0
0
0
0
2
2
2
2
2
2
2
2
2
2
2
2
2
2
2
2
2
2
2
2
2
2
1
1
0
0
0
0
0
0
0
0
2
2
2
2
2
2
2
2
2
2
2
2
2
2
2
2
2
2
2
2
2
2
2
1
1
0
0
0
0
0
0
0
2
2
2
2
2
2
2
2
2
2
2
2
2
2
2
2
2
2
2
2
2
2
2
1
1
0
0
0
0
0
0
0
2
2
2
2
2
2
2
2
2
2
2
2
2
2
2
2
2
2
2
2
2
2
2
1
1
0
0
0
0
0
0
0
2
2
2
2
2
2
2
2
2
2
2
2
2
2
2
2
2
2
2
2
2
2
2
1
1
0
0
0
0
0
0
0
2
2
2
2
2
2
2
2
2
2
2
2
2
2
2
2
2
2
2
2
2
2
2
1
1
0
0
0
0
0
0
0
2
2
2
2
2
2
2
2
2
2
2
2
2
2
2
2
2
2
2
2
2
2
2
1
1
0
0
0
0
0
0
0
2
2
2
2
2
2
2
2
2
2
2
2
2
2
2
2
2
2
2
2
2
2
2
1
1
0
0
0
0
0
0
0
2
2
2
2
2
2
2
2
2
2
2
2
2
2
2
2
2
2
2
2
2
2
2
1
1
0
0
0
0
0
0
0
2
2
2
2
2
2
2
2
2
2
2
2
2
2
2
2
2
2
2
2
2
2
2
1
1
0
0
0
0
0
0
0
2
2
2
2
2
2
2
2
2
2
2
2
2
2
2
2
2
2
2
2
2
2
2
2
1
1
0
0
0
0
0
0
2
2
2
2
2
2
2
2
2
2
2
2
2
2
2
2
2
2
2
2
2
2
2
2
1
0
0
0
0
0
0
0
2
2
2
2
2
2
2
2
2
2
2
2
2
2
2
2
2
2
2
2
2
2
2
2
1
1
0
0
0
0
0
0
2
2
2
2
2
2
2
2
2
2
2
2
2
2
2
2
2
2
2
2
2
2
2
2
1
1
0
0
0
0
0
0
2
2
2
2
2
2
2
2
2
2
2
2
2
2
2
2
2
2
2
2
2
2
2
2
1
1
0
0
0
0
0
0
2
2
2
2
2
2
2
2
2
2
2
2
2
2
2
2
2
2
2
2
2
2
2
2
1
1
0
0
0
0
0
0
2
2
2
2
2
2
2
2
2
2
2
2
2
2
2
2
2
2
2
2
2
2
2
2
1
1
0
0
0
0
0
0
2
2
2
2
2
2
2
2
2
2
2
2
2
2
2
2
2
2
2
2
2
2
2
2
1
1
0
0
0
0
0
0
2
2
2
2
2
2
2
2
2
2
2
2
2
2
2
2
2
2
2
2
2
2
2
2
1
1
0
0
0
0
0
0
2
2
2
2
2
2
2
2
2
2
2
2
2
2
2
2
2
2
2
2
2
2
2
2
2
1
0
0
0
0
0
0
2
2
2
2
2
2
2
2
2
2
2
2
2
2
2
2
2
2
2
2
2
2
2
2
1
1
0
0
0
0
0
0
2
2
2
2
2
2
2
2
2
2
2
2
2
2
2
2
2
2
2
2
2
2
2
2
2
1
1
0
0
0
0
0
2
2
2
2
2
2
2
2
2
2
2
2
2
2
2
2
2
2
2
2
2
2
2
2
2
1
1
0
0
0
0
0
2
2
2
2
2
2
2
2
2
2
2
2
2
2
2
2
2
2
2
2
2
2
2
2
2
1
1
0
0
0
0
0
2
2
2
2
2
2
2
2
2
2
2
2
2
2
2
2
2
2
2
2
2
2
2
2
2
1
1
0
0
0
0
0
2
2
2
2
2
2
2
2
2
2
2
2
2
2
2
2
2
2
2
2
2
2
2
2
2
1
1
0
0
0
0
0
2
2
2
2
2
2
2
2
2
2
2
2
2
2
2
2
2
2
2
2
2
2
2
2
2
1
1
0
0
0
0
0
2
2
2
2
2
2
2
2
2
2
2
2
2
2
2
2
2
2
2
2
2
2
2
2
2
1
1
0
0
0
0
0
2
2
2
2
2
2
2
2
2
2
2
2
2
2
2
2
2
2
2
2
2
2
2
2
2
1
1
0
0
0
0
0
2
2
2
2
2
2
2
2
2
2
2
2
2
2
2
2
2
2
2
2
2
2
2
2
2
1
1
0
0
0
0
0
2
2
2
2
2
2
2
2
2
2
2
2
2
2
2
2
2
2
2
2
2
2
2
2
2
1
1
0
0
0
0
0
2
2
2
2
2
2
2
2
2
2
2
2
2
2
2
2
2
2
2
2
2
2
2
2
2
1
1
0
0
0
0
0
2
2
2
2
2
2
2
2
2
2
2
2
2
2
2
2
2
2
2
2
2
2
2
2
2
2
1
0
0
0
0
0
2
2
2
2
2
2
2
2
2
2
2
2
2
2
2
2
2
2
2
2
2
2
2
2
2
2
1
0
0
0
0
0
2
2
2
2
2
2
2
2
2
2
2
2
2
2
2
2
2
2
2
2
2
2
2
2
2
2
1
0
0
0
0
0
2
2
2
2
2
2
2
2
2
2
2
2
2
2
2
2
2
2
2
2
2
2
2
2
2
2
2
1
0
0
0
0
</DataArray>
<DataArray NumberOfComponents='1' type='Float32' Name='Temperature' format='ascii'>
-3.000000
-3.000000
-3.000000
-3.000000
-3.000000
-3.000000
-3.000000
-3.000000
-3.000000
-3.000000
-3.000000
-3.000000
-3.000000
-3.000000
-3.000000
-3.000000
-4.933415
-4.926358
-4.914819
-4.896740
-4.871357
-4.837571
-4.794016
-4.739070
-4.670878
-4.587376
-4.486336
-4.365422
-4.222263
-4.054547
-3.860126
-3.637133
-3.384106
-3.100070
-2.784535
-2.437267
-2.057574
-1.642902
-1.184705
-0.681618
-0.006591
-0.001968
4.316802
21.060224
38.884639
57.584011
73.445675
85.917719
-3.000000
-3.000000
-3.000000
-3.000000
-3.000000
-3.000000
-3.000000
-3.000000
-4.931031
-4.923679
-4.911657
-4.892817
-4.866358
-4.831131
-4.785702
-4.728372
-4.657183
-4.569948
-4.464281
-4.337641
-4.187386
-4.010849
-3.805431
-3.568714
-3.298612
-2.993544
-2.652639
-2.275948
-1.864699
-1.420951
-0.952244
-0.438364
-0.002542
0.007042
17.131718
36.932786
61.367575
87.356048
109.751710
127.506514
-3.000000
-3.000000
-3.000000
-3.000000
-3.000000
-3.000000
-3.000000
-3.000000
-4.929835
-4.922352
-4.910112
-4.890929
-4.863983
-4.828098
-4.781806
-4.723361
-4.650758
-4.561749
-4.453886
-4.324567
-4.171101
-3.990799
-3.781075
-3.539583
-3.264369
-2.954053
-2.608023
-2.226630
-1.811473
-1.364794
-0.896755
-0.371919
-0.006000
0.008164
23.160920
48.675308
80.323981
114.179603
143.523744
166.899727
-3.000000
-3.000000
-3.000000
-3.000000
-3.000000
-3.000000
-3.000000
-3.000000
-4.928574
-4.920899
-4.908336
-4.888629
-4.860913
-4.823947
-4.776183
-4.715778
-4.640609
-4.548308
-4.436305
-4.301884
-4.142266
-3.954693
-3.736510
-3.485219
-3.198474
-2.873979
-2.509321
-2.101897
-1.649179
-1.150706
-0.606985
-0.008985
0.001935
9.612835
33.342752
64.058970
101.977594
142.765020
178.414904
207.062402
-3.000000
-3.000000
-3.000000
-3.000000
-3.000000
-3.000000
-3.000000
-3.000000
-4.927741
-4.919949
-4.907192
-4.887173
-4.859006
-4.821420
-4.772821
-4.711303
-4.634659
-4.540397
-4.425770
-4.287810
-4.123391
-3.929299
-3.702339
-3.439486
-3.138084
-2.796121
-2.412552
-1.987729
-1.523238
-1.026921
-0.478311
-0.007124
0.006033
18.277608
42.731640
77.427163
121.104623
168.780525
210.740855
244.650086
-3.000000
-3.000000
-3.000000
-3.000000
-3.000000
-3.000000
-3.000000
-3.000000
-4.927383
-4.919562
-4.906760
-4.886675
-4.858424
-4.820740
-4.772031
-4.710399
-4.633640
-4.539266
-4.424526
-4.286444
-4.121871
-3.927555
-3.700247
-3.436851
-3.134636
-2.791518
-2.406412
-1.979685
-1.512901
-1.014619
-0.459275
-0.004990
0.004226
20.384791
48.012635
87.917836
138.451783
193.779984
242.572927
282.114959
-3.000000
-3.000000
-3.000000
-3.000000
-3.000000
-3.000000
-3.000000
-3.000000
-4.926926
-4.919031
-4.906106
-4.885824
-4.857291
-4.819220
-4.770002
-4.707717
-4.630145
-4.534784
-4.418881
-4.279475
-4.113452
-3.917618
-3.688809
-3.424028
-3.120644
-2.776655
-2.391000
-1.963993
-1.496934
-0.998918
-0.437608
-0.007395
0.004407
22.939189
54.459462
99.287019
155.901254
218.007730
272.986149
317.764921
-3.000000
-3.000000
-3.000000
-3.000000
-3.000000
-3.000000
-3.000000
-3.000000
-4.926504
-4.918537
-4.905489
-4.885011
-4.856191
-4.817726
-4.767982
-4.705013
-4.626569
-4.530120
-4.412891
-4.271905
-4.104049
-3.906158
-3.675124
-3.408045
-3.102420
-2.756397
-2.369055
-1.940805
-1.472805
-0.974978
-0.406886
-0.007227
0.006235
25.934420
61.002201
110.589617
173.253313
242.253208
303.600432
353.835722
-3.000000
-3.000000
-3.000000
-3.000000
-3.000000
-3.000000
-3.000000
-3.000000
-4.926256
-4.918245
-4.905123
-4.884523
-4.855524
-4.816802
-4.766701
-4.703242
-4.624134
-4.526797
-4.408396
-4.265892
-4.096115
-3.895862
-3.662020
-3.391740
-3.082622
-2.732901
-2.341468
-1.907425
-1.426557
-0.899345
-0.179110
-0.005398
3.389233
29.621420
67.272903
120.907400
189.110946
264.693284
332.229897
387.835600
-3.000000
-3.000000
-3.000000
-3.000000
-3.000000
-3.000000
-3.000000
-3.000000
-4.926063
-4.918012
-4.904823
-4.884108
-4.854930
-4.815941
-4.765451
-4.701432
-4.621535
-4.523104
-4.403224
-4.258774
-4.086514
-3.883207
-3.645769
-3.371459
-3.058105
-2.704349
-2.309880
-1.875770
-1.403381
-0.905577
-0.321261
-0.005864
0.009331
33.729668
74.036255
131.563067
205.173859
287.388694
361.290937
422.520691
-3.000000
-3.000000
-3.000000
-3.000000
-3.000000
-3.000000
-3.000000
-3.000000
-4.925891
-4.917796
-4.904528
-4.883679
-4.854289
-4.814982
-4.764026
-4.699340
-4.618513
-4.518820
-4.397275
-4.250694
-4.075802
-3.869360
-3.628341
-3.350117
-3.032678
-2.674807
-2.276098
-1.836565
-1.352847
-0.828508
-0.094915
0.000760
3.622318
37.621912
80.364684
141.464197
220.128038
308.632002
388.656152
455.382774
-3.000000
-3.000000
-3.000000
-3.000000
-3.000000
-3.000000
-3.000000
-3.000000
-4.925718
-4.917605
-4.904308
-4.883416
-4.853973
-4.814605
-4.763584
-4.698837
-4.617958
-4.518230
-4.396673
-4.250104
-4.075227
-3.868746
-3.627471
-3.348384
-3.028578
-2.664964
-2.253712
-1.789746
-1.267232
-0.685873
-0.006128
-0.001890
9.259765
39.814900
84.445248
149.412826
233.828691
329.333045
416.075763
488.814518
-3.000000
-3.000000
-3.000000
-3.000000
-3.000000
-3.000000
-3.000000
-3.000000
-4.923813
-4.915451
-4.901751
-4.880238
-4.849943
-4.809478
-4.757107
-4.690761
-4.608053
-4.506309
-4.382614
-4.233877
-4.056923
-3.848603
-3.605924
-3.326157
-3.006875
-2.645766
-2.240024
-1.785302
-1.273940
-0.704842
-0.009851
0.003424
7.858489
41.808499
89.801656
158.631896
247.829869
349.138774
441.693241
519.913441
-3.000000
-3.000000
-3.000000
-3.000000
-3.000000
-3.000000
-3.000000
-3.000000
-4.921393
-4.912841
-4.898843
-4.876884
-4.846004
-4.804822
-4.751617
-4.684334
-4.600603
-4.497759
-4.372873
-4.222791
-4.044168
-3.833503
-3.587162
-3.301397
-2.972412
-2.596561
-2.170844
-1.693438
-1.167828
-0.583470
-0.008205
0.003275
15.448437
45.926252
95.385481
167.466711
261.346768
368.199452
466.116469
549.374753
-4.926463
-4.918276
-4.904861
-4.883790
-4.854110
-4.814452
-4.763103
-4.698016
-4.616821
-4.516852
-4.395184
-4.248690
-4.074127
-3.868229
-3.627835
-3.349984
-3.031947
-2.671018
-2.263893
-1.805650
-1.288180
-0.710053
-0.004110
0.003198
8.227418
42.360160
92.065578
164.703403
260.024510
369.626593
470.978069
558.112859
-4.935875
-4.928425
-4.916191
-4.896922
-4.869683
-4.833133
-4.785588
-4.725023
-4.649078
-4.555073
-4.440038
-4.300755
-4.133829
-3.935776
-3.703157
-3.432751
-3.121768
-2.768108
-2.370636
-1.929588
-1.445515
-0.931413
-0.321620
0.001709
0.008688
36.309865
84.703193
157.231257
254.234220
367.317984
472.994446
564.940621
-4.940572
-4.933384
-4.921556
-4.902886
-4.876418
-4.840790
-4.794282
-4.734823
-4.659992
-4.567034
-4.452890
-4.314239
-4.147577
-3.949319
-3.715941
-3.444164
-3.131165
-2.774764
-2.373394
-1.925468
-1.424738
-0.871122
-0.070755
-0.000815
4.330892
38.086290
86.492157
159.024924
256.573965
371.468840
479.978097
575.715198
-4.948555
-4.942042
-4.931296
-4.914278
-4.890049
-4.857268
-4.814235
-4.758881
-4.688766
-4.601084
-4.492674
-4.360062
-4.199522
-4.007171
-3.779116
-3.511628
-3.201346
-2.845375
-2.440988
-1.984366
-1.464761
-0.877549
-0.009058
-0.003348
5.289690
34.776303
80.494000
151.948523
250.659476
369.033700
482.228443
583.501145
-4.952647
-4.946394
-4.936055
-4.919643
-4.896212
-4.864413
-4.822535
-4.768498
-4.699853
-4.613784
-4.507128
-4.376407
-4.217886
-4.027664
-3.801799
-3.536490
-3.228322
-2.874575
-2.473573
-2.025177
-1.529945
-0.999966
-0.377899
0.001016
0.009410
33.561841
80.410657
152.584392
252.257486
372.742819
489.182769
594.990837
-4.959542
-4.953945
-4.944663
-4.929877
-4.908668
-4.879728
-4.841382
-4.791584
-4.727895
-4.647482
-4.547121
-4.423215
-4.271835
-4.088794
-3.869760
-3.610436
-3.306828
-2.955593
-2.554489
-2.102961
-1.601627
-1.061614
-0.435974
-0.004409
0.009882
30.028627
73.921402
144.883033
245.716535
369.936249
491.573639
603.845376
-4.963082
-4.957736
-4.948848
-4.934650
-4.914214
-4.886220
-4.848982
-4.800434
-4.738123
-4.659203
-4.560443
-4.438256
-4.288737
-4.107726
-3.890910
-3.633962
-3.332764
-2.983715
-2.584155
-2.132975
-1.630265
-1.086097
-0.457476
0.000394
0.007446
28.741009
73.952299
145.482291
247.057356
373.352369
498.542379
616.216740
-4.968916
-4.964195
-4.956321
-4.943692
-4.925419
-4.900238
-4.866520
-4.822255
-4.765027
-4.692004
-4.599931
-4.485140
-4.343570
-4.170807
-3.962157
-3.712770
-3.417839
-3.072936
-2.674510
-2.220632
-1.711046
-1.154644
-0.518824
-0.005151
0.008253
25.183139
66.990660
137.125462
239.828160
370.101467
501.042017
626.315901
-4.971932
-4.967455
-4.959963
-4.947905
-4.930384
-4.906123
-4.873479
-4.830414
-4.774486
-4.702834
-4.612180
-4.498853
-4.358822
-4.187746
-3.981046
-3.733987
-3.441821
-3.100003
-2.704577
-2.252859
-1.743663
-1.184115
-0.546604
-0.000136
0.005316
23.410709
67.139382
137.720964
240.868192
373.128379
507.954396
639.726905
-4.976753
-4.972859
-4.966319
-4.955746
-4.940293
-4.918756
-4.889566
-4.850765
-4.799979
-4.734393
-4.650743
-4.545319
-4.413981
-4.252190
-4.055045
-3.817336
-3.533623
-3.198405
-2.806483
-2.353726
-1.837772
-1.263844
-0.614593
-0.005761
0.006563
19.916856
59.654497
128.658980
232.878182
369.341212
510.507213
651.283605
-4.979278
-4.975618
-4.969447
-4.959428
-4.944708
-4.924073
-4.895936
-4.858313
-4.808789
-4.744499
-4.662127
-4.557916
-4.427713
-4.267033
-4.071131
-3.835081
-3.553825
-3.222205
-2.835039
-2.387480
-1.875602
-1.301172
-0.652426
-0.000552
0.003157
17.459217
60.055444
129.310671
233.567117
371.858443
517.262285
665.932617
-4.983152
-4.980024
-4.974727
-4.966083
-4.953301
-4.935252
-4.910446
-4.877002
-4.832604
-4.774472
-4.699342
-4.603460
-4.482610
-4.332150
-4.147080
-3.922093
-3.651599
-3.329662
-2.949896
-2.505520
-1.989953
-1.400542
-0.733381
-0.006215
0.004936
14.161783
51.972373
119.494336
224.742804
367.424032
519.779806
679.207527
-4.985229
-4.982325
-4.977384
-4.969279
-4.957219
-4.940066
-4.916321
-4.884074
-4.840969
-4.784161
-4.710305
-4.615551
-4.495582
-4.345691
-4.160894
-3.936094
-3.666235
-3.346379
-2.971551
-2.536155
-2.033131
-1.453390
-0.794585
-0.000728
0.000932
10.714650
52.851059
120.290540
225.023431
369.282509
526.234502
695.345120
-4.988344
-4.985934
-4.981814
-4.975017
-4.964828
-4.950217
-4.929804
-4.901818
-4.864036
-4.813737
-4.747659
-4.661978
-4.552309
-4.413745
-4.240960
-4.028365
-3.770363
-3.461695
-3.097883
-2.675730
-2.194022
-1.652418
-1.066662
-0.354690
0.001364
0.009401
45.296799
110.452688
215.712592
364.194699
528.603045
710.660561
-4.990474
-4.988387
-4.984800
-4.978843
-4.969843
-4.956823
-4.938469
-4.913072
-4.878474
-4.832008
-4.770451
-4.689985
-4.586195
-4.454087
-4.288169
-4.082588
-3.831368
-3.528745
-3.169637
-2.750210
-2.268658
-1.724388
-1.131285
-0.414612
-0.005913
0.579139
41.384881
105.035407
210.213787
361.859375
532.984730
728.613279
-4.991805
-4.989889
-4.986575
-4.981032
-4.972586
-4.960255
-4.942710
-4.918215
-4.884566
-4.839031
-4.778302
-4.698465
-4.595001
-4.462826
-4.296380
-4.089796
-3.837140
-3.532755
-3.171716
-2.750368
-2.267063
-1.721278
-1.127335
-0.411941
-0.004170
0.009434
42.051366
105.589360
209.504925
362.377933
538.647926
747.702284
-4.993704
-4.992151
-4.989450
-4.984901
-4.977910
-4.967606
-4.952796
-4.931901
-4.902894
-4.863226
-4.809771
-4.738777
-4.645848
-4.525954
-4.373485
-4.182341
-3.946087
-3.658181
-3.312315
-2.902934
-2.426084
-1.879467
-1.272078
-0.559418
-0.006871
0.006101
31.572737
93.573115
198.227637
355.624945
540.290632
766.886045
-4.994792
-4.993416
-4.991002
-4.986900
-4.980528
-4.971027
-4.957207
-4.937482
-4.909794
-4.871534
-4.819476
-4.749727
-4.657700
-4.538131
-4.385137
-4.192335
-3.953047
-3.660598
-3.308753
-2.892321
-2.408038
-1.854382
-1.242371
-0.519683
0.001181
0.006923
34.817352
95.143990
197.184669
354.985260
544.946700
788.403999
-4.996120
-4.995036
-4.993123
-4.989846
-4.984707
-4.976962
-4.965570
-4.949122
-4.925762
-4.893100
-4.848138
-4.787196
-4.705873
-4.599046
-4.460908
-4.285058
-4.064636
-3.792477
-3.461287
-3.063888
-2.593761
-2.045627
-1.421809
-0.701429
-0.007622
0.003286
22.710400
82.240662
184.908289
346.995061
545.699480
810.847350
-4.996900
-4.995968
-4.994305
-4.991426
-4.986851
-4.979856
-4.969418
-4.954131
-4.932121
-4.900951
-4.857529
-4.798035
-4.717869
-4.611646
-4.473237
-4.295862
-4.072240
-3.794804
-3.456014
-3.048849
-2.567687
-2.008850
-1.378547
-0.646360
0.000574
0.004094
26.993444
84.150852
183.154172
344.883950
548.903812
835.437147
-4.997767
-4.997057
-4.995778
-4.993545
-4.989958
-4.984409
-4.976026
-4.963593
-4.945465
-4.919463
-4.882772
-4.831843
-4.762323
-4.669010
-4.545887
-4.386215
-4.182724
-3.927876
-3.614124
-3.234020
-2.779904
-2.243187
-1.613565
-0.886750
-0.008152
0.000635
12.833273
70.491453
169.932818
335.421251
548.220707
861.872605
-4.998292
-4.997703
-4.996632
-4.994736
-4.991641
-4.986770
-4.979279
-4.967975
-4.951213
-4.926781
-4.891784
-4.842534
-4.774466
-4.682105
-4.559095
-4.398310
-4.192031
-3.932151
-3.610348
-3.218193
-2.747350
-2.190074
-1.543684
-0.798216
0.000129
0.001231
18.514531
72.866859
167.398431
331.523813
549.295903
890.319242
-4.998819
-4.998387
-4.997592
-4.996171
-4.993822
-4.990076
-4.984237
-4.975304
-4.961875
-4.942032
-4.913219
-4.872106
-4.814478
-4.735145
-4.627909
-4.485616
-4.300321
-4.063596
-3.767005
-3.402752
-2.964450
-2.448174
-1.851098
-1.190104
-0.336956
-0.001389
1.682794
58.688575
153.350615
320.311212
546.376458
921.692340
-4.999143
-4.998803
-4.998168
-4.997015
-4.995070
-4.991905
-4.986867
-4.978995
-4.966916
-4.948709
-4.921760
-4.882612
-4.826823
-4.748876
-4.642153
-4.499037
-4.311160
-4.069802
-3.766400
-3.392976
-2.941999
-2.405034
-1.766539
-1.021826
-0.000120
-0.001300
9.227228
61.665158
149.981650
314.283679
544.358023
955.024712
-4.999437
-4.999198
-4.998747
-4.997917
-4.996498
-4.994152
-4.990358
-4.984339
-4.974962
-4.960617
-4.939073
-4.907320
-4.861408
-4.796302
-4.705779
-4.582402
-4.417602
-4.201910
-3.925390
-3.578296
-3.151993
-2.640256
-2.039058
-1.361678
-0.531404
-0.002693
0.007108
46.785486
135.188584
301.009026
538.039863
992.570343
-4.999618
-4.999441
-4.999102
-4.998466
-4.997353
-4.995470
-4.992348
-4.987271
-4.979166
-4.966462
-4.946926
-4.917466
-4.873931
-4.810923
-4.721681
-4.598072
-4.430768
-4.209650
-3.924495
-3.565912
-3.126455
-2.601957
-1.990780
-1.310405
-0.473309
-0.003043
0.009709
51.090088
131.096859
292.502204
531.548262
1032.146173
-4.999764
-4.999647
-4.999419
-4.998984
-4.998211
-4.996876
-4.994623
-4.990892
-4.984829
-4.975163
-4.960053
-4.936903
-4.902158
-4.851099
-4.777667
-4.674346
-4.532147
-4.340738
-4.088745
-3.764266
-3.355696
-2.853072
-2.249078
-1.549648
-0.713187
0.006240
0.003343
34.300831
115.627638
276.920321
520.163392
1077.495537
-4.999852
-4.999772
-4.999613
-4.999303
-4.998736
-4.997731
-4.995986
-4.993011
-4.988037
-4.979877
-4.966751
-4.946062
-4.914135
-4.865932
-4.794794
-4.692271
-4.548129
-4.350649
-4.087312
-3.745929
-3.316179
-2.791498
-2.169501
-1.464799
-0.619229
-0.005509
0.006970
41.115012
110.961622
265.560041
507.212658
1125.119522
-4.999914
-4.999864
-4.999761
-4.999557
-4.999173
-4.998475
-4.997230
-4.995052
-4.991312
-4.985017
-4.974628
-4.957838
-4.931281
-4.890205
-4.828137
-4.736612
-4.605054
-4.420965
-4.170554
-3.839925
-3.416846
-2.893033
-2.265316
-1.546878
-0.694131
-0.007886
0.007805
36.251554
100.451298
249.847776
489.071585
1180.668638
-4.999953
-4.999922
-4.999859
-4.999730
-4.999482
-4.999017
-4.998164
-4.996630
-4.993922
-4.989237
-4.981294
-4.968110
-4.946701
-4.912721
-4.860050
-4.780413
-4.663099
-4.494967
-4.260908
-3.944981
-3.532320
-3.011859
-2.378461
-1.642973
-0.776431
-0.006806
0.004685
31.580898
90.070525
233.006111
466.054069
1238.507798
-4.999976
-4.999958
-4.999922
-4.999845
-4.999693
-4.999400
-4.998845
-4.997815
-4.995941
-4.992600
-4.986764
-4.976788
-4.960113
-4.932877
-4.889455
-4.821953
-4.719762
-4.569315
-4.354298
-4.056579
-3.658140
-3.144180
-2.506392
-1.752327
-0.867148
-0.008802
0.005160
27.024022
79.525326
214.321146
437.294226
1318.379774
-4.999988
-4.999979
-4.999959
-4.999916
-4.999827
-4.999651
-4.999306
-4.998644
-4.997400
-4.995108
-4.990975
-4.983683
-4.971106
-4.949924
-4.915114
-4.859360
-4.772429
-4.640668
-4.446855
-4.170766
-3.790866
-3.287579
-2.647722
-1.873754
-0.963629
-0.007575
0.001616
22.850997
69.458640
194.394292
406.699409
1350.119584
-4.999995
-4.999990
-4.999980
-4.999958
-4.999910
-4.999811
-4.999611
-4.999213
-4.998436
-4.996953
-4.994181