<?xml version='1.0' encoding='UTF-8'?>
<VTKFile xmlns='VTK' byte_order='LittleEndian' version='0.1' type='UnstructuredGrid'>
<UnstructuredGrid>
<Piece NumberOfCells='1888' NumberOfPoints='1888'>
<Points>
<DataArray NumberOfComponents='3' type='Float32' Name='Position' format='ascii'>
-0.040000 -0.030000 0.000000
-0.040000 -0.020000 0.000000
-0.040000 -0.010000 0.000000
-0.040000 0.000000 0.000000
-0.040000 0.010000 0.000000
-0.040000 0.020000 0.000000
-0.040000 0.030000 0.000000
-0.040000 0.040000 0.000000
-0.040000 0.050000 0.000000
-0.040000 0.060000 0.000000
-0.040000 0.070000 0.000000
-0.040000 0.080000 0.000000
-0.040000 0.090000 0.000000
-0.040000 0.100000 0.000000
-0.040000 0.110000 0.000000
-0.040000 0.120000 0.000000
-0.040000 0.130000 0.000000
-0.040000 0.140000 0.000000
-0.040000 0.150000 0.000000
-0.040000 0.160000 0.000000
-0.040000 0.170000 0.000000
-0.040000 0.180000 0.000000
-0.040000 0.190000 0.000000
-0.040000 0.200000 0.000000
-0.040000 0.210000 0.000000
-0.040000 0.220000 0.000000
-0.040000 0.230000 0.000000
-0.040000 0.240000 0.000000
-0.040000 0.250000 0.000000
-0.040000 0.260000 0.000000
-0.040000 0.270000 0.000000
-0.040000 0.280000 0.000000
-0.040000 0.290000 0.000000
-0.040000 0.300000 0.000000
-0.040000 0.310000 0.000000
-0.040000 0.320000 0.000000
-0.040000 0.330000 0.000000
-0.040000 0.340000 0.000000
-0.040000 0.350000 0.000000
-0.040000 0.360000 0.000000
-0.040000 0.370000 0.000000
-0.040000 0.380000 0.000000
-0.040000 0.390000 0.000000
-0.040000 0.400000 0.000000
0.010000 -0.030000 0.000000
0.010000 -0.020000 0.000000
0.010000 -0.010000 0.000000
0.010000 0.000000 0.000000
0.010000 0.010000 0.000000
0.010000 0.020000 0.000000
0.010000 0.030000 0.000000
0.010000 0.040000 0.000000
0.010000 0.050000 0.000000
0.010000 0.060000 0.000000
0.010000 0.070000 0.000000
0.010000 0.080000 0.000000
0.010000 0.090000 0.000000
0.010000 0.100000 0.000000
0.010000 0.110000 0.000000
0.010000 0.120000 0.000000
0.010000 0.130000 0.000000
0.010000 0.140000 0.000000
0.010000 0.150000 0.000000
0.010000 0.160000 0.000000
0.010000 0.170000 0.000000
0.010000 0.180000 0.000000
0.010000 0.190000 0.000000
0.010000 0.200000 0.000000
0.010000 0.210000 0.000000
0.010000 0.220000 0.000000
0.010000 0.230000 0.000000
0.010000 0.240000 0.000000
0.010000 0.250000 0.000000
0.010000 0.260000 0.000000
0.010000 0.270000 0.000000
0.010000 0.280000 0.000000
0.010000 0.290000 0.000000
0.010000 0.300000 0.000000
0.010000 0.310000 0.000000
0.010000 0.320000 0.000000
0.010000 0.330000 0.000000
0.010000 0.340000 0.000000
0.010000 0.350000 0.000000
0.010000 0.360000 0.000000
0.010000 0.370000 0.000000
0.010000 0.380000 0.000000
0.010000 0.390000 0.000000
0.010000 0.400000 0.000000
0.336000 0.410000 0.000000
0.336000 0.420000 0.000000
0.336000 0.430000 0.000000
0.336000 0.440000 0.000000
0.060000 -0.030000 0.000000
0.060000 -0.020000 0.000000
0.060000 -0.010000 0.000000
0.060000 0.000000 0.000000
0.060000 0.010000 0.000000
0.060000 0.020000 0.000000
0.060000 0.030000 0.000000
0.060000 0.040000 0.000000
0.060000 0.050000 0.000000
0.060000 0.060000 0.000000
0.060000 0.070000 0.000000
0.060000 0.080000 0.000000
0.060000 0.090000 0.000000
0.060000 0.100000 0.000000
0.060000 0.110000 0.000000
0.060000 0.120000 0.000000
0.060000 0.130000 0.000000
0.060000 0.140000 0.000000
0.060000 0.150000 0.000000
0.060000 0.160000 0.000000
0.060000 0.170000 0.000000
0.060000 0.180000 0.000000
0.060000 0.190000 0.000000
0.060000 0.200000 0.000000
0.060000 0.210000 0.000000
0.060000 0.220000 0.000000
0.060000 0.230000 0.000000
0.060000 0.240000 0.000000
0.060000 0.250000 0.000000
0.060000 0.260000 0.000000
0.060000 0.270000 0.000000
0.060000 0.280000 0.000000
0.060000 0.290000 0.000000
0.060000 0.300000 0.000000
0.060000 0.310000 0.000000
0.060000 0.320000 0.000000
0.060000 0.330000 0.000000
0.060000 0.340000 0.000000
0.060000 0.350000 0.000000
0.060000 0.360000 0.000000
0.060000 0.370000 0.000000
0.060000 0.380000 0.000000
0.060000 0.390000 0.000000
0.060000 0.400000 0.000000
0.386000 0.410000 0.000000
0.386000 0.420000 0.000000
0.386000 0.430000 0.000000
0.386000 0.440000 0.000000
0.110000 -0.030000 0.000000
0.110000 -0.020000 0.000000
0.110000 -0.010000 0.000000
0.110000 0.000000 0.000000
0.110000 0.010000 0.000000
0.110000 0.020000 0.000000
0.110000 0.030000 0.000000
0.110000 0.040000 0.000000
0.110000 0.050000 0.000000
0.110000 0.060000 0.000000
0.110000 0.070000 0.000000
0.110000 0.080000 0.000000
0.110000 0.090000 0.000000
0.110000 0.100000 0.000000
0.110000 0.110000 0.000000
0.110000 0.120000 0.000000
0.110000 0.130000 0.000000
0.110000 0.140000 0.000000
0.110000 0.150000 0.000000
0.110000 0.160000 0.000000
0.110000 0.170000 0.000000
0.110000 0.180000 0.000000
0.110000 0.190000 0.000000
0.110000 0.200000 0.000000
0.110000 0.210000 0.000000
0.110000 0.220000 0.000000
0.110000 0.230000 0.000000
0.110000 0.240000 0.000000
0.110000 0.250000 0.000000
0.110000 0.260000 0.000000
0.110000 0.270000 0.000000
0.110000 0.280000 0.000000
0.110000 0.290000 0.000000
0.110000 0.300000 0.000000
0.110000 0.310000 0.000000
0.110000 0.320000 0.000000
0.110000 0.330000 0.000000
0.110000 0.340000 0.000000
0.110000 0.350000 0.000000
0.110000 0.360000 0.000000
0.110000 0.370000 0.000000
0.110000 0.380000 0.000000
0.110000 0.390000 0.000000
0.110000 0.400000 0.000000
0.436000 0.410000 0.000000
0.436000 0.420000 0.000000
0.436000 0.430000 0.000000
0.436000 0.440000 0.000000
0.160000 -0.030000 0.000000
0.160000 -0.020000 0.000000
0.160000 -0.010000 0.000000
0.160000 0.000000 0.000000
0.160000 0.010000 0.000000
0.160000 0.020000 0.000000
0.160000 0.030000 0.000000
0.160000 0.040000 0.000000
0.160000 0.050000 0.000000
0.160000 0.060000 0.000000
0.160000 0.070000 0.000000
0.160000 0.080000 0.000000
0.160000 0.090000 0.000000
0.160000 0.100000 0.000000
0.160000 0.110000 0.000000
0.160000 0.120000 0.000000
0.160000 0.130000 0.000000
0.160000 0.140000 0.000000
0.160000 0.150000 0.000000
0.160000 0.160000 0.000000
0.160000 0.170000 0.000000
0.160000 0.180000 0.000000
0.160000 0.190000 0.000000
0.160000 0.200000 0.000000
0.160000 0.210000 0.000000
0.160000 0.220000 0.000000
0.160000 0.230000 0.000000
0.160000 0.240000 0.000000
0.160000 0.250000 0.000000
0.160000 0.260000 0.000000
0.160000 0.270000 0.000000
0.160000 0.280000 0.000000
0.160000 0.290000 0.000000
0.160000 0.300000 0.000000
0.160000 0.310000 0.000000
0.160000 0.320000 0.000000
0.160000 0.330000 0.000000
0.160000 0.340000 0.000000
0.160000 0.350000 0.000000
0.160000 0.360000 0.000000
0.160000 0.370000 0.000000
0.160000 0.380000 0.000000
0.160000 0.390000 0.000000
0.160000 0.400000 0.000000
0.486000 0.410000 0.000000
0.486000 0.420000 0.000000
0.486000 0.430000 0.000000
0.486000 0.440000 0.000000
0.210000 -0.030000 0.000000
0.210000 -0.020000 0.000000
0.210000 -0.010000 0.000000
0.210000 0.000000 0.000000
0.210000 0.010000 0.000000
0.210000 0.020000 0.000000
0.210000 0.030000 0.000000
0.210000 0.040000 0.000000
0.210000 0.050000 0.000000
0.210000 0.060000 0.000000
0.210000 0.070000 0.000000
0.210000 0.080000 0.000000
0.210000 0.090000 0.000000
0.210000 0.100000 0.000000
0.210000 0.110000 0.000000
0.210000 0.120000 0.000000
0.210000 0.130000 0.000000
0.210000 0.140000 0.000000
0.210000 0.150000 0.000000
0.210000 0.160000 0.000000
0.210000 0.170000 0.000000
0.210000 0.180000 0.000000
0.210000 0.190000 0.000000
0.210000 0.200000 0.000000
0.210000 0.210000 0.000000
0.210000 0.220000 0.000000
0.210000 0.230000 0.000000
0.210000 0.240000 0.000000
0.210000 0.250000 0.000000
0.210000 0.260000 0.000000
0.210000 0.270000 0.000000
0.210000 0.280000 0.000000
0.210000 0.290000 0.000000
0.210000 0.300000 0.000000
0.210000 0.310000 0.000000
0.210000 0.320000 0.000000
0.210000 0.330000 0.000000
0.210000 0.340000 0.000000
0.210000 0.350000 0.000000
0.210000 0.360000 0.000000
0.210000 0.370000 0.000000
0.210000 0.380000 0.000000
0.210000 0.390000 0.000000
0.210000 0.400000 0.000000
0.536000 0.410000 0.000000
0.536000 0.420000 0.000000
0.536000 0.430000 0.000000
0.536000 0.440000 0.000000
0.260000 -0.030000 0.000000
0.260000 -0.020000 0.000000
0.260000 -0.010000 0.000000
0.260000 0.000000 0.000000
0.260000 0.010000 0.000000
0.260000 0.020000 0.000000
0.260000 0.030000 0.000000
0.260000 0.040000 0.000000
0.260000 0.050000 0.000000
0.260000 0.060000 0.000000
0.260000 0.070000 0.000000
0.260000 0.080000 0.000000
0.260000 0.090000 0.000000
0.260000 0.100000 0.000000
0.260000 0.110000 0.000000
0.260000 0.120000 0.000000
0.260000 0.130000 0.000000
0.260000 0.140000 0.000000
0.260000 0.150000 0.000000
0.260000 0.160000 0.000000
0.260000 0.170000 0.000000
0.260000 0.180000 0.000000
0.260000 0.190000 0.000000
0.260000 0.200000 0.000000
0.260000 0.210000 0.000000
0.260000 0.220000 0.000000
0.260000 0.230000 0.000000
0.260000 0.240000 0.000000
0.260000 0.250000 0.000000
0.260000 0.260000 0.000000
0.260000 0.270000 0.000000
0.260000 0.280000 0.000000
0.260000 0.290000 0.000000
0.260000 0.300000 0.000000
0.260000 0.310000 0.000000
0.260000 0.320000 0.000000
0.260000 0.330000 0.000000
0.260000 0.340000 0.000000
0.260000 0.350000 0.000000
0.260000 0.360000 0.000000
0.260000 0.370000 0.000000
0.260000 0.380000 0.000000
0.260000 0.390000 0.000000
0.260000 0.400000 0.000000
0.586000 0.410000 0.000000
0.586000 0.420000 0.000000
0.586000 0.430000 0.000000
0.586000 0.440000 0.000000
0.310000 -0.030000 0.000000
0.310000 -0.020000 0.000000
0.310000 -0.010000 0.000000
0.310000 0.000000 0.000000
0.310000 0.010000 0.000000
0.310000 0.020000 0.000000
0.310000 0.030000 0.000000
0.310000 0.040000 0.000000
0.310000 0.050000 0.000000
0.310000 0.060000 0.000000
0.310000 0.070000 0.000000
0.310000 0.080000 0.000000
0.310000 0.090000 0.000000
0.310000 0.100000 0.000000
0.310000 0.110000 0.000000
0.310000 0.120000 0.000000
0.310000 0.130000 0.000000
0.310000 0.140000 0.000000
0.310000 0.150000 0.000000
0.310000 0.160000 0.000000
0.310000 0.170000 0.000000
0.310000 0.180000 0.000000
0.310000 0.190000 0.000000
0.310000 0.200000 0.000000
0.310000 0.210000 0.000000
[...]
<PointData>
<DataArray NumberOfComponents='1' type='Int32' Name='ParticleType' format='ascii'>
4
4
4
4
4
4
4
4
4
4
4
4
4
4
4
4
4
4
4
4
4
4
4
4
4
4
4
4
4
4
4
4
4
4
4
4
4
4
4
4
4
4
4
4
4
4
3
3
2
2
2
2
2
2
2
2
2
2
2
2
2
2
2
2
2
2
2
2
2
2
2
2
2
2
2
2
2
2
2
2
2
2
2
2
2
2
2
2
5
5
5
5
4
4
3
3
2
2
2
2
2
2
2
2
2
2
2
2
2
2
2
2
2
2
2
2
2
2
2
2
2
2
2
2
2
2
2
2
2
2
2
2
2
2
2
2
5
5
5
5
4
4
3
3
2
2
2
2
2
2
2
2
2
2
2
2
2
2
2
2
2
2
2
2
2
2
2
2
2
2
2
2
2
2
2
2
2
2
2
2
2
2
2
2
5
5
5
5
4
4
3
3
2
2
2
2
2
2
2
2
2
2
2
2
2
2
2
2
2
2
2
2
2
2
2
2
2
2
2
2
2
2
2
2
2
2
2
2
2
2
2
2
5
5
5
5
4
4
3
3
2
2
2
2
2
2
2
2
2
2
2
2
2
2
2
2
2
2
2
2
2
2
2
2
2
2
2
2
2
2
2
2
2
2
2
2
2
2
2
2
5
5
5
5
4
4
3
3
2
2
2
2
2
2
2
2
2
2
2
2
2
2
2
2
2
2
2
2
2
2
2
2
2
2
2
2
2
2
2
2
2
2
2
2
2
2
2
2
5
5
5
5
4
4
3
3
2
2
2
2
2
2
2
2
2
2
2
2
2
2
2
2
2
2
2
2
2
2
2
2
2
2
2
2
2
2
2
2
2
2
2
2
2
2
2
2
5
5
5
5
4
4
3
3
2
2
2
2
2
2
2
2
2
2
2
2
2
2
2
2
2
2
2
2
2
2
2
2
2
2
2
2
2
2
2
2
2
2
2
2
2
2
2
2
5
5
5
5
4
4
3
3
2
2
2
2
2
2
2
2
2
2
2
2
2
2
2
2
2
2
2
2
2
2
2
2
2
2
2
2
2
2
2
2
2
2
2
2
2
2
2
2
5
5
5
5
4
4
3
3
2
2
2
2
2
2
2
2
2
2
2
2
2
2
2
2
2
2
2
2
2
2
2
2
2
2
2
2
2
2
2
2
2
2
2
2
2
2
2
2
5
5
5
5
4
4
3
3
2
2
2
2
2
2
2
2
2
2
2
2
2
2
2
2
2
2
2
2
2
2
2
2
2
2
2
2
2
2
2
2
2
2
2
2
2
2
2
2
4
4
3
3
2
2
2
2
2
2
2
2
2
2
2
2
2
2
2
2
2
2
2
2
2
2
2
2
2
2
2
2
2
2
2
2
2
2
2
2
2
2
2
2
4
4
3
3
2
2
2
2
2
2
2
2
2
2
2
2
2
2
2
2
2
2
2
2
2
2
2
2
2
2
2
2
2
2
2
2
2
2
2
2
2
2
2
2
4
4
3
3
2
2
2
2
2
2
2
2
2
2
2
2
2
2
2
2
2
2
2
2
2
2
2
2
2
2
2
2
2
2
2
2
2
2
2
2
2
2
2
2
4
4
3
3
2
2
2
2
2
2
2
2
2
2
2
2
2
2
2
2
2
2
2
2
2
2
2
2
2
2
2
2
2
2
2
2
2
2
2
2
2
2
2
2
4
4
3
3
2
2
2
2
2
2
2
2
2
2
2
2
2
2
2
2
2
2
2
2
2
2
2
2
2
2
2
2
2
2
2
2
2
2
2
2
2
2
2
2
4
4
3
3
2
2
2
2
2
2
2
2
2
2
2
2
2
2
2
2
2
2
2
2
2
2
2
2
2
2
2
2
2
2
2
2
2
2
2
2
2
2
2
2
4
4
3
3
2
2
2
2
2
2
2
2
2
2
2
2
2
2
2
2
2
2
2
2
2
2
2
2
2
2
2
2
2
2
2
2
2
2
2
2
2
2
2
2
4
4
3
3
2
2
2
2
2
2
2
2
2
2
2
2
2
2
2
2
2
2
2
2
2
2
2
2
2
2
2
2
2
2
2
2
2
2
2
2
2
2
2
2
4
4
3
3
2
2
2
2
2
2
2
2
2
2
2
2
2
2
2
2
2
2
2
2
2
2
2
2
2
2
2
2
2
2
2
2
2
2
2
2
2
2
2
2
4
4
3
3
2
2
2
2
2
2
2
2
2
2
2
2
2
2
2
2
2
2
2
2
2
2
2
2
2
2
2
2
2
2
2
2
2
2
2
2
2
2
2
2
4
4
3
3
2
2
2
2
2
2
2
2
2
2
2
2
2
2
2
2
2
2
2
2
2
2
2
2
2
2
2
2
2
2
2
2
2
2
2
2
2
2
2
2
4
4
3
3
2
2
2
2
2
2
2
2
2
2
2
2
2
2
2
2
2
2
2
2
2
2
2
2
2
2
2
2
2
2
2
2
2
2
2
2
2
2
2
2
4
4
3
3
2
2
2
2
2
2
2
2
2
2
2
2
2
2
2
2
2
2
2
2
2
2
2
2
2
2
2
2
2
2
2
2
2
2
2
2
2
2
2
2
4
4
3
3
2
2
2
2
2
2
2
2
2
2
2
2
2
2
2
2
2
2
2
2
2
2
2
2
2
2
2
2
2
2
2
2
2
2
2
2
2
2
2
2
4
4
3
3
2
2
2
2
2
2
2
2
2
2
2
2
2
2
2
2
2
2
2
2
2
2
2
2
2
2
2
2
2
2
2
2
2
2
2
2
2
2
2
2
4
4
3
3
2
2
2
2
2
2
2
2
2
2
2
2
2
2
2
2
2
2
2
2
2
2
2
2
2
2
2
2
2
2
2
2
2
2
2
2
2
2
2
2
4
4
3
3
2
2
2
2
2
2
2
2
2
2
2
2
2
2
2
2
2
2
2
2
2
2
2
2
2
2
2
2
2
2
2
2
2
2
2
2
2
2
2
2
4
4
3
3
2
2
2
2
2
2
2
2
2
2
2
2
2
2
2
2
2
2
2
2
2
2
2
2
2
2
2
2
2
2
2
2
2
2
2
2
2
2
2
2
4
4
3
3
2
2
2
2
2
2
2
2
2
2
2
2
2
2
2
2
2
2
2
2
2
2
2
2
2
2
2
2
2
2
2
2
2
2
2
2
2
2
2
2
4
4
3
3
2
2
2
2
2
2
2
2
2
2
2
2
2
2
2
2
2
2
2
2
2
2
2
2
2
2
2
2
2
2
2
2
2
2
2
2
2
2
2
2
4
4
3
3
2
2
2
2
2
2
2
2
2
2
2
2
2
2
2
2
2
2
2
2
2
2
2
2
2
2
2
2
2
2
2
2
2
2
2
2
2
2
2
2
4
4
3
3
2
2
2
2
2
2
2
2
2
2
2
2
2
2
2
2
2
2
2
2
2
2
2
2
2
2
2
2
2
2
2
2
2
2
2
2
2
2
2
2
4
4
3
3
2
2
2
2
2
2
2
2
2
2
2
2
2
2
2
2
2
2
2
2
2
2
2
2
2
2
2
2
2
2
2
2
2
2
2
2
2
2
2
2
4
4
3
3
2
2
2
2
2
2
2
2
2
2
2
2
2
2
2
2
2
2
2
2
2
2
2
2
2
2
2
2
2
2
2
2
2
2
2
2
2
2
2
2
4
4
3
3
2
2
2
2
2
2
2
2
2
2
2
2
2
2
2
2
2
2
2
2
2
2
2
2
2
2
2
2
2
2
2
2
2
2
2
2
2
2
2
2
4
4
3
3
2
2
2
2
2
2
2
2
2
2
2
2
2
2
2
2
2
2
2
2
2
2
2
2
2
2
2
2
2
2
2
2
2
2
2
2
2
2
2
2
4
4
3
3
2
2
2
2
2
2
2
2
2
2
2
2
2
2
2
2
2
2
2
2
2
2
2
2
2
2
2
2
2
2
2
2
2
2
2
2
2
2
2
2
4
4
3
3
2
2
2
2
2
2
2
2
2
2
2
2
2
2
2
2
2
2
2
2
2
2
2
2
2
2
2
2
2
2
2
2
2
2
2
2
2
2
2
2
4
4
3
3
2
2
2
2
2
2
2
2
2
2
2
2
2
2
2
2
2
2
2
2
2
2
2
2
2
2
2
2
2
2
2
2
2
2
2
2
2
2
2
2
4
4
3
3
3
3
3
3
3
3
3
3
3
3
3
3
3
3
3
3
3
3
3
3
3
3
3
3
3
3
3
3
3
3
3
3
3
3
3
3
3
3
3
3
</DataArray>
<DataArray NumberOfComponents='1' type='Float32' Name='Temperature' format='ascii'>
0.000000
0.000000
0.000000
0.000000
0.000000
0.000000
0.000000
0.000000
0.000000
0.000000
0.000000
0.000000
0.000000
0.000000
0.000000
0.000000
0.000000
0.000000
0.000000
0.000000
0.000000
0.000000
0.000000
0.000000
0.000000
0.000000
0.000000
0.000000
0.000000
0.000000
0.000000
0.000000
0.000000
0.000000
0.000000
0.000000
0.000000
0.000000
0.000000
0.000000
0.000000
0.000000
0.000000
0.000000
0.000000
0.000000
0.000000
0.000000
-0.267616
-0.482942
-0.703646
-0.921129
-1.135579
-1.346224
-1.552427
-1.753587
-1.949147
-2.138603
-2.321505
-2.497461
-2.666137
-2.827261
-2.980621
-3.126064
-3.263496
-3.392882
-3.514237
-3.627629
-3.733173
-3.831025
-3.921379
-4.004461
-4.080525
-4.149846
-4.212716
-4.269435
-4.320310
-4.365649
-4.405751
-4.440907
-4.471392
-4.497462
-4.519350
-4.537261
-4.551371
-4.561824
-4.568684
-4.572953
-3.000000
-3.000000
-3.000000
-3.000000
0.000000
0.000000
0.000000
0.000000
-0.263583
-0.475597
-0.692793
-0.906651
-1.117306
-1.323950
-1.525915
-1.722563
-1.913311
-2.097630
-2.275047
-2.445155
-2.607607
-2.762125
-2.908497
-3.046575
-3.176280
-3.297594
-3.410560
-3.515280
-3.611909
-3.700650
-3.781753
-3.855504
-3.922223
-3.982255
-4.035967
-4.083737
-4.125953
-4.163000
-4.195259
-4.223098
-4.246866
-4.266889
-4.283465
-4.296856
-4.307288
-4.314945
-4.319936
-4.323024
-3.000000
-3.000000
-3.000000
-3.000000
0.000000
0.000000
0.000000
0.000000
-0.261597
-0.471963
-0.687381
-0.899356
-1.107981
-1.312418
-1.511962
-1.705947
-1.893758
-2.074836
-2.248685
-2.414871
-2.573031
-2.722868
-2.864160
-2.996754
-3.120570
-3.235597
-3.341895
-3.439585
-3.528852
-3.609940
-3.683142
-3.748800
-3.807295
-3.859041
-3.904480
-3.944070
-3.978283
-4.007591
-4.032462
-4.053351
-4.070692
-4.084893
-4.096324
-4.105317
-4.112156
-4.117073
-4.120229
-4.122155
-3.000000
-3.000000
-3.000000
-3.000000
0.000000
0.000000
0.000000
0.000000
-0.260779
-0.470449
-0.685093
-0.896210
-1.103863
-1.307184
-1.505439
-1.697930
-1.884010
-2.063086
-2.234628
-2.398169
-2.553313
-2.699733
-2.837178
-2.965472
-3.084513
-3.194280
-3.294823
-3.386271
-3.468819
-3.542735
-3.608348
-3.666047
-3.716273
-3.759513
-3.796292
-3.827163
-3.852699
-3.873486
-3.890107
-3.903135
-3.913123
-3.920592
-3.926025
-3.929851
-3.932443
-3.934107
-3.935075
-3.935614
-3.000000
-3.000000
-3.000000
-3.000000
0.000000
0.000000
0.000000
0.000000
-0.260596
-0.470103
-0.684551
-0.895433
-1.102795
-1.305750
-1.503544
-1.695456
-1.880808
-2.058980
-2.229403
-2.391573
-2.545047
-2.689453
-2.824489
-2.949928
-3.065617
-3.171484
-3.267534
-3.353856
-3.430618
-3.498066
-3.556530
-3.606413
-3.648193
-3.682415
-3.709686
-3.730667
-3.746060
-3.756601
-3.763043
-3.766145
-3.766653
-3.765283
-3.762710
-3.759547
-3.756329
-3.753504
-3.751434
-3.750036
-3.000000
-3.000000
-3.000000
-3.000000
0.000000
0.000000
0.000000
0.000000
-0.260587
-0.470086
-0.684523
-0.895389
-1.102727
-1.305647
-1.503391
-1.695228
-1.880475
-2.058496
-2.228708
-2.390583
-2.543651
-2.687504
-2.821795
-2.946240
-3.060622
-3.164789
-3.258657
-3.342212
-3.415512
-3.478691
-3.531961
-3.575621
-3.610056
-3.635750
-3.653285
-3.663344
-3.666716
-3.664289
-3.657041
-3.646027
-3.632354
-3.617159
-3.601563
-3.586643
-3.573380
-3.562621
-3.555098
-3.550181
-3.000000
-3.000000
-3.000000
-3.000000
0.000000
0.000000
0.000000
0.000000
-0.260587
-0.470086
-0.684523
-0.895389
-1.102727
-1.305647
-1.503391
-1.695228
-1.880475
-2.058495
-2.228706
-2.390578
-2.543642
-2.687488
-2.821765
-2.946188
-3.060532
-3.164634
-3.258394
-3.341771
-3.414783
-3.477503
-3.530057
-3.572613
-3.605384
-3.628609
-3.642554
-3.647503
-3.643756
-3.631638
-3.611522
-3.583872
-3.549317
-3.508750
-3.463462
-3.415307
-3.366873
-3.321542
-3.284595
-3.250783
-3.000000
-3.000000
-3.000000
-3.000000
0.000000
0.000000
0.000000
0.000000
-0.260587
-0.470086
-0.684523
-0.895389
-1.102727
-1.305647
-1.503391
-1.695228
-1.880475
-2.058495
-2.228706
-2.390578
-2.543642
-2.687488
-2.821765
-2.946188
-3.060532
-3.164634
-3.258394
-3.341771
-3.414783
-3.477503
-3.530057
-3.572613
-3.605384
-3.628609
-3.642554
-3.647503
-3.643756
-3.631638
-3.611522
-3.583872
-3.549315
-3.508741
-3.463434
-3.415218
-3.366602
-3.320725
-3.282714
-3.242947
-3.000000
-3.000000
-3.000000
-3.000000
0.000000
0.000000
0.000000
0.000000
-0.260587
-0.470086
-0.684523
-0.895389
-1.102727
-1.305647
-1.503391
-1.695228
-1.880475
-2.058495
-2.228706
-2.390578
-2.543642
-2.687488
-2.821765
-2.946188
-3.060532
-3.164634
-3.258394
-3.341771
-3.414783
-3.477503
-3.530057
-3.572613
-3.605384
-3.628609
-3.642554
-3.647503
-3.643756
-3.631638
-3.611522
-3.583872
-3.549315
-3.508741
-3.463434
-3.415218
-3.366602
-3.320725
-3.282714
-3.242947
-3.000000
-3.000000
-3.000000
-3.000000
0.000000
0.000000
0.000000
0.000000
-0.260587
-0.470086
-0.684523
-0.895389
-1.102727
-1.305647
-1.503391
-1.695228
-1.880475
-2.058495
-2.228706
-2.390578
-2.543642
-2.687488
-2.821765
-2.946188
-3.060532
-3.164634
-3.258394
-3.341771
-3.414783
-3.477503
-3.530057
-3.572613
-3.605384
-3.628609
-3.642554
-3.647503
-3.643756
-3.631638
-3.611522
-3.583872
-3.549315
-3.508741
-3.463434
-3.415218
-3.366602
-3.320725
-3.282714
-3.242947
-3.000000
-3.000000
-3.000000
-3.000000
0.000000
0.000000
0.000000
0.000000
-0.262966
-0.474393
-0.690831
-0.903704
-1.113064
-1.318025
-1.517826
-1.711736
-1.899068
-2.079179
-2.251479
-2.415430
-2.570549
-2.716412
-2.852654
-2.978970
-3.095116
-3.200909
-3.296226
-3.381005
-3.455240
-3.518982
-3.572333
-3.615443
-3.648501
-3.671730
-3.685376
-3.689707
-3.685009
-3.671596
-3.649834
-3.620190
-3.583306
-3.540105
-3.491930
-3.440704
-3.389079
-3.340375
-3.300028
-3.257823
0.000000
0.000000
0.000000
0.000000
-0.266784
-0.481323
-0.701016
-0.917193
-1.129937
-1.338369
-1.541740
-1.739324
-1.930433
-2.114422
-2.290690
-2.458683
-2.617899
-2.767885
-2.908244
-3.038633
-3.158763
-3.268405
-3.367381
-3.455576
-3.532924
-3.599419
-3.655103
-3.700067
-3.734441
-3.758393
-3.772117
-3.775831
-3.769777
-3.754232
-3.729539
-3.696158
-3.654755
-3.606321
-3.552329
-3.494910
-3.437025
-3.382394
-3.337119
-3.289730
0.000000
0.000000
0.000000
0.000000
-0.269785
-0.486796
-0.709122
-0.928038
-1.143670
-1.355170
-1.561811
-1.762889
-1.957733
-2.145707
-2.326211
-2.498686
-2.662616
-2.817524
-2.962981
-3.098599
-3.224039
-3.339007
-3.443255
-3.536585
-3.618848
-3.689940
-3.749807
-3.798437
-3.835859
-3.862137
-3.877363
-3.881659
-3.875175
-3.858109
-3.830743
-3.793506
-3.747077
-3.692521
-3.631477
-3.566354
-3.500533
-3.438279
-3.386601
-3.332384
0.000000
0.000000
0.000000
0.000000
-0.271531
-0.490014
-0.713961
-0.934646
-1.152245
-1.365955
-1.575097
-1.779010
-1.977061
-2.168652
-2.353213
-2.530209
-2.699137
-2.859526
-3.010935
-3.152952
-3.285198
-3.407317
-3.518985
-3.619906
-3.709811
-3.788461
-3.855646
-3.911184
-3.954920
-3.986722
-4.006484
-4.014120
-4.009585
-3.992890
-3.964161
-3.923716
-3.872192
-3.810720
-3.741141
-3.666251
-3.590031
-3.517543
-3.457120
-3.393371
0.000000
0.000000
0.000000
0.000000
-0.272054
-0.491002
-0.715497
-0.936838
-1.155241
-1.369948
-1.580331
-1.785783
-1.985736
-2.179658
-2.367055
-2.547468
-2.720473
-2.885676
-3.042706
-3.191214
-3.330862
-3.461321
-3.582260
-3.693340
-3.794210
-3.884502
-3.963821
-4.031749
-4.087833
-4.131593
-4.162518
-4.180079
-4.183757
-4.173084
-4.147733
-4.107633
-4.053156
-3.985355
-3.906252
-3.819162
-3.728981
-3.642047
-3.568851
-3.490570
0.000000
0.000000
0.000000
0.000000
-0.272085
-0.491062
-0.715600
-0.937000
-1.155489
-1.370322
-1.580886
-1.786599
-1.986925
-2.181373
-2.369505
-2.550934
-2.725328
-2.892407
-3.051943
-3.203757
-3.347712
-3.483705
-3.611655
-3.731488
-3.843112
-3.946393
-4.041117
-4.126949
-4.203386
-4.269710
-4.324943
-4.367832
-4.396850
-4.410266
-4.406287
-4.383291
-4.340176
-4.276821
-4.194631
-4.097111
-3.990375
-3.882974
-3.789622
-3.685380
0.000000
0.000000
0.000000
0.000000
-0.272085
-0.491062
-0.715600
-0.937000
-1.155489
-1.370323
-1.580887
-1.786601
-1.986929
-2.181380
-2.369518
-2.550958
-2.725372
-2.892486
-3.052083
-3.204003
-3.348137
-3.484429
-3.612873
-3.733507
-3.846412
-3.951707
-4.049544
-4.140104
-4.223593
-4.300234
-4.370266
-4.433935
-4.491493
-4.543192
-4.589277
-4.629986
-4.665535
-4.696111
-4.721826
-4.742618
-4.758011
-4.766198
-4.766060
-4.725902
0.000000
0.000000
0.000000
0.000000
-0.272085
-0.491062
-0.715600
-0.937000
-1.155489
-1.370323
-1.580887
-1.786601
-1.986929
-2.181380
-2.369518
-2.550958
-2.725372
-2.892486
-3.052083
-3.204003
-3.348137
-3.484429
-3.612873
-3.733507
-3.846412
-3.951707
-4.049544
-4.140104
-4.223593
-4.300234
-4.370266
-4.433935
-4.491493
-4.543192
-4.589279
-4.629991
-4.665555
-4.696179
-4.722054
-4.743349
-4.760206
-4.772743
-4.780996
-4.786142
0.000000
0.000000
0.000000
0.000000
-0.272085
-0.491062
-0.715600
-0.937000
-1.155489
-1.370323
-1.580887
-1.786601
-1.986929
-2.181380
-2.369518
-2.550958
-2.725372
-2.892486
-3.052083
-3.204003
-3.348137
-3.484429
-3.612873
-3.733507
-3.846412
-3.951707
-4.049544
-4.140104
-4.223593
-4.300234
-4.370266
-4.433935
-4.491493
-4.543192
-4.589279
-4.629991
-4.665555
-4.696179
-4.722054
-4.743349
-4.760206
-4.772743
-4.780996
-4.786142
0.000000
0.000000
0.000000
0.000000
-0.272085
-0.491062
-0.715600
-0.937000
-1.155489
-1.370323
-1.580887
-1.786601
-1.986929
-2.181380
-2.369518
-2.550958
-2.725372
-2.892486
-3.052083
-3.204003
-3.348137
-3.484429
-3.612873
-3.733507
-3.846412
-3.951707
-4.049544
-4.140104
-4.223593
-4.300234
-4.370266
-4.433935
-4.491493
-4.543192
-4.589279
-4.629991
-4.665555
-4.696179
-4.722054
-4.743349
-4.760206
-4.772743
-4.780996
-4.786142
0.000000
0.000000
0.000000
0.000000
-0.272085
-0.491062
-0.715600
-0.937000
-1.155489
-1.370323
-1.580887
-1.786601
-1.986929
-2.181380
-2.369518
-2.550958
-2.725372
-2.892486
-3.052083
-3.204003
-3.348137
-3.484429
-3.612873
-3.733507
-3.846412
-3.951707
-4.049544
-4.140104
-4.223593
-4.300234
-4.370266
-4.433935
-4.491493
-4.543192
-4.589279
-4.629991
-4.665555
-4.696179
-4.722054
-4.743349
-4.760206
-4.772743
-4.780996
-4.786142
0.000000
0.000000
0.000000
0.000000
-0.272085
-0.491062
-0.715600
-0.937000
-1.155489
-1.370323
-1.580887
-1.786601
-1.986929
-2.181380
-2.369518
-2.550958
-2.725372
-2.892486
-3.052083
-3.204003
-3.348137
-3.484429
-3.612873
-3.733507
-3.846412
-3.951707
-4.049544
-4.140104
-4.223593
-4.300234
-4.370266
-4.433935
-4.491493
-4.543192
-4.589279
-4.629991
-4.665555
-4.696179
-4.722054
-4.743349
-4.760206
-4.772743
-4.780996
-4.786142
0.000000
0.000000
0.000000
0.000000
-0.272085
-0.491062
-0.715600
-0.937000
-1.155489
-1.370323
-1.580887
-1.786601
-1.986929
-2.181380
-2.369518
-2.550958
-2.725372
-2.892486
-3.052083
-3.204003
-3.348137
-3.484429
-3.612873
-3.733507
-3.846412
-3.951707
-4.049544
-4.140104
-4.223593
-4.300234
-4.370266
-4.433935
-4.491493
-4.543192
-4.589279
-4.629991
-4.665555
-4.696179
-4.722054
-4.743349
-4.760206
-4.772743
-4.780996
-4.786142
0.000000
0.000000
0.000000
0.000000
-0.272085
-0.491062
-0.715600
-0.937000
-1.155489
-1.370323
-1.580887
-1.786601
-1.986929
-2.181380
-2.369518
-2.550958
-2.725372
-2.892486
-3.052083
-3.204003
-3.348137
-3.484429
-3.612873
-3.733507
-3.846412
-3.951707
-4.049544
-4.140104
-4.223593
-4.300234
-4.370266
-4.433935
-4.491493
-4.543192
-4.589279
-4.629991
-4.665555
-4.696179
-4.722054
-4.743349
-4.760206
-4.772743
-4.780996
-4.786142
0.000000
0.000000
0.000000
0.000000
-0.272085
-0.491062
-0.715600
-0.937000
-1.155489
-1.370323
-1.580887
-1.786601
-1.986929
-2.181380
-2.369518
-2.550958
-2.725372
-2.892486
-3.052083
-3.204003
-3.348137
-3.484429
-3.612873
-3.733507
-3.846412
-3.951707
-4.049544
-4.140104
-4.223593
-4.300234
-4.370266
-4.433935
-4.491493
-4.543192
-4.589279
-4.629991
-4.665555
-4.696179
-4.722054
-4.743349
-4.760206
-4.772743
-4.780996
-4.786142
0.000000
0.000000
0.000000
0.000000
-0.272085
-0.491062
-0.715600
-0.937000
-1.155489
-1.370323
-1.580887
-1.786601
-1.986929
-2.181380
-2.369518
-2.550958
-2.725372
-2.892486
-3.052083
-3.204003
-3.348137
-3.484429
-3.612873
-3.733507
-3.846412
-3.951707
-4.049544
-4.140104
-4.223593
-4.300234
-4.370266
-4.433935
-4.491493
-4.543192
-4.589279
-4.629991
-4.665555
-4.696179
-4.722054
-4.743349
-4.760206
-4.772743
-4.780996
-4.786142
0.000000
0.000000
0.000000
0.000000
-0.272085
-0.491062
-0.715600
-0.937000
-1.155489
-1.370323
-1.580887
-1.786601
-1.986929
-2.181380
-2.369518
-2.550958
-2.725372
-2.892486
-3.052083
-3.204003
-3.348137
-3.484429
-3.612873
-3.733507
-3.846412
-3.951707
-4.049544
-4.140104
-4.223593
-4.300234
-4.370266
-4.433935
-4.491493
-4.543192
-4.589279
-4.629991
-4.665555
-4.696179
-4.722054
-4.743349
-4.760206
-4.772743
-4.780996
-4.786142
0.000000
0.000000
0.000000
0.000000
-0.272085
-0.491062
-0.715600
-0.937000
-1.155489
-1.370323
-1.580887
-1.786601
-1.986929
-2.181380
-2.369518
-2.550958
-2.725372
-2.892486
-3.052083
-3.204003
-3.348137
-3.484429
-3.612873
-3.733507
-3.846412
-3.951707
-4.049544
-4.140104
-4.223593
-4.300234
-4.370266
-4.433935
-4.491493
-4.543192
-4.589279
-4.629991
-4.665555
-4.696179
-4.722054
-4.743349
-4.760206
-4.772743
-4.780996
-4.786142
0.000000
0.000000
0.000000
0.000000
-0.272085
-0.491062
-0.715600
-0.937000
-1.155489
-1.370323
-1.580887
-1.786601
-1.986929
-2.181380
-2.369518
-2.550958
-2.725372
-2.892486
-3.052083
-3.204003
-3.348137
-3.484429
-3.612873
-3.733507
-3.846412
-3.951707
-4.049544
-4.140104
-4.223593
-4.300234
-4.370266
-4.433935
-4.491493
-4.543192
-4.589279
-4.629991
-4.665555
-4.696179
-4.722054
-4.743349
-4.760206
-4.772743
-4.780996
-4.786142
0.000000
0.000000
0.000000
0.000000
-0.272085
-0.491062
-0.715600
-0.937000
-1.155489
-1.370323
-1.580887
-1.786601
-1.986929
-2.181380
-2.369518
-2.550958
-2.725372
-2.892486
-3.052083
-3.204003
-3.348137
-3.484429
-3.612873
-3.733507
-3.846412
-3.951707
-4.049544
-4.140104
-4.223593
-4.300234
-4.370266
-4.433935
-4.491493
-4.543192
-4.589279
-4.629991
-4.665555
-4.696179
-4.722054
-4.743349
-4.760206
-4.772743
-4.780996
-4.786142
0.000000
0.000000
0.000000
0.000000
-0.272085
-0.491062
-0.715600
-0.937000
-1.155489
-1.370323
-1.580887
-1.786601
-1.986929
-2.181380
-2.369518
-2.550958
-2.725372
-2.892486
-3.052083
-3.204003
-3.348137
-3.484429
-3.612873
-3.733507
-3.846412
-3.951707
-4.049544
-4.140104
-4.223593
-4.300234
-4.370266
-4.433935
-4.491493
-4.543192
-4.589279
-4.629991
-4.665555
-4.696179
-4.722054
-4.743349
-4.760206
-4.772743
-4.780996
-4.786142
0.000000
0.000000
0.000000
0.000000
-0.272085
-0.491062
-0.715600
-0.937000
-1.155489
-1.370323
-1.580887
-1.786601
-1.986929
-2.181380
-2.369518
-2.550958
-2.725372
-2.892486
-3.052083
-3.204003
-3.348137
-3.484429
-3.612873
-3.733507
-3.846412
-3.951707
-4.049544
-4.140104
-4.223593
-4.300234
-4.370266
-4.433935
-4.491493
-4.543192
-4.589279
-4.629991
-4.665555
-4.696179
-4.722054
-4.743349
-4.760206
-4.772743
-4.780996
-4.786142
0.000000
0.000000
0.000000
0.000000
-0.272085
-0.491062
-0.715600
-0.937000
-1.155489
-1.370323
-1.580887
-1.786601
-1.986929
-2.181380
-2.369518
-2.550958
-2.725372
-2.892486
-3.052083
-3.204003
-3.348137
-3.484429
-3.612873
-3.733507
-3.846412
-3.951707
-4.049544
-4.140104
-4.223593
-4.300234
-4.370266
-4.433935
-4.491493
-4.543192
-4.589279
-4.629991
-4.665555
-4.696179
-4.722054
-4.743349
-4.760206
-4.772743
-4.780996
-4.786142
0.000000
0.000000
0.000000
0.000000
-0.272085
-0.491062
-0.715600
-0.937000
-1.155489
-1.370323
-1.580887
-1.786601
-1.986929
-2.181380
-2.369518
-2.550958
-2.725372
-2.892486
-3.052083
-3.204003
-3.348137
-3.484429
-3.612873
-3.733507
-3.846412
-3.951707
-4.049544
-4.140104
-4.223593
-4.300234
-4.370266
-4.433935
-4.491493
-4.543192
-4.589279
-4.629991
-4.665555
-4.696179
-4.722054
-4.743349
-4.760206
-4.772743
-4.780996
-4.786142
0.000000
0.000000
0.000000
0.000000
-0.272085
-0.491062
-0.715600
-0.937000
-1.155489
-1.370323
-1.580887
-1.786601
-1.986929
-2.181380
-2.369518
-2.550958
-2.725372
-2.892486
-3.052083
-3.204003
-3.348137
-3.484429
-3.612873
-3.733507
-3.846412
-3.951707
-4.049544
-4.140104
-4.223593
-4.300234
-4.370266
-4.433935
-4.491493
-4.543192
-4.589279
-4.629991
-4.665555
-4.696179
-4.722054
-4.743349
-4.760206