<?xml version='1.0' encoding='UTF-8'?>
<VTKFile xmlns='VTK' byte_order='LittleEndian' version='0.1' type='UnstructuredGrid'>
<UnstructuredGrid>
<Piece NumberOfCells='1816' NumberOfPoints='1816'>
<Points>
<DataArray NumberOfComponents='3' type='Float32' Name='Position' format='ascii'>
1.770000 0.400000 0.000000
1.770000 0.412500 0.000000
1.770000 0.425000 0.000000
1.770000 0.437500 0.000000
1.770000 0.450000 0.000000
1.770000 0.462500 0.000000
1.770000 0.475000 0.000000
1.770000 0.487500 0.000000
1.807500 0.400000 0.000000
1.807500 0.412500 0.000000
1.807500 0.425000 0.000000
1.807500 0.437500 0.000000
1.807500 0.450000 0.000000
1.807500 0.462500 0.000000
1.807500 0.475000 0.000000
1.807500 0.487500 0.000000
0.025000 0.000000 0.000000
0.025000 0.012500 0.000000
0.025000 0.025000 0.000000
0.025000 0.037500 0.000000
0.025000 0.050000 0.000000
0.025000 0.062500 0.000000
0.025000 0.075000 0.000000
0.025000 0.087500 0.000000
0.025000 0.100000 0.000000
0.025000 0.112500 0.000000
0.025000 0.125000 0.000000
0.025000 0.137500 0.000000
0.025000 0.150000 0.000000
0.025000 0.162500 0.000000
0.025000 0.175000 0.000000
0.025000 0.187500 0.000000
0.025000 0.200000 0.000000
0.025000 0.212500 0.000000
0.025000 0.225000 0.000000
0.025000 0.237500 0.000000
0.025000 0.250000 0.000000
0.025000 0.262500 0.000000
0.025000 0.275000 0.000000
0.025000 0.287500 0.000000
0.025000 0.300000 0.000000
0.025000 0.312500 0.000000
0.025000 0.325000 0.000000
0.025000 0.337500 0.000000
0.025000 0.350000 0.000000
0.025000 0.362500 0.000000
0.025000 0.375000 0.000000
0.025000 0.387500 0.000000
1.845000 0.400000 0.000000
1.845000 0.412500 0.000000
1.845000 0.425000 0.000000
1.845000 0.437500 0.000000
1.845000 0.450000 0.000000
1.845000 0.462500 0.000000
1.845000 0.475000 0.000000
1.845000 0.487500 0.000000
0.062500 0.000000 0.000000
0.062500 0.012500 0.000000
0.062500 0.025000 0.000000
0.062500 0.037500 0.000000
0.062500 0.050000 0.000000
0.062500 0.062500 0.000000
0.062500 0.075000 0.000000
0.062500 0.087500 0.000000
0.062500 0.100000 0.000000
0.062500 0.112500 0.000000
0.062500 0.125000 0.000000
0.062500 0.137500 0.000000
0.062500 0.150000 0.000000
0.062500 0.162500 0.000000
0.062500 0.175000 0.000000
0.062500 0.187500 0.000000
0.062500 0.200000 0.000000
0.062500 0.212500 0.000000
0.062500 0.225000 0.000000
0.062500 0.237500 0.000000
0.062500 0.250000 0.000000
0.062500 0.262500 0.000000
0.062500 0.275000 0.000000
0.062500 0.287500 0.000000
0.062500 0.300000 0.000000
0.062500 0.312500 0.000000
0.062500 0.325000 0.000000
0.062500 0.337500 0.000000
0.062500 0.350000 0.000000
0.062500 0.362500 0.000000
0.062500 0.375000 0.000000
0.062500 0.387500 0.000000
1.882500 0.400000 0.000000
1.882500 0.412500 0.000000
1.882500 0.425000 0.000000
1.882500 0.437500 0.000000
1.882500 0.450000 0.000000
1.882500 0.462500 0.000000
1.882500 0.475000 0.000000
1.882500 0.487500 0.000000
0.100000 0.000000 0.000000
0.100000 0.012500 0.000000
0.100000 0.025000 0.000000
0.100000 0.037500 0.000000
0.100000 0.050000 0.000000
0.100000 0.062500 0.000000
0.100000 0.075000 0.000000
0.100000 0.087500 0.000000
0.100000 0.100000 0.000000
0.100000 0.112500 0.000000
0.100000 0.125000 0.000000
0.100000 0.137500 0.000000
0.100000 0.150000 0.000000
0.100000 0.162500 0.000000
0.100000 0.175000 0.000000
0.100000 0.187500 0.000000
0.100000 0.200000 0.000000
0.100000 0.212500 0.000000
0.100000 0.225000 0.000000
0.100000 0.237500 0.000000
0.100000 0.250000 0.000000
0.100000 0.262500 0.000000
0.100000 0.275000 0.000000
0.100000 0.287500 0.000000
0.100000 0.300000 0.000000
0.100000 0.312500 0.000000
0.100000 0.325000 0.000000
0.100000 0.337500 0.000000
0.100000 0.350000 0.000000
0.100000 0.362500 0.000000
0.100000 0.375000 0.000000
0.100000 0.387500 0.000000
1.920000 0.400000 0.000000
1.920000 0.412500 0.000000
1.920000 0.425000 0.000000
1.920000 0.437500 0.000000
1.920000 0.450000 0.000000
1.920000 0.462500 0.000000
1.920000 0.475000 0.000000
1.920000 0.487500 0.000000
0.137500 0.000000 0.000000
0.137500 0.012500 0.000000
0.137500 0.025000 0.000000
0.137500 0.037500 0.000000
0.137500 0.050000 0.000000
0.137500 0.062500 0.000000
0.137500 0.075000 0.000000
0.137500 0.087500 0.000000
0.137500 0.100000 0.000000
0.137500 0.112500 0.000000
0.137500 0.125000 0.000000
0.137500 0.137500 0.000000
0.137500 0.150000 0.000000
0.137500 0.162500 0.000000
0.137500 0.175000 0.000000
0.137500 0.187500 0.000000
0.137500 0.200000 0.000000
0.137500 0.212500 0.000000
0.137500 0.225000 0.000000
0.137500 0.237500 0.000000
0.137500 0.250000 0.000000
0.137500 0.262500 0.000000
0.137500 0.275000 0.000000
0.137500 0.287500 0.000000
0.137500 0.300000 0.000000
0.137500 0.312500 0.000000
0.137500 0.325000 0.000000
0.137500 0.337500 0.000000
0.137500 0.350000 0.000000
0.137500 0.362500 0.000000
0.137500 0.375000 0.000000
0.137500 0.387500 0.000000
1.957500 0.400000 0.000000
1.957500 0.412500 0.000000
1.957500 0.425000 0.000000
1.957500 0.437500 0.000000
1.957500 0.450000 0.000000
1.957500 0.462500 0.000000
1.957500 0.475000 0.000000
1.957500 0.487500 0.000000
0.175000 0.000000 0.000000
0.175000 0.012500 0.000000
0.175000 0.025000 0.000000
0.175000 0.037500 0.000000
0.175000 0.050000 0.000000
0.175000 0.062500 0.000000
0.175000 0.075000 0.000000
0.175000 0.087500 0.000000
0.175000 0.100000 0.000000
0.175000 0.112500 0.000000
0.175000 0.125000 0.000000
0.175000 0.137500 0.000000
0.175000 0.150000 0.000000
0.175000 0.162500 0.000000
0.175000 0.175000 0.000000
0.175000 0.187500 0.000000
0.175000 0.200000 0.000000
0.175000 0.212500 0.000000
0.175000 0.225000 0.000000
0.175000 0.237500 0.000000
0.175000 0.250000 0.000000
0.175000 0.262500 0.000000
0.175000 0.275000 0.000000
0.175000 0.287500 0.000000
0.175000 0.300000 0.000000
0.175000 0.312500 0.000000
0.175000 0.325000 0.000000
0.175000 0.337500 0.000000
0.175000 0.350000 0.000000
0.175000 0.362500 0.000000
0.175000 0.375000 0.000000
0.175000 0.387500 0.000000
1.995000 0.400000 0.000000
1.995000 0.412500 0.000000
1.995000 0.425000 0.000000
1.995000 0.437500 0.000000
1.995000 0.450000 0.000000
1.995000 0.462500 0.000000
1.995000 0.475000 0.000000
1.995000 0.487500 0.000000
0.212500 0.000000 0.000000
0.212500 0.012500 0.000000
0.212500 0.025000 0.000000
0.212500 0.037500 0.000000
0.212500 0.050000 0.000000
0.212500 0.062500 0.000000
0.212500 0.075000 0.000000
0.212500 0.087500 0.000000
0.212500 0.100000 0.000000
0.212500 0.112500 0.000000
0.212500 0.125000 0.000000
0.212500 0.137500 0.000000
0.212500 0.150000 0.000000
0.212500 0.162500 0.000000
0.212500 0.175000 0.000000
0.212500 0.187500 0.000000
0.212500 0.200000 0.000000
0.212500 0.212500 0.000000
0.212500 0.225000 0.000000
0.212500 0.237500 0.000000
0.212500 0.250000 0.000000
0.212500 0.262500 0.000000
0.212500 0.275000 0.000000
0.212500 0.287500 0.000000
0.212500 0.300000 0.000000
0.212500 0.312500 0.000000
0.212500 0.325000 0.000000
0.212500 0.337500 0.000000
0.212500 0.350000 0.000000
0.212500 0.362500 0.000000
0.212500 0.375000 0.000000
0.212500 0.387500 0.000000
2.032500 0.400000 0.000000
2.032500 0.412500 0.000000
2.032500 0.425000 0.000000
2.032500 0.437500 0.000000
2.032500 0.450000 0.000000
2.032500 0.462500 0.000000
2.032500 0.475000 0.000000
2.032500 0.487500 0.000000
0.250000 0.000000 0.000000
0.250000 0.012500 0.000000
0.250000 0.025000 0.000000
0.250000 0.037500 0.000000
0.250000 0.050000 0.000000
0.250000 0.062500 0.000000
0.250000 0.075000 0.000000
0.250000 0.087500 0.000000
0.250000 0.100000 0.000000
0.250000 0.112500 0.000000
0.250000 0.125000 0.000000
0.250000 0.137500 0.000000
0.250000 0.150000 0.000000
0.250000 0.162500 0.000000
0.250000 0.175000 0.000000
0.250000 0.187500 0.000000
0.250000 0.200000 0.000000
0.250000 0.212500 0.000000
0.250000 0.225000 0.000000
0.250000 0.237500 0.000000
0.250000 0.250000 0.000000
0.250000 0.262500 0.000000
0.250000 0.275000 0.000000
0.250000 0.287500 0.000000
0.250000 0.300000 0.000000
0.250000 0.312500 0.000000
0.250000 0.325000 0.000000
0.250000 0.337500 0.000000
0.250000 0.350000 0.000000
0.250000 0.362500 0.000000
0.250000 0.375000 0.000000
0.250000 0.387500 0.000000
2.070000 0.400000 0.000000
2.070000 0.412500 0.000000
2.070000 0.425000 0.000000
2.070000 0.437500 0.000000
2.070000 0.450000 0.000000
2.070000 0.462500 0.000000
2.070000 0.475000 0.000000
2.070000 0.487500 0.000000
0.287500 0.000000 0.000000
0.287500 0.012500 0.000000
0.287500 0.025000 0.000000
0.287500 0.037500 0.000000
0.287500 0.050000 0.000000
0.287500 0.062500 0.000000
0.287500 0.075000 0.000000
0.287500 0.087500 0.000000
0.287500 0.100000 0.000000
0.287500 0.112500 0.000000
0.287500 0.125000 0.000000
0.287500 0.137500 0.000000
0.287500 0.150000 0.000000
0.287500 0.162500 0.000000
0.287500 0.175000 0.000000
0.287500 0.187500 0.000000
0.287500 0.200000 0.000000
0.287500 0.212500 0.000000
0.287500 0.225000 0.000000
0.287500 0.237500 0.000000
0.287500 0.250000 0.000000
0.287500 0.262500 0.000000
0.287500 0.275000 0.000000
0.287500 0.287500 0.000000
0.287500 0.300000 0.000000
0.287500 0.312500 0.000000
0.287500 0.325000 0.000000
0.287500 0.337500 0.000000
0.287500 0.350000 0.000000
0.287500 0.362500 0.000000
0.287500 0.375000 0.000000
0.287500 0.387500 0.000000
2.107500 0.400000 0.000000
2.107500 0.412500 0.000000
2.107500 0.425000 0.000000
2.107500 0.437500 0.000000
2.107500 0.450000 0.000000
2.107500 0.462500 0.000000
2.107500 0.475000 0.000000
2.107500 0.487500 0.000000
0.325000 0.000000 0.000000
0.325000 0.012500 0.000000
0.325000 0.025000 0.000000
0.325000 0.037500 0.000000
0.325000 0.050000 0.000000
0.325000 0.062500 0.000000
0.325000 0.075000 0.000000
0.325000 0.087500 0.000000
0.325000 0.100000 0.000000
0.325000 0.112500 0.000000
0.325000 0.125000 0.000000
0.325000 0.137500 0.000000
0.325000 0.150000 0.000000
0.325000 0.162500 0.000000
0.325000 0.175000 0.000000
0.325000 0.187500 0.000000
0.325000 0.200000 0.000000
0.325000 0.212500 0.000000
0.325000 0.225000 0.000000
0.325000 0.237500 0.000000
0.325000 0.250000 0.000000
0.325000 0.262500 0.000000
0.325000 0.275000 0.000000
[...]
<PointData>
<DataArray NumberOfComponents='1' type='Int32' Name='ParticleType' format='ascii'>
5
5
5
5
5
5
5
5
5
5
5
5
5
5
5
5
2
2
2
2
2
2
2
2
2
2
2
2
2
2
2
2
2
2
2
2
2
2
2
2
1
1
0
0
0
0
0
0
5
5
5
5
5
5
5
5
2
2
2
2
2
2
2
2
2
2
2
2
2
2
2
2
2
2
2
2
2
2
2
2
1
1
0
0
0
0
0
0
5
5
5
5
5
5
5
5
2
2
2
2
2
2
2
2
2
2
2
2
2
2
2
2
2
2
2
2
2
2
2
2
1
1
0
0
0
0
0
0
5
5
5
5
5
5
5
5
2
2
2
2
2
2
2
2
2
2
2
2
2
2
2
2
2
2
2
2
2
2
2
1
1
0
0
0
0
0
0
0
5
5
5
5
5
5
5
5
2
2
2
2
2
2
2
2
2
2
2
2
2
2
2
2
2
2
2
2
2
2
2
1
1
0
0
0
0
0
0
0
5
5
5
5
5
5
5
5
2
2
2
2
2
2
2
2
2
2
2
2
2
2
2
2
2
2
2
2
2
2
2
1
1
0
0
0
0
0
0
0
5
5
5
5
5
5
5
5
2
2
2
2
2
2
2
2
2
2
2
2
2
2
2
2
2
2
2
2
2
2
2
1
1
0
0
0
0
0
0
0
5
5
5
5
5
5
5
5
2
2
2
2
2
2
2
2
2
2
2
2
2
2
2
2
2
2
2
2
2
2
2
1
1
0
0
0
0
0
0
0
5
5
5
5
5
5
5
5
2
2
2
2
2
2
2
2
2
2
2
2
2
2
2
2
2
2
2
2
2
2
1
1
0
0
0
0
0
0
0
0
5
5
5
5
5
5
5
5
2
2
2
2
2
2
2
2
2
2
2
2
2
2
2
2
2
2
2
2
2
2
2
1
0
0
0
0
0
0
0
0
5
5
5
5
5
5
5
5
2
2
2
2
2
2
2
2
2
2
2
2
2
2
2
2
2
2
2
2
2
2
1
1
0
0
0
0
0
0
0
0
5
5
5
5
5
5
5
5
2
2
2
2
2
2
2
2
2
2
2
2
2
2
2
2
2
2
2
2
2
2
1
1
0
0
0
0
0
0
0
0
5
5
5
5
5
5
5
5
2
2
2
2
2
2
2
2
2
2
2
2
2
2
2
2
2
2
2
2
2
2
1
1
0
0
0
0
0
0
0
0
5
5
5
5
5
5
5
5
2
2
2
2
2
2
2
2
2
2
2
2
2
2
2
2
2
2
2
2
2
2
1
1
0
0
0
0
0
0
0
0
2
2
2
2
2
2
2
2
2
2
2
2
2
2
2
2
2
2
2
2
2
2
1
1
0
0
0
0
0
0
0
0
2
2
2
2
2
2
2
2
2
2
2
2
2
2
2
2
2
2
2
2
2
2
2
1
0
0
0
0
0
0
0
0
2
2
2
2
2
2
2
2
2
2
2
2
2
2
2
2
2
2
2
2
2
2
1
1
0
0
0
0
0
0
0
0
2
2
2
2
2
2
2
2
2
2
2
2
2
2
2
2
2
2
2
2
2
2
1
1
0
0
0
0
0
0
0
0
2
2
2
2
2
2
2
2
2
2
2
2
2
2
2
2
2
2
2
2
2
2
1
1
0
0
0
0
0
0
0
0
2
2
2
2
2
2
2
2
2
2
2
2
2
2
2
2
2
2
2
2
2
2
1
1
0
0
0
0
0
0
0
0
2
2
2
2
2
2
2
2
2
2
2
2
2
2
2
2
2
2
2
2
2
2
2
1
1
0
0
0
0
0
0
0
2
2
2
2
2
2
2
2
2
2
2
2
2
2
2
2
2
2
2
2
2
2
2
1
1
0
0
0
0
0
0
0
2
2
2
2
2
2
2
2
2
2
2
2
2
2
2
2
2
2
2
2
2
2
2
1
1
0
0
0
0
0
0
0
2
2
2
2
2
2
2
2
2
2
2
2
2
2
2
2
2
2
2
2
2
2
2
1
1
0
0
0
0
0
0
0
2
2
2
2
2
2
2
2
2
2
2
2
2
2
2
2
2
2
2
2
2
2
2
1
1
0
0
0
0
0
0
0
2
2
2
2
2
2
2
2
2
2
2
2
2
2
2
2
2
2
2
2
2
2
2
1
1
0
0
0
0
0
0
0
2
2
2
2
2
2
2
2
2
2
2
2
2
2
2
2
2
2
2
2
2
2
2
1
1
0
0
0
0
0
0
0
2
2
2
2
2
2
2
2
2
2
2
2
2
2
2
2
2
2
2
2
2
2
2
1
1
0
0
0
0
0
0
0
2
2
2
2
2
2
2
2
2
2
2
2
2
2
2
2
2
2
2
2
2
2
2
1
1
0
0
0
0
0
0
0
2
2
2
2
2
2
2
2
2
2
2
2
2
2
2
2
2
2
2
2
2
2
2
1
1
0
0
0
0
0
0
0
2
2
2
2
2
2
2
2
2
2
2
2
2
2
2
2
2
2
2
2
2
2
2
2
1
1
0
0
0
0
0
0
2
2
2
2
2
2
2
2
2
2
2
2
2
2
2
2
2
2
2
2
2
2
2
2
1
1
0
0
0
0
0
0
2
2
2
2
2
2
2
2
2
2
2
2
2
2
2
2
2
2
2
2
2
2
2
2
1
1
0
0
0
0
0
0
2
2
2
2
2
2
2
2
2
2
2
2
2
2
2
2
2
2
2
2
2
2
2
2
1
1
0
0
0
0
0
0
2
2
2
2
2
2
2
2
2
2
2
2
2
2
2
2
2
2
2
2
2
2
2
2
1
1
0
0
0
0
0
0
2
2
2
2
2
2
2
2
2
2
2
2
2
2
2
2
2
2
2
2
2
2
2
2
1
1
0
0
0
0
0
0
2
2
2
2
2
2
2
2
2
2
2
2
2
2
2
2
2
2
2
2
2
2
2
2
1
1
0
0
0
0
0
0
2
2
2
2
2
2
2
2
2
2
2
2
2
2
2
2
2
2
2
2
2
2
2
2
1
1
0
0
0
0
0
0
2
2
2
2
2
2
2
2
2
2
2
2
2
2
2
2
2
2
2
2
2
2
2
2
2
1
0
0
0
0
0
0
2
2
2
2
2
2
2
2
2
2
2
2
2
2
2
2
2
2
2
2
2
2
2
2
1
1
0
0
0
0
0
0
2
2
2
2
2
2
2
2
2
2
2
2
2
2
2
2
2
2
2
2
2
2
2
2
2
1
1
0
0
0
0
0
2
2
2
2
2
2
2
2
2
2
2
2
2
2
2
2
2
2
2
2
2
2
2
2
2
1
0
0
0
0
0
0
2
2
2
2
2
2
2
2
2
2
2
2
2
2
2
2
2
2
2
2
2
2
2
2
2
1
0
0
0
0
0
0
2
2
2
2
2
2
2
2
2
2
2
2
2
2
2
2
2
2
2
2
2
2
2
2
2
1
1
0
0
0
0
0
2
2
2
2
2
2
2
2
2
2
2
2
2
2
2
2
2
2
2
2
2
2
2
2
2
1
1
0
0
0
0
0
2
2
2
2
2
2
2
2
2
2
2
2
2
2
2
2
2
2
2
2
2
2
2
2
2
1
1
0
0
0
0
0
2
2
2
2
2
2
2
2
2
2
2
2
2
2
2
2
2
2
2
2
2
2
2
2
2
1
1
0
0
0
0
0
2
2
2
2
2
2
2
2
2
2
2
2
2
2
2
2
2
2
2
2
2
2
2
2
2
1
1
0
0
0
0
0
2
2
2
2
2
2
2
2
2
2
2
2
2
2
2
2
2
2
2
2
2
2
2
2
2
1
1
0
0
0
0
0
2
2
2
2
2
2
2
2
2
2
2
2
2
2
2
2
2
2
2
2
2
2
2
2
2
1
1
0
0
0
0
0
2
2
2
2
2
2
2
2
2
2
2
2
2
2
2
2
2
2
2
2
2
2
2
2
2
1
1
0
0
0
0
0
2
2
2
2
2
2
2
2
2
2
2
2
2
2
2
2
2
2
2
2
2
2
2
2
2
2
1
0
0
0
0
0
2
2
2
2
2
2
2
2
2
2
2
2
2
2
2
2
2
2
2
2
2
2
2
2
2
2
1
1
0
0
0
0
</DataArray>
<DataArray NumberOfComponents='1' type='Float32' Name='Temperature' format='ascii'>
-3.000000
-3.000000
-3.000000
-3.000000
-3.000000
-3.000000
-3.000000
-3.000000
-3.000000
-3.000000
-3.000000
-3.000000
-3.000000
-3.000000
-3.000000
-3.000000
-4.919023
-4.911125
-4.898258
-4.878185
-4.850160
-4.813103
-4.765678
-4.706316
-4.633236
-4.544478
-4.437951
-4.311491
-4.162928
-3.990171
-3.791282
-3.564540
-3.308460
-3.021731
-2.703046
-2.350832
-1.963065
-1.537518
-1.072945
-0.574625
-0.006492
-0.000956
6.676259
21.839585
39.050030
56.898567
71.864629
83.465427
-3.000000
-3.000000
-3.000000
-3.000000
-3.000000
-3.000000
-3.000000
-3.000000
-4.916109
-4.907886
-4.894486
-4.873579
-4.844381
-4.805758
-4.756307
-4.694368
-4.618048
-4.525244
-4.413686
-4.280980
-4.124676
-3.942348
-3.731691
-3.490646
-3.217539
-2.911237
-2.571320
-2.198237
-1.793528
-1.359354
-0.903799
-0.402524
-0.002123
0.008257
18.336246
37.947284
61.644057
86.395807
107.449476
123.907054
-3.000000
-3.000000
-3.000000
-3.000000
-3.000000
-3.000000
-3.000000
-3.000000
-4.914612
-4.906233
-4.892578
-4.871267
-4.841499
-4.802111
-4.751662
-4.688452
-4.610536
-4.515763
-4.401809
-4.266239
-4.106573
-3.920381
-3.705388
-3.459606
-3.181476
-2.870037
-2.525099
-2.147406
-1.738896
-1.301954
-0.847265
-0.334703
-0.005295
0.009577
24.590726
49.996217
80.735476
112.977762
140.537809
162.176652
-3.000000
-3.000000
-3.000000
-3.000000
-3.000000
-3.000000
-3.000000
-3.000000
-4.912950
-4.904337
-4.890290
-4.868351
-4.837672
-4.797030
-4.744906
-4.679508
-4.598794
-4.500501
-4.382195
-4.241320
-4.075259
-3.881395
-3.657155
-3.400057
-3.107738
-2.778024
-2.409093
-1.999845
-1.550225
-1.064298
-0.535032
-0.008656
0.003343
12.708366
35.527477
65.799521
102.530460
141.374344
174.821818
201.284528
-3.000000
-3.000000
-3.000000
-3.000000
-3.000000
-3.000000
-3.000000
-3.000000
-4.911871
-4.903118
-4.888839
-4.866528
-4.835312
-4.793927
-4.740796
-4.674047
-4.591526
-4.490818
-4.369288
-4.224125
-4.052417
-3.851241
-3.617791
-3.349543
-3.044459
-2.701231
-2.319550
-1.900436
-1.445826
-0.964504
-0.429005
-0.006541
0.007532
20.425277
45.258708
79.612981
121.906980
167.243228
206.556220
237.831230
-3.000000
-3.000000
-3.000000
-3.000000
-3.000000
-3.000000
-3.000000
-3.000000
-4.911446
-4.902662
-4.888337
-4.865958
-4.834654
-4.793162
-4.739907
-4.673019
-4.590340
-4.489452
-4.367706
-4.222272
-4.050207
-3.848548
-3.614442
-3.345315
-3.039085
-2.694419
-2.310999
-1.889869
-1.432886
-0.949596
-0.406416
-0.004391
0.006177
22.895237
51.035481
90.523162
139.430619
192.024612
237.723270
274.167936
-3.000000
-3.000000
-3.000000
-3.000000
-3.000000
-3.000000
-3.000000
-3.000000
-4.910837
-4.901968
-4.887501
-4.864899
-4.833278
-4.791364
-4.737568
-4.670003
-4.586505
-4.484651
-4.361800
-4.215143
-4.041772
-3.838775
-3.603360
-3.333015
-3.025709
-2.680128
-2.295927
-1.874063
-1.416118
-0.932362
-0.381582
-0.006626
0.006556
25.815549
57.781640
102.173310
157.019616
216.082381
267.559131
308.784997
-3.000000
-3.000000
-3.000000
-3.000000
-3.000000
-3.000000
-3.000000
-3.000000
-4.910264
-4.901307
-4.886695
-4.863863
-4.831914
-4.789556
-4.735177
-4.666872
-4.582450
-4.479472
-4.355283
-4.207075
-4.031955
-3.827045
-3.589610
-3.317211
-3.007895
-2.660408
-2.274413
-1.850826
-1.390999
-0.906282
-0.347279
-0.006355
0.008273
29.065001
64.631789
113.789337
174.543285
240.171010
297.582948
343.774627
-3.000000
-3.000000
-3.000000
-3.000000
-3.000000
-3.000000
-3.000000
-3.000000
-4.909917
-4.900904
-4.886197
-4.863210
-4.831034
-4.788354
-4.733536
-4.664638
-4.579433
-4.475434
-4.349941
-4.200097
-4.022962
-3.815600
-3.575152
-3.298867
-2.983992
-2.627422
-2.225064
-1.771251
-1.258759
-0.688536
-0.005434
-0.003858
8.045952
33.407468
71.402176
124.499705
190.633385
262.501119
325.661709
376.725496
-3.000000
-3.000000
-3.000000
-3.000000
-3.000000
-3.000000
-3.000000
-3.000000
-4.909631
-4.900563
-4.885760
-4.862613
-4.830194
-4.787159
-4.731837
-4.662241
-4.576086
-4.470829
-4.343711
-4.191833
-4.012246
-3.802078
-3.558679
-3.279784
-2.963681
-2.609297
-2.216039
-1.782999
-1.304195
-0.779932
-0.016227
-0.004646
4.307114
36.978468
78.253102
135.490111
206.950831
285.108072
354.164579
410.308048
-3.000000
-3.000000
-3.000000
-3.000000
-3.000000
-3.000000
-3.000000
-3.000000
-4.909354
-4.900222
-4.885309
-4.861977
-4.829275
-4.785831
-4.729932
-4.659545
-4.572333
-4.465699
-4.336834
-4.182799
-4.000620
-3.787395
-3.540404
-3.257161
-2.935351
-2.572565
-2.165837
-1.711240
-1.204662
-0.645050
-0.004992
0.002076
9.513912
41.384874
84.987550
145.769477
222.175535
306.293819
381.014072
442.107245
-3.000000
-3.000000
-3.000000
-3.000000
-3.000000
-3.000000
-3.000000
-3.000000
-4.909109
-4.899955
-4.885008
-4.861626
-4.828861
-4.785342
-4.729360
-4.658884
-4.571578
-4.464837
-4.335831
-4.181561
-3.998928
-3.784781
-3.535965
-3.249313
-2.921641
-2.549801
-2.130978
-1.663172
-1.148839
-0.580180
-0.005822
0.000122
13.995100
44.248146
89.683637
154.217838
236.170247
326.909400
407.853874
474.364260
-3.000000
-3.000000
-3.000000
-3.000000
-3.000000
-3.000000
-3.000000
-3.000000
-4.906744
-4.897331
-4.881970
-4.857957
-4.824340
-4.779746
-4.722469
-4.650491
-4.561507
-4.452961
-4.322092
-4.166003
-3.981727
-3.766294
-3.516783
-3.230319
-2.904035
-2.535023
-2.120472
-1.657993
-1.148944
-0.585928
-0.009518
0.004824
13.406411
46.470955
95.204538
163.664763
250.381432
346.685746
433.012479
504.414546
-3.000000
-3.000000
-3.000000
-3.000000
-3.000000
-3.000000
-3.000000
-3.000000
-4.904119
-4.894531
-4.878893
-4.854468
-4.820311
-4.775056
-4.717003
-4.644136
-4.554139
-4.444415
-4.312119
-4.154187
-3.967377
-3.748321
-3.493603
-3.199882
-2.864106
-2.483855
-2.057885
-1.586218
-1.075643
-0.504109
-0.007658
0.005143
19.513538
51.077325
101.292271
172.862295
264.079894
365.654572
456.964932
532.870495
-4.909837
-4.900621
-4.885577
-4.862054
-4.829111
-4.785389
-4.729197
-4.658532
-4.571090
-4.464308
-4.335397
-4.181404
-3.999273
-3.785902
-3.538190
-3.253034
-2.927291
-2.557743
-2.141264
-1.675166
-1.160622
-0.589708
-0.003846
0.004659
13.816604
47.382863
98.007768
170.330470
263.072226
367.265113
461.689357
540.940213
-4.920501
-4.912033
-4.898184
-4.876475
-4.845976
-4.805345
-4.752906
-4.686658
-4.604288
-4.503198
-4.380540
-4.233276
-4.058253
-3.852314
-3.612430
-3.335867
-3.020378
-2.664399
-2.267179
-1.828753
-1.346990
-0.828661
-0.118616
0.002515
3.172125
40.879818
90.782675
163.306851
257.735457
365.179525
463.501412
546.902487
-4.925841
-4.917636
-4.904193
-4.883080
-4.853346
-4.813623
-4.762196
-4.697019
-4.615718
-4.515623
-4.393802
-4.247119
-4.072314
-3.866084
-3.625171
-3.346399
-3.026586
-2.662285
-2.249369
-1.782809
-1.258065
-0.673522
-0.008275
0.000726
10.370747
43.148641
92.742031
165.246839
260.336288
369.539720
470.407554
556.999139
-4.934990
-4.927468
-4.915115
-4.895658
-4.868147
-4.831222
-4.783169
-4.721920
-4.645061
-4.549843
-4.433213
-4.291861
-4.122286
-3.920867
-3.683932
-3.407768
-3.088515
-2.721923
-2.303082
-1.826552
-1.288398
-0.688526
-0.008863
-0.001606
10.537386
39.997989
87.199432
158.778208
255.016457
367.430640
472.488135
563.804939
-4.939708
-4.932455
-4.920524
-4.901696
-4.875016
-4.839117
-4.792276
-4.732418
-4.657119
-4.563621
-4.448861
-4.309521
-4.142103
-3.943035
-3.708814
-3.436186
-3.122339
-2.765037
-2.362471
-1.912341
-1.406561
-0.843310
-0.009407
0.001882
4.859233
38.436196
86.914848
159.446728
256.840114
371.367066
479.373172
574.493192
-4.947763
-4.941188
-4.930343
-4.913173
-4.888740
-4.855700
-4.812352
-4.756626
-4.686082
-4.597916
-4.488973
-4.355789
-4.194652
-4.001700
-3.773065
-3.505048
-3.194292
-2.837839
-2.432711
-1.974489
-1.451341
-0.858177
-0.008882
-0.003229
5.642526
35.100352
80.922777
152.396266
250.958228
368.951267
481.612036
582.212733
-4.951894
-4.945579
-4.935141
-4.918580
-4.894948
-4.862893
-4.820704
-4.766302
-4.697237
-4.610698
-4.503524
-4.372247
-4.213148
-4.022342
-3.795915
-3.530103
-3.221536
-2.867546
-2.466510
-2.018334
-1.523588
-0.994484
-0.372807
0.001060
0.009532
33.867142
80.827263
153.034492
252.571788
372.676962
488.563442
593.648448
-4.958861
-4.953204
-4.943826
-4.928893
-4.907485
-4.878290
-4.839634
-4.789465
-4.725346
-4.644443
-4.543537
-4.419035
-4.267023
-4.083329
-3.863649
-3.603730
-3.299627
-2.948068
-2.546880
-2.095579
-1.594816
-1.055844
-0.430798
-0.004356
0.009987
30.337913
74.368071
145.375088
246.074218
369.897154
490.945684
602.426616
-4.962436
-4.957031
-4.948048
-4.933705
-4.913071
-4.884825
-4.847278
-4.798365
-4.735630
-4.656228
-4.556935
-4.434168
-4.284031
-4.102381
-3.884926
-3.627372
-3.325647
-2.976214
-2.576488
-2.125444
-1.623223
-1.080053
-0.451960
0.000433
0.007583
29.077248
74.394582
145.976286
247.433509
373.335563
497.915385
614.734676
-4.968340
-4.963562
-4.955596
-4.942826
-4.924360
-4.898932
-4.864909
-4.820276
-4.762617
-4.689100
-4.596469
-4.481062
-4.338822
-4.165348
-3.955967
-3.705859
-3.410271
-3.064852
-2.666148
-2.212348
-1.703280
-1.148015
-0.512959
-0.005106
0.008364
25.518660
67.465821
137.664693
240.252424
370.116951
500.409204
624.744701
-4.971390
-4.966856
-4.959274
-4.947076
-4.929363
-4.904857
-4.871908
-4.828479
-4.772125
-4.699985
-4.608785
-4.494860
-4.354185
-4.182430
-3.975028
-3.727268
-3.434435
-3.092043
-2.696229
-2.244435
-1.735600
-1.177091
-0.540238
-0.000105
0.005461
23.783910
67.603163
138.258790
241.313975
373.173262
507.328093
638.080729
-4.976278
-4.972331
-4.965705
-4.954999
-4.939363
-4.917589
-4.888102
-4.848942
-4.797730
-4.731651
-4.647439
-4.541388
-4.409362
-4.246827
-4.048893
-3.810362
-3.525824
-3.189840
-2.797324
-2.344320
-1.828666
-1.255911
-0.607685
-0.005730
0.006671
20.282239
60.155237
129.245413
233.377003
369.425074
509.879683
649.532737
-4.978852
-4.975142
-4.968892
-4.958750
-4.943861
-4.923006
-4.894596
-4.856641
-4.806724
-4.741978
-4.659087
-4.554297
-4.423461
-4.262097
-4.065470
-3.828662
-3.546635
-3.214276
-2.826508
-2.378677
-1.867104
-1.293892
-0.646100
-0.000434
0.003093
17.862086
60.545859
129.899573
234.095762
371.982095
516.649323
664.091848
-4.982948
-4.979806
-4.974489
-4.965815
-4.952996
-4.934902
-4.910044
-4.876537
-4.832058
-4.773812
-4.698512
-4.602376
-4.481163
-4.330240
-4.144708
-3.919586
-3.650045
-3.331664
-2.960586
-2.533244
-2.045205
-1.485940
-0.853618
-0.003180
0.002556
7.276165
52.564802
120.557109
225.702535
367.745357
519.215418
677.251865
-4.985746
-4.982972
-4.978254
-4.970518
-4.959009
-4.942643
-4.919982
-4.889193
-4.847998
-4.793634
-4.722824
-4.631764
-4.516141
-4.371194
-4.191820
-3.972732
-3.708661
-3.394523
-3.025366
-2.595765
-2.098415
-1.520620
-0.858782
-0.007838
-0.004022
8.862021
49.248710
115.717894
221.037941
366.332133
523.988054
692.985498
-4.987442
-4.984847
-4.980415
-4.973106
-4.962161
-4.946485
-4.924622
-4.894709
-4.854426
-4.800954
-4.730951
-4.640539
-4.525338
-4.380529
-4.200978
-3.981420
-3.716700
-3.402043
-3.033233
-2.606342
-2.116452
-1.551466
-0.907681
-0.006833
-0.002628
6.872683
49.510320
116.069646
220.872458
367.824748
530.304557
709.949275
-4.990086
-4.987930
-4.984227
-4.978083
-4.968814
-4.955425
-4.936583
-4.910561
-4.875185
-4.827784
-4.765143
-4.683482
-4.578455
-4.445182
-4.278327
-4.072235
-3.821135
-3.519445
-3.162181
-2.745471
-2.267287
-1.726689
-1.136834
-0.428919
-0.005729
0.008910
40.090064
104.944400
210.641055
362.164320
532.487109
726.282410
-4.991557
-4.989598
-4.986214
-4.980559
-4.971953
-4.959406
-4.941577
-4.916722
-4.882626
-4.836549
-4.775180
-4.694603
-4.590308
-4.457223
-4.289817
-4.082257
-3.828653
-3.523405
-3.161648
-2.739782
-2.256207
-1.710409
-1.116851
-0.401135
0.001969
0.009624
42.525205
106.272229
210.274205
362.790710
538.169458
745.184739
-4.993510
-4.991923
-4.989164
-4.984521
-4.977396
-4.966909
-4.951855
-4.930649
-4.901250
-4.861103
-4.807072
-4.735404
-4.641702
-4.520947
-4.367540
-4.175406
-3.938145
-3.649268
-3.302551
-2.892556
-2.415477
-1.869152
-1.262899
-0.550666
-0.006731
0.006287
32.131989
94.307646
199.057110
356.108703
539.854550
764.171899
-4.994622
-4.993213
-4.990743
-4.986551
-4.980049
-4.970368
-4.956308
-4.936274
-4.908195
-4.869452
-4.816813
-4.746383
-4.653576
-4.533138
-4.379205
-4.185425
-3.945168
-3.651823
-3.299247
-2.882360
-2.398028
-1.844821
-1.234007
-0.511837
0.001227
0.007104
35.317774
95.859875
198.058854
355.556806
544.588593
785.508217
-4.995984
-4.994873
-4.992911
-4.989557
-4.984304
-4.976399
-4.964791
-4.948059
-4.924333
-4.891214
-4.845691
-4.784079
-4.701976
-4.594264
-4.455149
-4.278250
-4.056729
-3.783451
-3.451164
-3.052779
-2.581950
-2.033658
-1.410826
-0.691051
-0.007575
0.003473
23.330577
83.012283
185.847808
347.655855
545.415326
807.713453
-4.996784
-4.995825
-4.994117
-4.991164
-4.986478
-4.979328
-4.968677
-4.953107
-4.930731
-4.899098
-4.855105
-4.794927
-4.713962
-4.606832
-4.467424
-4.288980
-4.064253
-3.785726
-3.445937
-3.037992
-2.556449
-1.997827
-1.368739
-0.637298
0.000610
0.004287
27.534300
84.896098
184.143351
345.652237
548.734906
832.076340
-4.997678
-4.996945
-4.995629
-4.993334
-4.989653
-4.983970
-4.975400
-4.962715
-4.944253
-4.917821
-4.880588
-4.828996
-4.758684
-4.664456
-4.540307
-4.379527
-4.174881
-3.918867
-3.603944
-3.222621
-2.767161
-2.228999
-1.598772
-0.871711
-0.008127
0.000798
13.527863
71.281282
170.982232
336.295911
548.169131
858.218958
-4.998217
-4.997609
-4.996504
-4.994550
-4.991366
-4.986366
-4.978694
-4.967141
-4.950044
-4.925177
-4.889628
-4.839697
-4.770816
-4.677515
-4.553454
-4.391534
-4.184064
-3.922963
-3.599933
-3.206588
-2.734734
-2.176942
-1.531352
-0.786870
0.000153
0.001416
19.102556
73.621501
168.501784
332.528027
549.412529
886.379554
-4.998764
-4.998316
-4.997494
-4.996026
-4.993604
-4.989750
-4.983757
-4.974608
-4.960884
-4.940650
-4.911328
-4.869572
-4.811153
-4.730876
-4.622552
-4.479051
-4.292475
-4.054467
-3.756688
-3.391455
-2.952494
-2.435915
-1.838489
-1.175495
-0.297117
-0.001284
2.472630
59.467266
154.503553
321.441466
546.673639
917.388743
-4.999100
-4.998746
-4.998087
-4.996891
-4.994880
-4.991614
-4.986429
-4.978347
-4.965976
-4.947374
-4.919904
-4.880091
-4.823480
-4.744551
-4.636703
-4.492357
-4.303201
-4.060583
-3.755988
-3.381392
-2.929018
-2.389961
-1.748864
-1.001225
0.000008
-0.001143
9.876611
62.400500
151.191865
315.567160
544.899031
950.357425
-4.999406
-4.999156
-4.998687
-4.997824
-4.996351
-4.993924
-4.990009
-4.983813
-4.974185
-4.959492
-4.937478
-4.905106
-4.858401
-4.792304
-4.700578
-4.575782
-4.409360
-4.191878
-3.913463
-3.564471
-3.136406
-2.623220
-2.021029
-1.343577
-0.511992
0.006804
0.007495
47.751614
136.514291
302.470068
538.864488
987.451050
-4.999594
-4.999408
-4.999053
-4.998386
-4.997223
-4.995260
-4.992014
-4.986749
-4.978364
-4.965253
-4.945140
-4.914881
-4.870269
-4.805853
-4.714829
-4.589048
-4.419212
-4.195304
-3.907299
-3.546115
-3.104727
-2.579468
-1.969145
-1.291756
-0.455656
-0.004130
0.501014
51.856133
132.442306
294.133369
532.724220
1026.560442
-4.999741
-4.999613
-4.999362
-4.998885
-4.998035
-4.996567
-4.994085
-4.989967
-4.983261
-4.972543
-4.955743
-4.929929
-4.891081
-4.833860
-4.751437
-4.635432
-4.476056
-4.262516
-3.983759
-3.629535
-3.191709
-2.665724
-2.049904
-1.358655
-0.489417
-0.006506
1.828564
46.841504
122.490868
281.452307
522.799174
1071.726803
-4.999841
-4.999756
-4.999587
-4.999258
-4.998658
-4.997598
-4.995762
-4.992644
-4.987446
-4.978942
-4.965305
-4.943875
-4.910903
-4.861276
-4.788262
-4.683370
-4.536380
-4.335677
-4.068972
-3.724459
-3.292333
-2.766645
-2.145540
-1.444293
-0.602322
-0.005675
0.007946
41.862056
112.380766
267.546912
509.292190
1118.340170
-4.999908
-4.999854
-4.999744
-4.999527
-4.999122
-4.998387
-4.997080
-4.994802
-4.990906
-4.984369
-4.973619
-4.956304
-4.929010
-4.886935
-4.823566
-4.730424
-4.596963
-4.410785
-4.158279
-3.825818
-3.401492
-2.877348
-2.250425
-1.534185
-0.683057
-0.007749
0.007973
36.895730
101.850072
252.011550
491.764082
1173.157426
-4.999949
-4.999916
-4.999848
-4.999711
-4.999447
-4.998954
-4.998055
-4.996443
-4.993609
-4.988724
-4.980473
-4.966829
-4.944754
-4.909841
-4.855918
-4.774671
-4.655397
-4.485028
-4.248631
-3.930547
-3.516294
-2.995227
-2.362533
-1.629413
-0.764969
-0.006744
0.004893
32.199574
91.469441
235.354785
469.458843
1230.200478
-4.999973
-4.999955
-4.999915
-4.999833
-4.999670
-4.999357
-4.998768
-4.997680
-4.995707
-4.992204