<?xml version='1.0' encoding='UTF-8'?>
<VTKFile xmlns='VTK' byte_order='LittleEndian' version='0.1' type='UnstructuredGrid'>
<UnstructuredGrid>
<Piece NumberOfCells='1888' NumberOfPoints='1888'>
<Points>
<DataArray NumberOfComponents='3' type='Float32' Name='Position' format='ascii'>
-0.040000 -0.030000 0.000000
-0.040000 -0.020000 0.000000
-0.040000 -0.010000 0.000000
-0.040000 0.000000 0.000000
-0.040000 0.010000 0.000000
-0.040000 0.020000 0.000000
-0.040000 0.030000 0.000000
-0.040000 0.040000 0.000000
-0.040000 0.050000 0.000000
-0.040000 0.060000 0.000000
-0.040000 0.070000 0.000000
-0.040000 0.080000 0.000000
-0.040000 0.090000 0.000000
-0.040000 0.100000 0.000000
-0.040000 0.110000 0.000000
-0.040000 0.120000 0.000000
-0.040000 0.130000 0.000000
-0.040000 0.140000 0.000000
-0.040000 0.150000 0.000000
-0.040000 0.160000 0.000000
-0.040000 0.170000 0.000000
-0.040000 0.180000 0.000000
-0.040000 0.190000 0.000000
-0.040000 0.200000 0.000000
-0.040000 0.210000 0.000000
-0.040000 0.220000 0.000000
-0.040000 0.230000 0.000000
-0.040000 0.240000 0.000000
-0.040000 0.250000 0.000000
-0.040000 0.260000 0.000000
-0.040000 0.270000 0.000000
-0.040000 0.280000 0.000000
-0.040000 0.290000 0.000000
-0.040000 0.300000 0.000000
-0.040000 0.310000 0.000000
-0.040000 0.320000 0.000000
-0.040000 0.330000 0.000000
-0.040000 0.340000 0.000000
-0.040000 0.350000 0.000000
-0.040000 0.360000 0.000000
-0.040000 0.370000 0.000000
-0.040000 0.380000 0.000000
-0.040000 0.390000 0.000000
-0.040000 0.400000 0.000000
0.010000 -0.030000 0.000000
0.010000 -0.020000 0.000000
0.010000 -0.010000 0.000000
0.010000 0.000000 0.000000
0.010000 0.010000 0.000000
0.010000 0.020000 0.000000
0.010000 0.030000 0.000000
0.010000 0.040000 0.000000
0.010000 0.050000 0.000000
0.010000 0.060000 0.000000
0.010000 0.070000 0.000000
0.010000 0.080000 0.000000
0.010000 0.090000 0.000000
0.010000 0.100000 0.000000
0.010000 0.110000 0.000000
0.010000 0.120000 0.000000
0.010000 0.130000 0.000000
0.010000 0.140000 0.000000
0.010000 0.150000 0.000000
0.010000 0.160000 0.000000
0.010000 0.170000 0.000000
0.010000 0.180000 0.000000
0.010000 0.190000 0.000000
0.010000 0.200000 0.000000
0.010000 0.210000 0.000000
0.010000 0.220000 0.000000
0.010000 0.230000 0.000000
0.010000 0.240000 0.000000
0.010000 0.250000 0.000000
0.010000 0.260000 0.000000
0.010000 0.270000 0.000000
0.010000 0.280000 0.000000
0.010000 0.290000 0.000000
0.010000 0.300000 0.000000
0.010000 0.310000 0.000000
0.010000 0.320000 0.000000
0.010000 0.330000 0.000000
0.010000 0.340000 0.000000
0.010000 0.350000 0.000000
0.010000 0.360000 0.000000
0.010000 0.370000 0.000000
0.010000 0.380000 0.000000
0.010000 0.390000 0.000000
0.010000 0.400000 0.000000
0.456000 0.410000 0.000000
0.456000 0.420000 0.000000
0.456000 0.430000 0.000000
0.456000 0.440000 0.000000
0.060000 -0.030000 0.000000
0.060000 -0.020000 0.000000
0.060000 -0.010000 0.000000
0.060000 0.000000 0.000000
0.060000 0.010000 0.000000
0.060000 0.020000 0.000000
0.060000 0.030000 0.000000
0.060000 0.040000 0.000000
0.060000 0.050000 0.000000
0.060000 0.060000 0.000000
0.060000 0.070000 0.000000
0.060000 0.080000 0.000000
0.060000 0.090000 0.000000
0.060000 0.100000 0.000000
0.060000 0.110000 0.000000
0.060000 0.120000 0.000000
0.060000 0.130000 0.000000
0.060000 0.140000 0.000000
0.060000 0.150000 0.000000
0.060000 0.160000 0.000000
0.060000 0.170000 0.000000
0.060000 0.180000 0.000000
0.060000 0.190000 0.000000
0.060000 0.200000 0.000000
0.060000 0.210000 0.000000
0.060000 0.220000 0.000000
0.060000 0.230000 0.000000
0.060000 0.240000 0.000000
0.060000 0.250000 0.000000
0.060000 0.260000 0.000000
0.060000 0.270000 0.000000
0.060000 0.280000 0.000000
0.060000 0.290000 0.000000
0.060000 0.300000 0.000000
0.060000 0.310000 0.000000
0.060000 0.320000 0.000000
0.060000 0.330000 0.000000
0.060000 0.340000 0.000000
0.060000 0.350000 0.000000
0.060000 0.360000 0.000000
0.060000 0.370000 0.000000
0.060000 0.380000 0.000000
0.060000 0.390000 0.000000
0.060000 0.400000 0.000000
0.506000 0.410000 0.000000
0.506000 0.420000 0.000000
0.506000 0.430000 0.000000
0.506000 0.440000 0.000000
0.110000 -0.030000 0.000000
0.110000 -0.020000 0.000000
0.110000 -0.010000 0.000000
0.110000 0.000000 0.000000
0.110000 0.010000 0.000000
0.110000 0.020000 0.000000
0.110000 0.030000 0.000000
0.110000 0.040000 0.000000
0.110000 0.050000 0.000000
0.110000 0.060000 0.000000
0.110000 0.070000 0.000000
0.110000 0.080000 0.000000
0.110000 0.090000 0.000000
0.110000 0.100000 0.000000
0.110000 0.110000 0.000000
0.110000 0.120000 0.000000
0.110000 0.130000 0.000000
0.110000 0.140000 0.000000
0.110000 0.150000 0.000000
0.110000 0.160000 0.000000
0.110000 0.170000 0.000000
0.110000 0.180000 0.000000
0.110000 0.190000 0.000000
0.110000 0.200000 0.000000
0.110000 0.210000 0.000000
0.110000 0.220000 0.000000
0.110000 0.230000 0.000000
0.110000 0.240000 0.000000
0.110000 0.250000 0.000000
0.110000 0.260000 0.000000
0.110000 0.270000 0.000000
0.110000 0.280000 0.000000
0.110000 0.290000 0.000000
0.110000 0.300000 0.000000
0.110000 0.310000 0.000000
0.110000 0.320000 0.000000
0.110000 0.330000 0.000000
0.110000 0.340000 0.000000
0.110000 0.350000 0.000000
0.110000 0.360000 0.000000
0.110000 0.370000 0.000000
0.110000 0.380000 0.000000
0.110000 0.390000 0.000000
0.110000 0.400000 0.000000
0.556000 0.410000 0.000000
0.556000 0.420000 0.000000
0.556000 0.430000 0.000000
0.556000 0.440000 0.000000
0.160000 -0.030000 0.000000
0.160000 -0.020000 0.000000
0.160000 -0.010000 0.000000
0.160000 0.000000 0.000000
0.160000 0.010000 0.000000
0.160000 0.020000 0.000000
0.160000 0.030000 0.000000
0.160000 0.040000 0.000000
0.160000 0.050000 0.000000
0.160000 0.060000 0.000000
0.160000 0.070000 0.000000
0.160000 0.080000 0.000000
0.160000 0.090000 0.000000
0.160000 0.100000 0.000000
0.160000 0.110000 0.000000
0.160000 0.120000 0.000000
0.160000 0.130000 0.000000
0.160000 0.140000 0.000000
0.160000 0.150000 0.000000
0.160000 0.160000 0.000000
0.160000 0.170000 0.000000
0.160000 0.180000 0.000000
0.160000 0.190000 0.000000
0.160000 0.200000 0.000000
0.160000 0.210000 0.000000
0.160000 0.220000 0.000000
0.160000 0.230000 0.000000
0.160000 0.240000 0.000000
0.160000 0.250000 0.000000
0.160000 0.260000 0.000000
0.160000 0.270000 0.000000
0.160000 0.280000 0.000000
0.160000 0.290000 0.000000
0.160000 0.300000 0.000000
0.160000 0.310000 0.000000
0.160000 0.320000 0.000000
0.160000 0.330000 0.000000
0.160000 0.340000 0.000000
0.160000 0.350000 0.000000
0.160000 0.360000 0.000000
0.160000 0.370000 0.000000
0.160000 0.380000 0.000000
0.160000 0.390000 0.000000
0.160000 0.400000 0.000000
0.606000 0.410000 0.000000
0.606000 0.420000 0.000000
0.606000 0.430000 0.000000
0.606000 0.440000 0.000000
0.210000 -0.030000 0.000000
0.210000 -0.020000 0.000000
0.210000 -0.010000 0.000000
0.210000 0.000000 0.000000
0.210000 0.010000 0.000000
0.210000 0.020000 0.000000
0.210000 0.030000 0.000000
0.210000 0.040000 0.000000
0.210000 0.050000 0.000000
0.210000 0.060000 0.000000
0.210000 0.070000 0.000000
0.210000 0.080000 0.000000
0.210000 0.090000 0.000000
0.210000 0.100000 0.000000
0.210000 0.110000 0.000000
0.210000 0.120000 0.000000
0.210000 0.130000 0.000000
0.210000 0.140000 0.000000
0.210000 0.150000 0.000000
0.210000 0.160000 0.000000
0.210000 0.170000 0.000000
0.210000 0.180000 0.000000
0.210000 0.190000 0.000000
0.210000 0.200000 0.000000
0.210000 0.210000 0.000000
0.210000 0.220000 0.000000
0.210000 0.230000 0.000000
0.210000 0.240000 0.000000
0.210000 0.250000 0.000000
0.210000 0.260000 0.000000
0.210000 0.270000 0.000000
0.210000 0.280000 0.000000
0.210000 0.290000 0.000000
0.210000 0.300000 0.000000
0.210000 0.310000 0.000000
0.210000 0.320000 0.000000
0.210000 0.330000 0.000000
0.210000 0.340000 0.000000
0.210000 0.350000 0.000000
0.210000 0.360000 0.000000
0.210000 0.370000 0.000000
0.210000 0.380000 0.000000
0.210000 0.390000 0.000000
0.210000 0.400000 0.000000
0.656000 0.410000 0.000000
0.656000 0.420000 0.000000
0.656000 0.430000 0.000000
0.656000 0.440000 0.000000
0.260000 -0.030000 0.000000
0.260000 -0.020000 0.000000
0.260000 -0.010000 0.000000
0.260000 0.000000 0.000000
0.260000 0.010000 0.000000
0.260000 0.020000 0.000000
0.260000 0.030000 0.000000
0.260000 0.040000 0.000000
0.260000 0.050000 0.000000
0.260000 0.060000 0.000000
0.260000 0.070000 0.000000
0.260000 0.080000 0.000000
0.260000 0.090000 0.000000
0.260000 0.100000 0.000000
0.260000 0.110000 0.000000
0.260000 0.120000 0.000000
0.260000 0.130000 0.000000
0.260000 0.140000 0.000000
0.260000 0.150000 0.000000
0.260000 0.160000 0.000000
0.260000 0.170000 0.000000
0.260000 0.180000 0.000000
0.260000 0.190000 0.000000
0.260000 0.200000 0.000000
0.260000 0.210000 0.000000
0.260000 0.220000 0.000000
0.260000 0.230000 0.000000
0.260000 0.240000 0.000000
0.260000 0.250000 0.000000
0.260000 0.260000 0.000000
0.260000 0.270000 0.000000
0.260000 0.280000 0.000000
0.260000 0.290000 0.000000
0.260000 0.300000 0.000000
0.260000 0.310000 0.000000
0.260000 0.320000 0.000000
0.260000 0.330000 0.000000
0.260000 0.340000 0.000000
0.260000 0.350000 0.000000
0.260000 0.360000 0.000000
0.260000 0.370000 0.000000
0.260000 0.380000 0.000000
0.260000 0.390000 0.000000
0.260000 0.400000 0.000000
0.706000 0.410000 0.000000
0.706000 0.420000 0.000000
0.706000 0.430000 0.000000
0.706000 0.440000 0.000000
0.310000 -0.030000 0.000000
0.310000 -0.020000 0.000000
0.310000 -0.010000 0.000000
0.310000 0.000000 0.000000
0.310000 0.010000 0.000000
0.310000 0.020000 0.000000
0.310000 0.030000 0.000000
0.310000 0.040000 0.000000
0.310000 0.050000 0.000000
0.310000 0.060000 0.000000
0.310000 0.070000 0.000000
0.310000 0.080000 0.000000
0.310000 0.090000 0.000000
0.310000 0.100000 0.000000
0.310000 0.110000 0.000000
0.310000 0.120000 0.000000
0.310000 0.130000 0.000000
0.310000 0.140000 0.000000
0.310000 0.150000 0.000000
0.310000 0.160000 0.000000
0.310000 0.170000 0.000000
0.310000 0.180000 0.000000
0.310000 0.190000 0.000000
0.310000 0.200000 0.000000
0.310000 0.210000 0.000000
[...]
<PointData>
<DataArray NumberOfComponents='1' type='Int32' Name='ParticleType' format='ascii'>
4
4
4
4
4
4
4
4
4
4
4
4
4
4
4
4
4
4
4
4
4
4
4
4
4
4
4
4
4
4
4
4
4
4
4
4
4
4
4
4
4
4
4
4
4
4
3
3
2
2
2
2
2
2
2
2
2
2
2
2
2
2
2
2
2
2
2
2
2
2
2
2
2
2
2
2
2
2
2
2
2
2
2
2
2
2
2
2
5
5
5
5
4
4
3
3
2
2
2
2
2
2
2
2
2
2
2
2
2
2
2
2
2
2
2
2
2
2
2
2
2
2
2
2
2
2
2
2
2
2
2
2
2
2
2
2
5
5
5
5
4
4
3
3
2
2
2
2
2
2
2
2
2
2
2
2
2
2
2
2
2
2
2
2
2
2
2
2
2
2
2
2
2
2
2
2
2
2
2
2
2
2
2
2
5
5
5
5
4
4
3
3
2
2
2
2
2
2
2
2
2
2
2
2
2
2
2
2
2
2
2
2
2
2
2
2
2
2
2
2
2
2
2
2
2
2
2
2
2
2
2
2
5
5
5
5
4
4
3
3
2
2
2
2
2
2
2
2
2
2
2
2
2
2
2
2
2
2
2
2
2
2
2
2
2
2
2
2
2
2
2
2
2
2
2
2
2
2
2
2
5
5
5
5
4
4
3
3
2
2
2
2
2
2
2
2
2
2
2
2
2
2
2
2
2
2
2
2
2
2
2
2
2
2
2
2
2
2
2
2
2
2
2
2
2
2
2
2
5
5
5
5
4
4
3
3
2
2
2
2
2
2
2
2
2
2
2
2
2
2
2
2
2
2
2
2
2
2
2
2
2
2
2
2
2
2
2
2
2
2
2
2
2
2
2
2
5
5
5
5
4
4
3
3
2
2
2
2
2
2
2
2
2
2
2
2
2
2
2
2
2
2
2
2
2
2
2
2
2
2
2
2
2
2
2
2
2
2
2
2
2
2
2
2
5
5
5
5
4
4
3
3
2
2
2
2
2
2
2
2
2
2
2
2
2
2
2
2
2
2
2
2
2
2
2
2
2
2
2
2
2
2
2
2
2
2
2
2
2
2
2
2
5
5
5
5
4
4
3
3
2
2
2
2
2
2
2
2
2
2
2
2
2
2
2
2
2
2
2
2
2
2
2
2
2
2
2
2
2
2
2
2
2
2
2
2
2
2
2
2
5
5
5
5
4
4
3
3
2
2
2
2
2
2
2
2
2
2
2
2
2
2
2
2
2
2
2
2
2
2
2
2
2
2
2
2
2
2
2
2
2
2
2
2
2
2
2
2
4
4
3
3
2
2
2
2
2
2
2
2
2
2
2
2
2
2
2
2
2
2
2
2
2
2
2
2
2
2
2
2
2
2
2
2
2
2
2
2
2
2
2
2
4
4
3
3
2
2
2
2
2
2
2
2
2
2
2
2
2
2
2
2
2
2
2
2
2
2
2
2
2
2
2
2
2
2
2
2
2
2
2
2
2
2
2
2
4
4
3
3
2
2
2
2
2
2
2
2
2
2
2
2
2
2
2
2
2
2
2
2
2
2
2
2
2
2
2
2
2
2
2
2
2
2
2
2
2
2
2
2
4
4
3
3
2
2
2
2
2
2
2
2
2
2
2
2
2
2
2
2
2
2
2
2
2
2
2
2
2
2
2
2
2
2
2
2
2
2
2
2
2
2
2
2
4
4
3
3
2
2
2
2
2
2
2
2
2
2
2
2
2
2
2
2
2
2
2
2
2
2
2
2
2
2
2
2
2
2
2
2
2
2
2
2
2
2
2
2
4
4
3
3
2
2
2
2
2
2
2
2
2
2
2
2
2
2
2
2
2
2
2
2
2
2
2
2
2
2
2
2
2
2
2
2
2
2
2
2
2
2
2
2
4
4
3
3
2
2
2
2
2
2
2
2
2
2
2
2
2
2
2
2
2
2
2
2
2
2
2
2
2
2
2
2
2
2
2
2
2
2
2
2
2
2
2
2
4
4
3
3
2
2
2
2
2
2
2
2
2
2
2
2
2
2
2
2
2
2
2
2
2
2
2
2
2
2
2
2
2
2
2
2
2
2
2
2
2
2
2
2
4
4
3
3
2
2
2
2
2
2
2
2
2
2
2
2
2
2
2
2
2
2
2
2
2
2
2
2
2
2
2
2
2
2
2
2
2
2
2
2
2
2
2
2
4
4
3
3
2
2
2
2
2
2
2
2
2
2
2
2
2
2
2
2
2
2
2
2
2
2
2
2
2
2
2
2
2
2
2
2
2
2
2
2
2
2
2
2
4
4
3
3
2
2
2
2
2
2
2
2
2
2
2
2
2
2
2
2
2
2
2
2
2
2
2
2
2
2
2
2
2
2
2
2
2
2
2
2
2
2
2
2
4
4
3
3
2
2
2
2
2
2
2
2
2
2
2
2
2
2
2
2
2
2
2
2
2
2
2
2
2
2
2
2
2
2
2
2
2
2
2
2
2
2
2
2
4
4
3
3
2
2
2
2
2
2
2
2
2
2
2
2
2
2
2
2
2
2
2
2
2
2
2
2
2
2
2
2
2
2
2
2
2
2
2
2
2
2
2
2
4
4
3
3
2
2
2
2
2
2
2
2
2
2
2
2
2
2
2
2
2
2
2
2
2
2
2
2
2
2
2
2
2
2
2
2
2
2
2
2
2
2
2
2
4
4
3
3
2
2
2
2
2
2
2
2
2
2
2
2
2
2
2
2
2
2
2
2
2
2
2
2
2
2
2
2
2
2
2
2
2
2
2
2
2
2
2
2
4
4
3
3
2
2
2
2
2
2
2
2
2
2
2
2
2
2
2
2
2
2
2
2
2
2
2
2
2
2
2
2
2
2
2
2
2
2
2
2
2
2
2
2
4
4
3
3
2
2
2
2
2
2
2
2
2
2
2
2
2
2
2
2
2
2
2
2
2
2
2
2
2
2
2
2
2
2
2
2
2
2
2
2
2
2
2
2
4
4
3
3
2
2
2
2
2
2
2
2
2
2
2
2
2
2
2
2
2
2
2
2
2
2
2
2
2
2
2
2
2
2
2
2
2
2
2
2
2
2
2
2
4
4
3
3
2
2
2
2
2
2
2
2
2
2
2
2
2
2
2
2
2
2
2
2
2
2
2
2
2
2
2
2
2
2
2
2
2
2
2
2
2
2
2
2
4
4
3
3
2
2
2
2
2
2
2
2
2
2
2
2
2
2
2
2
2
2
2
2
2
2
2
2
2
2
2
2
2
2
2
2
2
2
2
2
2
2
2
2
4
4
3
3
2
2
2
2
2
2
2
2
2
2
2
2
2
2
2
2
2
2
2
2
2
2
2
2
2
2
2
2
2
2
2
2
2
2
2
2
2
2
2
2
4
4
3
3
2
2
2
2
2
2
2
2
2
2
2
2
2
2
2
2
2
2
2
2
2
2
2
2
2
2
2
2
2
2
2
2
2
2
2
2
2
2
2
2
4
4
3
3
2
2
2
2
2
2
2
2
2
2
2
2
2
2
2
2
2
2
2
2
2
2
2
2
2
2
2
2
2
2
2
2
2
2
2
2
2
2
2
2
4
4
3
3
2
2
2
2
2
2
2
2
2
2
2
2
2
2
2
2
2
2
2
2
2
2
2
2
2
2
2
2
2
2
2
2
2
2
2
2
2
2
2
2
4
4
3
3
2
2
2
2
2
2
2
2
2
2
2
2
2
2
2
2
2
2
2
2
2
2
2
2
2
2
2
2
2
2
2
2
2
2
2
2
2
2
2
2
4
4
3
3
2
2
2
2
2
2
2
2
2
2
2
2
2
2
2
2
2
2
2
2
2
2
2
2
2
2
2
2
2
2
2
2
2
2
2
2
2
2
2
2
4
4
3
3
2
2
2
2
2
2
2
2
2
2
2
2
2
2
2
2
2
2
2
2
2
2
2
2
2
2
2
2
2
2
2
2
2
2
2
2
2
2
2
2
4
4
3
3
2
2
2
2
2
2
2
2
2
2
2
2
2
2
2
2
2
2
2
2
2
2
2
2
2
2
2
2
2
2
2
2
2
2
2
2
2
2
2
2
4
4
3
3
2
2
2
2
2
2
2
2
2
2
2
2
2
2
2
2
2
2
2
2
2
2
2
2
2
2
2
2
2
2
2
2
2
2
2
2
2
2
2
2
4
4
3
3
3
3
3
3
3
3
3
3
3
3
3
3
3
3
3
3
3
3
3
3
3
3
3
3
3
3
3
3
3
3
3
3
3
3
3
3
3
3
3
3
</DataArray>
<DataArray NumberOfComponents='1' type='Float32' Name='Temperature' format='ascii'>
0.000000
0.000000
0.000000
0.000000
0.000000
0.000000
0.000000
0.000000
0.000000
0.000000
0.000000
0.000000
0.000000
0.000000
0.000000
0.000000
0.000000
0.000000
0.000000
0.000000
0.000000
0.000000
0.000000
0.000000
0.000000
0.000000
0.000000
0.000000
0.000000
0.000000
0.000000
0.000000
0.000000
0.000000
0.000000
0.000000
0.000000
0.000000
0.000000
0.000000
0.000000
0.000000
0.000000
0.000000
0.000000
0.000000
0.000000
0.000000
-0.226584
-0.409115
-0.596571
-0.781836
-0.965219
-1.146206
-1.324386
-1.499356
-1.670736
-1.838172
-2.001334
-2.159919
-2.313653
-2.462291
-2.605617
-2.743446
-2.875623
-3.002021
-3.122543
-3.237118
-3.345702
-3.448273
-3.544835
-3.635409
-3.720036
-3.798770
-3.871681
-3.938847
-4.000355
-4.056298
-4.106770
-4.151865
-4.191678
-4.226296
-4.255802
-4.280269
-4.299763
-4.314334
-4.323961
-4.329982
-3.000000
-3.000000
-3.000000
-3.000000
0.000000
0.000000
0.000000
0.000000
-0.220538
-0.398159
-0.580505
-0.760622
-0.938782
-1.114459
-1.287226
-1.456672
-1.622408
-1.784072
-1.941331
-2.093882
-2.241451
-2.383801
-2.520723
-2.652044
-2.777625
-2.897355
-3.011159
-3.118991
-3.220832
-3.316690
-3.406601
-3.490618
-3.568817
-3.641289
-3.708140
-3.769485
-3.825448
-3.876158
-3.921744
-3.962335
-3.998056
-4.029025
-4.055350
-4.077129
-4.094447
-4.107372
-4.115902
-4.121232
-3.000000
-3.000000
-3.000000
-3.000000
0.000000
0.000000
0.000000
0.000000
-0.216619
-0.391047
-0.570055
-0.746783
-0.921472
-1.093581
-1.262670
-1.428311
-1.590107
-1.747685
-1.900706
-2.048862
-2.191881
-2.329525
-2.461591
-2.587915
-2.708367
-2.822855
-2.931318
-3.033732
-3.130102
-3.220463
-3.304879
-3.383435
-3.456240
-3.523419
-3.585114
-3.641476
-3.692666
-3.738848
-3.780188
-3.816847
-3.848984
-3.876745
-3.900267
-3.919671
-3.935064
-3.946529
-3.954085
-3.958801
-3.000000
-3.000000
-3.000000
-3.000000
0.000000
0.000000
0.000000
0.000000
-0.213959
-0.386208
-0.562919
-0.737287
-0.909525
-1.079074
-1.245473
-1.408281
-1.567082
-1.721495
-1.871168
-2.015787
-2.155074
-2.288789
-2.416732
-2.538744
-2.654702
-2.764528
-2.868176
-2.965642
-3.056954
-3.142174
-3.221396
-3.294737
-3.362341
-3.424373
-3.481011
-3.532451
-3.578892
-3.620541
-3.657603
-3.690283
-3.718773
-3.743259
-3.763908
-3.780872
-3.794280
-3.804238
-3.810787
-3.814868
-3.000000
-3.000000
-3.000000
-3.000000
0.000000
0.000000
0.000000
0.000000
-0.212321
-0.383217
-0.558481
-0.731334
-0.901960
-1.069781
-1.234314
-1.395099
-1.551702
-1.703724
-1.850799
-1.992601
-2.128840
-2.259271
-2.383690
-2.501936
-2.613891
-2.719483
-2.818680
-2.911493
-2.997972
-3.078205
-3.152315
-3.220455
-3.282808
-3.339580
-3.390997
-3.437299
-3.478739
-3.515572
-3.548056
-3.576444
-3.600980
-3.621891
-3.639391
-3.653668
-3.664885
-3.673175
-3.678607
-3.681981
-3.000000
-3.000000
-3.000000
-3.000000
0.000000
0.000000
0.000000
0.000000
-0.211524
-0.381750
-0.556280
-0.728337
-0.898082
-1.064917
-1.228337
-1.387862
-1.543038
-1.693443
-1.838694
-1.978442
-2.112384
-2.240255
-2.361840
-2.476966
-2.585510
-2.687398
-2.782599
-2.871133
-2.953065
-3.028502
-3.097594
-3.160529
-3.217529
-3.268846
-3.314760
-3.355567
-3.391581
-3.423124
-3.450519
-3.474086
-3.494136
-3.510962
-3.524835
-3.535998
-3.544663
-3.551002
-3.555125
-3.557670
-3.000000
-3.000000
-3.000000
-3.000000
0.000000
0.000000
0.000000
0.000000
-0.211285
-0.381304
-0.555593
-0.727373
-0.896789
-1.063226
-1.226167
-1.385110
-1.539582
-1.689142
-1.833380
-1.971926
-2.104448
-2.230657
-2.350309
-2.463207
-2.569206
-2.668206
-2.760164
-2.845086
-2.923032
-2.994113
-3.058489
-3.116371
-3.168014
-3.213713
-3.253803
-3.288647
-3.318636
-3.344174
-3.365679
-3.383566
-3.398246
-3.410109
-3.419523
-3.426819
-3.432287
-3.436167
-3.438630
-3.440119
-3.000000
-3.000000
-3.000000
-3.000000
0.000000
0.000000
0.000000
0.000000
-0.211261
-0.381258
-0.555519
-0.727261
-0.896626
-1.062994
-1.225840
-1.384656
-1.538957
-1.688288
-1.832224
-1.970374
-2.102383
-2.227933
-2.346750
-2.458599
-2.563291
-2.660687
-2.750694
-2.833271
-2.908434
-2.976249
-3.036845
-3.090407
-3.137179
-3.177465
-3.211627
-3.240081
-3.263293
-3.281773
-3.296063
-3.306730
-3.314351
-3.319495
-3.322713
-3.324516
-3.325359
-3.325630
-3.325634
-3.325547
-3.000000
-3.000000
-3.000000
-3.000000
0.000000
0.000000
0.000000
0.000000
-0.211261
-0.381258
-0.555518
-0.727260
-0.896624
-1.062992
-1.225836
-1.384649
-1.538946
-1.688269
-1.832193
-1.970324
-2.102303
-2.227806
-2.346551
-2.458290
-2.562818
-2.659971
-2.749625
-2.831694
-2.906138
-2.972952
-3.032175
-3.083885
-3.128202
-3.165295
-3.195381
-3.218739
-3.235718
-3.246755
-3.252383
-3.253253
-3.250138
-3.243938
-3.235662
-3.226396
-3.217248
-3.209267
-3.203409
-3.199434
-3.000000
-3.000000
-3.000000
-3.000000
0.000000
0.000000
0.000000
0.000000
-0.211261
-0.381258
-0.555518
-0.727260
-0.896624
-1.062992
-1.225836
-1.384649
-1.538946
-1.688269
-1.832193
-1.970324
-2.102303
-2.227806
-2.346551
-2.458290
-2.562818
-2.659971
-2.749625
-2.831694
-2.906137
-2.972951
-3.032172
-3.083878
-3.128187
-3.165262
-3.195311
-3.218595
-3.235428
-3.246180
-3.251274
-3.251161
-3.246290
-3.237040
-3.223624
-3.205964
-3.183526
-3.155406
-3.119078
-3.075766
-3.000000
-3.000000
-3.000000
-3.000000
0.000000
0.000000
0.000000
0.000000
-0.213543
-0.385377
-0.561523
-0.735127
-0.906331
-1.074509
-1.239130
-1.399677
-1.555660
-1.706613
-1.852102
-1.991727
-2.125118
-2.251945
-2.371914
-2.484770
-2.590298
-2.688326
-2.778718
-2.861384
-2.936272
-3.003371
-3.062712
-3.114366
-3.158447
-3.195115
-3.224578
-3.247097
-3.262991
-3.272640
-3.276475
-3.274963
-3.268564
-3.257664
-3.242470
-3.222877
-3.198289
-3.167713
-3.128405
-3.081659
0.000000
0.000000
0.000000
0.000000
-0.217700
-0.392887
-0.572483
-0.749505
-0.924103
-1.095641
-1.263578
-1.427389
-1.586569
-1.740643
-1.889161
-2.031706
-2.167893
-2.297374
-2.419834
-2.535000
-2.642635
-2.742546
-2.834578
-2.918617
-2.994592
-3.062473
-3.122273
-3.174046
-3.217893
-3.253963
-3.282459
-3.303642
-3.317838
-3.325438
-3.326895
-3.322699
-3.313336
-3.299203
-3.280497
-3.257059
-3.228167
-3.192648
-3.147317
-3.093614
0.000000
0.000000
0.000000
0.000000
-0.221920
-0.400521
-0.583645
-0.764185
-0.942307
-1.117368
-1.288826
-1.456146
-1.618817
-1.776350
-1.928283
-2.074181
-2.213640
-2.346289
-2.471789
-2.589841
-2.700179
-2.802579
-2.896857
-2.982866
-3.060504
-3.129710
-3.190466
-3.242799
-3.286785
-3.322552
-3.350289
-3.370249
-3.382758
-3.388219
-3.387104
-3.379930
-3.367208
-3.349352
-3.326542
-3.298555
-3.264516
-3.223034
-3.170393
-3.108214
0.000000
0.000000
0.000000
0.000000
-0.225913
-0.407759
-0.594263
-0.778212
-0.959795
-1.138376
-1.313416
-1.484381
-1.650758
-1.812050
-1.967783
-2.117505
-2.260792
-2.397246
-2.526500
-2.648216
-2.762093
-2.867863
-2.965295
-3.054197
-3.134417
-3.205843
-3.268408
-3.322092
-3.366927
-3.403001
-3.430470
-3.449565
-3.460604
-3.463989
-3.460210
-3.449808
-3.433322
-3.411181
-3.383547
-3.350112
-3.309815
-3.260993
-3.199269
-3.126503
0.000000
0.000000
0.000000
0.000000
-0.229240
-0.413812
-0.603194
-0.790104
-0.974765
-1.156563
-1.334977
-1.509486
-1.679586
-1.844782
-2.004596
-2.158566
-2.306249
-2.447222
-2.581082
-2.707453
-2.825982
-2.936345
-3.038249
-3.131430
-3.215662
-3.290755
-3.356561
-3.412978
-3.459961
-3.497525
-3.525760
-3.544846
-3.555063
-3.556797
-3.550538
-3.536846
-3.516281
-3.489283
-3.455983
-3.415963
-3.367922
-3.309850
-3.236528
-3.150140
0.000000
0.000000
0.000000
0.000000
-0.231426
-0.417821
-0.609178
-0.798193
-0.985137
-1.169434
-1.350599
-1.528144
-1.701591
-1.870470
-2.034317
-2.192680
-2.345115
-2.491186
-2.630469
-2.762551
-2.887032
-3.003524
-3.111656
-3.211075
-3.301448
-3.382468
-3.453861
-3.515390
-3.566871
-3.608183
-3.639287
-3.660246
-3.671244
-3.672599
-3.664758
-3.648264
-3.623678
-3.591425
-3.551574
-3.503548
-3.445712
-3.375597
-3.286855
-3.182145
0.000000
0.000000
0.000000
0.000000
-0.232313
-0.419474
-0.611706
-0.801721
-0.989837
-1.175522
-1.358339
-1.537851
-1.713633
-1.885267
-2.052343
-2.214459
-2.371215
-2.522217
-2.667068
-2.805368
-2.936715
-3.060696
-3.176888
-3.284860
-3.384168
-3.474364
-3.554997
-3.625626
-3.685834
-3.735249
-3.773572
-3.800609
-3.816299
-3.820749
-3.814229
-3.797147
-3.769955
-3.732967
-3.686087
-3.628442
-3.557877
-3.471229
-3.360520
-3.229187
0.000000
0.000000
0.000000
0.000000
-0.232430
-0.419700
-0.612073
-0.802271
-0.990633
-1.176650
-1.359916
-1.540032
-1.716619
-1.889316
-2.057785
-2.221704
-2.380772
-2.534702
-2.683220
-2.826057
-2.962941
-3.093591
-3.217703
-3.334936
-3.444903
-3.547154
-3.641169
-3.726356
-3.802052
-3.867540
-3.922082
-3.964958
-3.995523
-4.013255
-4.017794
-4.008928
-3.986503
-3.950221
-3.899293
-3.831985
-3.744956
-3.633675
-3.487312
-3.310856
0.000000
0.000000
0.000000
0.000000
-0.232430
-0.419702
-0.612076
-0.802277
-0.990642
-1.176666
-1.359943
-1.540077
-1.716694
-1.889441
-2.057987
-2.222030
-2.381292
-2.535521
-2.684494
-2.828015
-2.965917
-3.098059
-3.224325
-3.344625
-3.458894
-3.567087
-3.669175
-3.765145
-3.854987
-3.938684
-4.016186
-4.087370
-4.151972
-4.209480
-4.258955
-4.298777
-4.326283
-4.337299
-4.325599
-4.282410
-4.195889
-4.052788
-3.830990
-3.539568
0.000000
0.000000
0.000000
0.000000
-0.232430
-0.419702
-0.612076
-0.802277
-0.990642
-1.176666
-1.359943
-1.540077
-1.716694
-1.889441
-2.057987
-2.222030
-2.381292
-2.535521
-2.684494
-2.828015
-2.965918
-3.098059
-3.224326
-3.344628
-3.458901
-3.567101
-3.669208
-3.765217
-3.855145
-3.939019
-4.016881
-4.088784
-4.154787
-4.214957
-4.269363
-4.318076
-4.361166
-4.398700
-4.430743
-4.457350
-4.478574
-4.494453
-4.504952
-4.511521
0.000000
0.000000
0.000000
0.000000
-0.232430
-0.419702
-0.612076
-0.802277
-0.990642
-1.176666
-1.359943
-1.540077
-1.716694
-1.889441
-2.057987
-2.222030
-2.381292
-2.535521
-2.684494
-2.828015
-2.965918
-3.098059
-3.224326
-3.344628
-3.458901
-3.567101
-3.669208
-3.765217
-3.855145
-3.939019
-4.016881
-4.088784
-4.154787
-4.214957
-4.269363
-4.318076
-4.361166
-4.398700
-4.430743
-4.457350
-4.478574
-4.494453
-4.504952
-4.511521
0.000000
0.000000
0.000000
0.000000
-0.232430
-0.419702
-0.612076
-0.802277
-0.990642
-1.176666
-1.359943
-1.540077
-1.716694
-1.889441
-2.057987
-2.222030
-2.381292
-2.535521
-2.684494
-2.828015
-2.965918
-3.098059
-3.224326
-3.344628
-3.458901
-3.567101
-3.669208
-3.765217
-3.855145
-3.939019
-4.016881
-4.088784
-4.154787
-4.214957
-4.269363
-4.318076
-4.361166
-4.398700
-4.430743
-4.457350
-4.478574
-4.494453
-4.504952
-4.511521
0.000000
0.000000
0.000000
0.000000
-0.232430
-0.419702
-0.612076
-0.802277
-0.990642
-1.176666
-1.359943
-1.540077
-1.716694
-1.889441
-2.057987
-2.222030
-2.381292
-2.535521
-2.684494
-2.828015
-2.965918
-3.098059
-3.224326
-3.344628
-3.458901
-3.567101
-3.669208
-3.765217
-3.855145
-3.939019
-4.016881
-4.088784
-4.154787
-4.214957
-4.269363
-4.318076
-4.361166
-4.398700
-4.430743
-4.457350
-4.478574
-4.494453
-4.504952
-4.511521
0.000000
0.000000
0.000000
0.000000
-0.232430
-0.419702
-0.612076
-0.802277
-0.990642
-1.176666
-1.359943
-1.540077
-1.716694
-1.889441
-2.057987
-2.222030
-2.381292
-2.535521
-2.684494
-2.828015
-2.965918
-3.098059
-3.224326
-3.344628
-3.458901
-3.567101
-3.669208
-3.765217
-3.855145
-3.939019
-4.016881
-4.088784
-4.154787
-4.214957
-4.269363
-4.318076
-4.361166
-4.398700
-4.430743
-4.457350
-4.478574
-4.494453
-4.504952
-4.511521
0.000000
0.000000
0.000000
0.000000
-0.232430
-0.419702
-0.612076
-0.802277
-0.990642
-1.176666
-1.359943
-1.540077
-1.716694
-1.889441
-2.057987
-2.222030
-2.381292
-2.535521
-2.684494
-2.828015
-2.965918
-3.098059
-3.224326
-3.344628
-3.458901
-3.567101
-3.669208
-3.765217
-3.855145
-3.939019
-4.016881
-4.088784
-4.154787
-4.214957
-4.269363
-4.318076
-4.361166
-4.398700
-4.430743
-4.457350
-4.478574
-4.494453
-4.504952
-4.511521
0.000000
0.000000
0.000000
0.000000
-0.232430
-0.419702
-0.612076
-0.802277
-0.990642
-1.176666
-1.359943
-1.540077
-1.716694
-1.889441
-2.057987
-2.222030
-2.381292
-2.535521
-2.684494
-2.828015
-2.965918
-3.098059
-3.224326
-3.344628
-3.458901
-3.567101
-3.669208
-3.765217
-3.855145
-3.939019
-4.016881
-4.088784
-4.154787
-4.214957
-4.269363
-4.318076
-4.361166
-4.398700
-4.430743
-4.457350
-4.478574
-4.494453
-4.504952
-4.511521
0.000000
0.000000
0.000000
0.000000
-0.232430
-0.419702
-0.612076
-0.802277
-0.990642
-1.176666
-1.359943
-1.540077
-1.716694
-1.889441
-2.057987
-2.222030
-2.381292
-2.535521
-2.684494
-2.828015
-2.965918
-3.098059
-3.224326
-3.344628
-3.458901
-3.567101
-3.669208
-3.765217
-3.855145
-3.939019
-4.016881
-4.088784
-4.154787
-4.214957
-4.269363
-4.318076
-4.361166
-4.398700
-4.430743
-4.457350
-4.478574
-4.494453
-4.504952
-4.511521
0.000000
0.000000
0.000000
0.000000
-0.232430
-0.419702
-0.612076
-0.802277
-0.990642
-1.176666
-1.359943
-1.540077
-1.716694
-1.889441
-2.057987
-2.222030
-2.381292
-2.535521
-2.684494
-2.828015
-2.965918
-3.098059
-3.224326
-3.344628
-3.458901
-3.567101
-3.669208
-3.765217
-3.855145
-3.939019
-4.016881
-4.088784
-4.154787
-4.214957
-4.269363
-4.318076
-4.361166
-4.398700
-4.430743
-4.457350
-4.478574
-4.494453
-4.504952
-4.511521
0.000000
0.000000
0.000000
0.000000
-0.232430
-0.419702
-0.612076
-0.802277
-0.990642
-1.176666
-1.359943
-1.540077
-1.716694
-1.889441
-2.057987
-2.222030
-2.381292
-2.535521
-2.684494
-2.828015
-2.965918
-3.098059
-3.224326
-3.344628
-3.458901
-3.567101
-3.669208
-3.765217
-3.855145
-3.939019
-4.016881
-4.088784
-4.154787
-4.214957
-4.269363
-4.318076
-4.361166
-4.398700
-4.430743
-4.457350
-4.478574
-4.494453
-4.504952
-4.511521
0.000000
0.000000
0.000000
0.000000
-0.232430
-0.419702
-0.612076
-0.802277
-0.990642
-1.176666
-1.359943
-1.540077
-1.716694
-1.889441
-2.057987
-2.222030
-2.381292
-2.535521
-2.684494
-2.828015
-2.965918
-3.098059
-3.224326
-3.344628
-3.458901
-3.567101
-3.669208
-3.765217
-3.855145
-3.939019
-4.016881
-4.088784
-4.154787
-4.214957
-4.269363
-4.318076
-4.361166
-4.398700
-4.430743
-4.457350
-4.478574
-4.494453
-4.504952
-4.511521
0.000000
0.000000
0.000000
0.000000
-0.232430
-0.419702
-0.612076
-0.802277
-0.990642
-1.176666
-1.359943
-1.540077
-1.716694
-1.889441
-2.057987
-2.222030
-2.381292
-2.535521
-2.684494
-2.828015
-2.965918
-3.098059
-3.224326
-3.344628
-3.458901
-3.567101
-3.669208
-3.765217
-3.855145
-3.939019
-4.016881
-4.088784
-4.154787
-4.214957
-4.269363
-4.318076
-4.361166
-4.398700
-4.430743
-4.457350
-4.478574
-4.494453
-4.504952
-4.511521
0.000000
0.000000
0.000000
0.000000
-0.232430
-0.419702
-0.612076
-0.802277
-0.990642
-1.176666
-1.359943
-1.540077
-1.716694
-1.889441
-2.057987
-2.222030
-2.381292
-2.535521
-2.684494
-2.828015
-2.965918
-3.098059
-3.224326
-3.344628
-3.458901
-3.567101
-3.669208
-3.765217
-3.855145
-3.939019
-4.016881
-4.088784
-4.154787
-4.214957
-4.269363
-4.318076
-4.361166
-4.398700
-4.430743
-4.457350
-4.478574
-4.494453
-4.504952
-4.511521
0.000000
0.000000
0.000000
0.000000
-0.232430
-0.419702
-0.612076
-0.802277
-0.990642
-1.176666
-1.359943
-1.540077
-1.716694
-1.889441
-2.057987
-2.222030
-2.381292
-2.535521
-2.684494
-2.828015
-2.965918
-3.098059
-3.224326
-3.344628
-3.458901
-3.567101
-3.669208
-3.765217
-3.855145
-3.939019
-4.016881
-4.088784
-4.154787
-4.214957
-4.269363
-4.318076
-4.361166
-4.398700
-4.430743
-4.457350
-4.478574
-4.494453
-4.504952
-4.511521
0.000000
0.000000
0.000000
0.000000
-0.232430
-0.419702
-0.612076
-0.802277
-0.990642
-1.176666
-1.359943
-1.540077
-1.716694
-1.889441
-2.057987
-2.222030
-2.381292
-2.535521
-2.684494
-2.828015
-2.965918
-3.098059
-3.224326
-3.344628
-3.458901
-3.567101
-3.669208
-3.765217
-3.855145
-3.939019
-4.016881
-4.088784
-4.154787
-4.214957
-4.269363
-4.318076
-4.361166
-4.398700
-4.430743
-4.457350
-4.478574
-4.494453
-4.504952
-4.511521
0.000000
0.000000
0.000000
0.000000
-0.232430
-0.419702
-0.612076
-0.802277
-0.990642
-1.176666
-1.359943
-1.540077
-1.716694
-1.889441
-2.057987
-2.222030
-2.381292
-2.535521
-2.684494
-2.828015
-2.965918
-3.098059
-3.224326
-3.344628
-3.458901
-3.567101
-3.669208
-3.765217
-3.855145
-3.939019
-4.016881
-4.088784
-4.154787
-4.214957
-4.269363
-4.318076
-4.361166
-4.398700
-4.430743
-4.457350
-4.478574