<?xml version='1.0' encoding='UTF-8'?>
<VTKFile xmlns='VTK' byte_order='LittleEndian' version='0.1' type='UnstructuredGrid'>
<UnstructuredGrid>
<Piece NumberOfCells='1816' NumberOfPoints='1816'>
<Points>
<DataArray NumberOfComponents='3' type='Float32' Name='Position' format='ascii'>
2.050000 0.400000 0.000000
2.050000 0.412500 0.000000
2.050000 0.425000 0.000000
2.050000 0.437500 0.000000
2.050000 0.450000 0.000000
2.050000 0.462500 0.000000
2.050000 0.475000 0.000000
2.050000 0.487500 0.000000
2.087500 0.400000 0.000000
2.087500 0.412500 0.000000
2.087500 0.425000 0.000000
2.087500 0.437500 0.000000
2.087500 0.450000 0.000000
2.087500 0.462500 0.000000
2.087500 0.475000 0.000000
2.087500 0.487500 0.000000
0.025000 0.000000 0.000000
0.025000 0.012500 0.000000
0.025000 0.025000 0.000000
0.025000 0.037500 0.000000
0.025000 0.050000 0.000000
0.025000 0.062500 0.000000
0.025000 0.075000 0.000000
0.025000 0.087500 0.000000
0.025000 0.100000 0.000000
0.025000 0.112500 0.000000
0.025000 0.125000 0.000000
0.025000 0.137500 0.000000
0.025000 0.150000 0.000000
0.025000 0.162500 0.000000
0.025000 0.175000 0.000000
0.025000 0.187500 0.000000
0.025000 0.200000 0.000000
0.025000 0.212500 0.000000
0.025000 0.225000 0.000000
0.025000 0.237500 0.000000
0.025000 0.250000 0.000000
0.025000 0.262500 0.000000
0.025000 0.275000 0.000000
0.025000 0.287500 0.000000
0.025000 0.300000 0.000000
0.025000 0.312500 0.000000
0.025000 0.325000 0.000000
0.025000 0.337500 0.000000
0.025000 0.350000 0.000000
0.025000 0.362500 0.000000
0.025000 0.375000 0.000000
0.025000 0.387500 0.000000
2.125000 0.400000 0.000000
2.125000 0.412500 0.000000
2.125000 0.425000 0.000000
2.125000 0.437500 0.000000
2.125000 0.450000 0.000000
2.125000 0.462500 0.000000
2.125000 0.475000 0.000000
2.125000 0.487500 0.000000
0.062500 0.000000 0.000000
0.062500 0.012500 0.000000
0.062500 0.025000 0.000000
0.062500 0.037500 0.000000
0.062500 0.050000 0.000000
0.062500 0.062500 0.000000
0.062500 0.075000 0.000000
0.062500 0.087500 0.000000
0.062500 0.100000 0.000000
0.062500 0.112500 0.000000
0.062500 0.125000 0.000000
0.062500 0.137500 0.000000
0.062500 0.150000 0.000000
0.062500 0.162500 0.000000
0.062500 0.175000 0.000000
0.062500 0.187500 0.000000
0.062500 0.200000 0.000000
0.062500 0.212500 0.000000
0.062500 0.225000 0.000000
0.062500 0.237500 0.000000
0.062500 0.250000 0.000000
0.062500 0.262500 0.000000
0.062500 0.275000 0.000000
0.062500 0.287500 0.000000
0.062500 0.300000 0.000000
0.062500 0.312500 0.000000
0.062500 0.325000 0.000000
0.062500 0.337500 0.000000
0.062500 0.350000 0.000000
0.062500 0.362500 0.000000
0.062500 0.375000 0.000000
0.062500 0.387500 0.000000
2.162500 0.400000 0.000000
2.162500 0.412500 0.000000
2.162500 0.425000 0.000000
2.162500 0.437500 0.000000
2.162500 0.450000 0.000000
2.162500 0.462500 0.000000
2.162500 0.475000 0.000000
2.162500 0.487500 0.000000
0.100000 0.000000 0.000000
0.100000 0.012500 0.000000
0.100000 0.025000 0.000000
0.100000 0.037500 0.000000
0.100000 0.050000 0.000000
0.100000 0.062500 0.000000
0.100000 0.075000 0.000000
0.100000 0.087500 0.000000
0.100000 0.100000 0.000000
0.100000 0.112500 0.000000
0.100000 0.125000 0.000000
0.100000 0.137500 0.000000
0.100000 0.150000 0.000000
0.100000 0.162500 0.000000
0.100000 0.175000 0.000000
0.100000 0.187500 0.000000
0.100000 0.200000 0.000000
0.100000 0.212500 0.000000
0.100000 0.225000 0.000000
0.100000 0.237500 0.000000
0.100000 0.250000 0.000000
0.100000 0.262500 0.000000
0.100000 0.275000 0.000000
0.100000 0.287500 0.000000
0.100000 0.300000 0.000000
0.100000 0.312500 0.000000
0.100000 0.325000 0.000000
0.100000 0.337500 0.000000
0.100000 0.350000 0.000000
0.100000 0.362500 0.000000
0.100000 0.375000 0.000000
0.100000 0.387500 0.000000
2.200000 0.400000 0.000000
2.200000 0.412500 0.000000
2.200000 0.425000 0.000000
2.200000 0.437500 0.000000
2.200000 0.450000 0.000000
2.200000 0.462500 0.000000
2.200000 0.475000 0.000000
2.200000 0.487500 0.000000
0.137500 0.000000 0.000000
0.137500 0.012500 0.000000
0.137500 0.025000 0.000000
0.137500 0.037500 0.000000
0.137500 0.050000 0.000000
0.137500 0.062500 0.000000
0.137500 0.075000 0.000000
0.137500 0.087500 0.000000
0.137500 0.100000 0.000000
0.137500 0.112500 0.000000
0.137500 0.125000 0.000000
0.137500 0.137500 0.000000
0.137500 0.150000 0.000000
0.137500 0.162500 0.000000
0.137500 0.175000 0.000000
0.137500 0.187500 0.000000
0.137500 0.200000 0.000000
0.137500 0.212500 0.000000
0.137500 0.225000 0.000000
0.137500 0.237500 0.000000
0.137500 0.250000 0.000000
0.137500 0.262500 0.000000
0.137500 0.275000 0.000000
0.137500 0.287500 0.000000
0.137500 0.300000 0.000000
0.137500 0.312500 0.000000
0.137500 0.325000 0.000000
0.137500 0.337500 0.000000
0.137500 0.350000 0.000000
0.137500 0.362500 0.000000
0.137500 0.375000 0.000000
0.137500 0.387500 0.000000
2.237500 0.400000 0.000000
2.237500 0.412500 0.000000
2.237500 0.425000 0.000000
2.237500 0.437500 0.000000
2.237500 0.450000 0.000000
2.237500 0.462500 0.000000
2.237500 0.475000 0.000000
2.237500 0.487500 0.000000
0.175000 0.000000 0.000000
0.175000 0.012500 0.000000
0.175000 0.025000 0.000000
0.175000 0.037500 0.000000
0.175000 0.050000 0.000000
0.175000 0.062500 0.000000
0.175000 0.075000 0.000000
0.175000 0.087500 0.000000
0.175000 0.100000 0.000000
0.175000 0.112500 0.000000
0.175000 0.125000 0.000000
0.175000 0.137500 0.000000
0.175000 0.150000 0.000000
0.175000 0.162500 0.000000
0.175000 0.175000 0.000000
0.175000 0.187500 0.000000
0.175000 0.200000 0.000000
0.175000 0.212500 0.000000
0.175000 0.225000 0.000000
0.175000 0.237500 0.000000
0.175000 0.250000 0.000000
0.175000 0.262500 0.000000
0.175000 0.275000 0.000000
0.175000 0.287500 0.000000
0.175000 0.300000 0.000000
0.175000 0.312500 0.000000
0.175000 0.325000 0.000000
0.175000 0.337500 0.000000
0.175000 0.350000 0.000000
0.175000 0.362500 0.000000
0.175000 0.375000 0.000000
0.175000 0.387500 0.000000
2.275000 0.400000 0.000000
2.275000 0.412500 0.000000
2.275000 0.425000 0.000000
2.275000 0.437500 0.000000
2.275000 0.450000 0.000000
2.275000 0.462500 0.000000
2.275000 0.475000 0.000000
2.275000 0.487500 0.000000
0.212500 0.000000 0.000000
0.212500 0.012500 0.000000
0.212500 0.025000 0.000000
0.212500 0.037500 0.000000
0.212500 0.050000 0.000000
0.212500 0.062500 0.000000
0.212500 0.075000 0.000000
0.212500 0.087500 0.000000
0.212500 0.100000 0.000000
0.212500 0.112500 0.000000
0.212500 0.125000 0.000000
0.212500 0.137500 0.000000
0.212500 0.150000 0.000000
0.212500 0.162500 0.000000
0.212500 0.175000 0.000000
0.212500 0.187500 0.000000
0.212500 0.200000 0.000000
0.212500 0.212500 0.000000
0.212500 0.225000 0.000000
0.212500 0.237500 0.000000
0.212500 0.250000 0.000000
0.212500 0.262500 0.000000
0.212500 0.275000 0.000000
0.212500 0.287500 0.000000
0.212500 0.300000 0.000000
0.212500 0.312500 0.000000
0.212500 0.325000 0.000000
0.212500 0.337500 0.000000
0.212500 0.350000 0.000000
0.212500 0.362500 0.000000
0.212500 0.375000 0.000000
0.212500 0.387500 0.000000
2.312500 0.400000 0.000000
2.312500 0.412500 0.000000
2.312500 0.425000 0.000000
2.312500 0.437500 0.000000
2.312500 0.450000 0.000000
2.312500 0.462500 0.000000
2.312500 0.475000 0.000000
2.312500 0.487500 0.000000
0.250000 0.000000 0.000000
0.250000 0.012500 0.000000
0.250000 0.025000 0.000000
0.250000 0.037500 0.000000
0.250000 0.050000 0.000000
0.250000 0.062500 0.000000
0.250000 0.075000 0.000000
0.250000 0.087500 0.000000
0.250000 0.100000 0.000000
0.250000 0.112500 0.000000
0.250000 0.125000 0.000000
0.250000 0.137500 0.000000
0.250000 0.150000 0.000000
0.250000 0.162500 0.000000
0.250000 0.175000 0.000000
0.250000 0.187500 0.000000
0.250000 0.200000 0.000000
0.250000 0.212500 0.000000
0.250000 0.225000 0.000000
0.250000 0.237500 0.000000
0.250000 0.250000 0.000000
0.250000 0.262500 0.000000
0.250000 0.275000 0.000000
0.250000 0.287500 0.000000
0.250000 0.300000 0.000000
0.250000 0.312500 0.000000
0.250000 0.325000 0.000000
0.250000 0.337500 0.000000
0.250000 0.350000 0.000000
0.250000 0.362500 0.000000
0.250000 0.375000 0.000000
0.250000 0.387500 0.000000
2.350000 0.400000 0.000000
2.350000 0.412500 0.000000
2.350000 0.425000 0.000000
2.350000 0.437500 0.000000
2.350000 0.450000 0.000000
2.350000 0.462500 0.000000
2.350000 0.475000 0.000000
2.350000 0.487500 0.000000
0.287500 0.000000 0.000000
0.287500 0.012500 0.000000
0.287500 0.025000 0.000000
0.287500 0.037500 0.000000
0.287500 0.050000 0.000000
0.287500 0.062500 0.000000
0.287500 0.075000 0.000000
0.287500 0.087500 0.000000
0.287500 0.100000 0.000000
0.287500 0.112500 0.000000
0.287500 0.125000 0.000000
0.287500 0.137500 0.000000
0.287500 0.150000 0.000000
0.287500 0.162500 0.000000
0.287500 0.175000 0.000000
0.287500 0.187500 0.000000
0.287500 0.200000 0.000000
0.287500 0.212500 0.000000
0.287500 0.225000 0.000000
0.287500 0.237500 0.000000
0.287500 0.250000 0.000000
0.287500 0.262500 0.000000
0.287500 0.275000 0.000000
0.287500 0.287500 0.000000
0.287500 0.300000 0.000000
0.287500 0.312500 0.000000
0.287500 0.325000 0.000000
0.287500 0.337500 0.000000
0.287500 0.350000 0.000000
0.287500 0.362500 0.000000
0.287500 0.375000 0.000000
0.287500 0.387500 0.000000
2.387500 0.400000 0.000000
2.387500 0.412500 0.000000
2.387500 0.425000 0.000000
2.387500 0.437500 0.000000
2.387500 0.450000 0.000000
2.387500 0.462500 0.000000
2.387500 0.475000 0.000000
2.387500 0.487500 0.000000
0.325000 0.000000 0.000000
0.325000 0.012500 0.000000
0.325000 0.025000 0.000000
0.325000 0.037500 0.000000
0.325000 0.050000 0.000000
0.325000 0.062500 0.000000
0.325000 0.075000 0.000000
0.325000 0.087500 0.000000
0.325000 0.100000 0.000000
0.325000 0.112500 0.000000
0.325000 0.125000 0.000000
0.325000 0.137500 0.000000
0.325000 0.150000 0.000000
0.325000 0.162500 0.000000
0.325000 0.175000 0.000000
0.325000 0.187500 0.000000
0.325000 0.200000 0.000000
0.325000 0.212500 0.000000
0.325000 0.225000 0.000000
0.325000 0.237500 0.000000
0.325000 0.250000 0.000000
0.325000 0.262500 0.000000
0.325000 0.275000 0.000000
[...]
<PointData>
<DataArray NumberOfComponents='1' type='Int32' Name='ParticleType' format='ascii'>
5
5
5
5
5
5
5
5
5
5
5
5
5
5
5
5
2
2
2
2
2
2
2
2
2
2
2
2
2
2
2
2
2
2
2
2
2
2
2
2
1
1
0
0
0
0
0
0
5
5
5
5
5
5
5
5
2
2
2
2
2
2
2
2
2
2
2
2
2
2
2
2
2
2
2
2
2
2
2
1
1
0
0
0
0
0
0
0
5
5
5
5
5
5
5
5
2
2
2
2
2
2
2
2
2
2
2
2
2
2
2
2
2
2
2
2
2
2
2
1
1
0
0
0
0
0
0
0
5
5
5
5
5
5
5
5
2
2
2
2
2
2
2
2
2
2
2
2
2
2
2
2
2
2
2
2
2
2
2
1
1
0
0
0
0
0
0
0
5
5
5
5
5
5
5
5
2
2
2
2
2
2
2
2
2
2
2
2
2
2
2
2
2
2
2
2
2
2
1
1
0
0
0
0
0
0
0
0
5
5
5
5
5
5
5
5
2
2
2
2
2
2
2
2
2
2
2
2
2
2
2
2
2
2
2
2
2
2
1
1
0
0
0
0
0
0
0
0
5
5
5
5
5
5
5
5
2
2
2
2
2
2
2
2
2
2
2
2
2
2
2
2
2
2
2
2
2
2
1
1
0
0
0
0
0
0
0
0
5
5
5
5
5
5
5
5
2
2
2
2
2
2
2
2
2
2
2
2
2
2
2
2
2
2
2
2
2
2
1
1
0
0
0
0
0
0
0
0
5
5
5
5
5
5
5
5
2
2
2
2
2
2
2
2
2
2
2
2
2
2
2
2
2
2
2
2
2
2
1
1
0
0
0
0
0
0
0
0
5
5
5
5
5
5
5
5
2
2
2
2
2
2
2
2
2
2
2
2
2
2
2
2
2
2
2
2
2
2
1
1
0
0
0
0
0
0
0
0
5
5
5
5
5
5
5
5
2
2
2
2
2
2
2
2
2
2
2
2
2
2
2
2
2
2
2
2
2
2
1
1
0
0
0
0
0
0
0
0
5
5
5
5
5
5
5
5
2
2
2
2
2
2
2
2
2
2
2
2
2
2
2
2
2
2
2
2
2
2
1
1
0
0
0
0
0
0
0
0
5
5
5
5
5
5
5
5
2
2
2
2
2
2
2
2
2
2
2
2
2
2
2
2
2
2
2
2
2
2
1
0
0
0
0
0
0
0
0
0
5
5
5
5
5
5
5
5
2
2
2
2
2
2
2
2
2
2
2
2
2
2
2
2
2
2
2
2
2
2
1
0
0
0
0
0
0
0
0
0
2
2
2
2
2
2
2
2
2
2
2
2
2
2
2
2
2
2
2
2
2
2
1
0
0
0
0
0
0
0
0
0
2
2
2
2
2
2
2
2
2
2
2
2
2
2
2
2
2
2
2
2
2
2
1
1
0
0
0
0
0
0
0
0
2
2
2
2
2
2
2
2
2
2
2
2
2
2
2
2
2
2
2
2
2
2
1
1
0
0
0
0
0
0
0
0
2
2
2
2
2
2
2
2
2
2
2
2
2
2
2
2
2
2
2
2
2
2
1
1
0
0
0
0
0
0
0
0
2
2
2
2
2
2
2
2
2
2
2
2
2
2
2
2
2
2
2
2
2
2
1
1
0
0
0
0
0
0
0
0
2
2
2
2
2
2
2
2
2
2
2
2
2
2
2
2
2
2
2
2
2
2
1
1
0
0
0
0
0
0
0
0
2
2
2
2
2
2
2
2
2
2
2
2
2
2
2
2
2
2
2
2
2
2
1
1
0
0
0
0
0
0
0
0
2
2
2
2
2
2
2
2
2
2
2
2
2
2
2
2
2
2
2
2
2
2
1
1
0
0
0
0
0
0
0
0
2
2
2
2
2
2
2
2
2
2
2
2
2
2
2
2
2
2
2
2
2
2
1
1
0
0
0
0
0
0
0
0
2
2
2
2
2
2
2
2
2
2
2
2
2
2
2
2
2
2
2
2
2
2
1
1
0
0
0
0
0
0
0
0
2
2
2
2
2
2
2
2
2
2
2
2
2
2
2
2
2
2
2
2
2
2
1
1
0
0
0
0
0
0
0
0
2
2
2
2
2
2
2
2
2
2
2
2
2
2
2
2
2
2
2
2
2
2
1
1
0
0
0
0
0
0
0
0
2
2
2
2
2
2
2
2
2
2
2
2
2
2
2
2
2
2
2
2
2
2
2
1
0
0
0
0
0
0
0
0
2
2
2
2
2
2
2
2
2
2
2
2
2
2
2
2
2
2
2
2
2
2
2
1
1
0
0
0
0
0
0
0
2
2
2
2
2
2
2
2
2
2
2
2
2
2
2
2
2
2
2
2
2
2
2
1
1
0
0
0
0
0
0
0
2
2
2
2
2
2
2
2
2
2
2
2
2
2
2
2
2
2
2
2
2
2
2
1
1
0
0
0
0
0
0
0
2
2
2
2
2
2
2
2
2
2
2
2
2
2
2
2
2
2
2
2
2
2
2
1
1
0
0
0
0
0
0
0
2
2
2
2
2
2
2
2
2
2
2
2
2
2
2
2
2
2
2
2
2
2
2
1
1
0
0
0
0
0
0
0
2
2
2
2
2
2
2
2
2
2
2
2
2
2
2
2
2
2
2
2
2
2
2
1
1
0
0
0
0
0
0
0
2
2
2
2
2
2
2
2
2
2
2
2
2
2
2
2
2
2
2
2
2
2
2
1
1
0
0
0
0
0
0
0
2
2
2
2
2
2
2
2
2
2
2
2
2
2
2
2
2
2
2
2
2
2
2
1
1
0
0
0
0
0
0
0
2
2
2
2
2
2
2
2
2
2
2
2
2
2
2
2
2
2
2
2
2
2
2
1
1
0
0
0
0
0
0
0
2
2
2
2
2
2
2
2
2
2
2
2
2
2
2
2
2
2
2
2
2
2
2
2
1
0
0
0
0
0
0
0
2
2
2
2
2
2
2
2
2
2
2
2
2
2
2
2
2
2
2
2
2
2
2
2
1
0
0
0
0
0
0
0
2
2
2
2
2
2
2
2
2
2
2
2
2
2
2
2
2
2
2
2
2
2
2
2
1
1
0
0
0
0
0
0
2
2
2
2
2
2
2
2
2
2
2
2
2
2
2
2
2
2
2
2
2
2
2
2
1
1
0
0
0
0
0
0
2
2
2
2
2
2
2
2
2
2
2
2
2
2
2
2
2
2
2
2
2
2
2
2
1
0
0
0
0
0
0
0
2
2
2
2
2
2
2
2
2
2
2
2
2
2
2
2
2
2
2
2
2
2
2
2
1
1
0
0
0
0
0
0
2
2
2
2
2
2
2
2
2
2
2
2
2
2
2
2
2
2
2
2
2
2
2
2
1
1
0
0
0
0
0
0
2
2
2
2
2
2
2
2
2
2
2
2
2
2
2
2
2
2
2
2
2
2
2
2
1
1
0
0
0
0
0
0
2
2
2
2
2
2
2
2
2
2
2
2
2
2
2
2
2
2
2
2
2
2
2
2
1
1
0
0
0
0
0
0
2
2
2
2
2
2
2
2
2
2
2
2
2
2
2
2
2
2
2
2
2
2
2
2
1
1
0
0
0
0
0
0
2
2
2
2
2
2
2
2
2
2
2
2
2
2
2
2
2
2
2
2
2
2
2
2
1
1
0
0
0
0
0
0
2
2
2
2
2
2
2
2
2
2
2
2
2
2
2
2
2
2
2
2
2
2
2
2
1
1
0
0
0
0
0
0
2
2
2
2
2
2
2
2
2
2
2
2
2
2
2
2
2
2
2
2
2
2
2
2
1
1
0
0
0
0
0
0
2
2
2
2
2
2
2
2
2
2
2
2
2
2
2
2
2
2
2
2
2
2
2
2
2
1
1
0
0
0
0
0
2
2
2
2
2
2
2
2
2
2
2
2
2
2
2
2
2
2
2
2
2
2
2
2
2
1
1
0
0
0
0
0
2
2
2
2
2
2
2
2
2
2
2
2
2
2
2
2
2
2
2
2
2
2
2
2
2
1
1
0
0
0
0
0
2
2
2
2
2
2
2
2
2
2
2
2
2
2
2
2
2
2
2
2
2
2
2
2
2
1
1
0
0
0
0
0
</DataArray>
<DataArray NumberOfComponents='1' type='Float32' Name='Temperature' format='ascii'>
-3.000000
-3.000000
-3.000000
-3.000000
-3.000000
-3.000000
-3.000000
-3.000000
-3.000000
-3.000000
-3.000000
-3.000000
-3.000000
-3.000000
-3.000000
-3.000000
-4.856223
-4.845491
-4.828176
-4.801477
-4.764760
-4.717073
-4.657251
-4.583951
-4.495678
-4.390815
-4.267665
-4.124483
-3.959532
-3.771122
-3.557676
-3.317795
-3.050349
-2.754593
-2.430307
-2.077962
-1.698943
-1.295443
-0.873252
-0.424011
-0.005685
0.003166
11.360380
24.270571
39.381276
54.505201
66.837676
76.063170
-3.000000
-3.000000
-3.000000
-3.000000
-3.000000
-3.000000
-3.000000
-3.000000
-4.851090
-4.839920
-4.821892
-4.794080
-4.755812
-4.706070
-4.643617
-4.567018
-4.474680
-4.364885
-4.235842
-4.085745
-3.912838
-3.715480
-3.492208
-3.241761
-2.963041
-2.654929
-2.315917
-1.943547
-1.534052
-1.082341
-0.592020
-0.006811
-0.000016
5.764757
21.640700
40.436986
61.759424
82.866335
100.115741
113.077678
-3.000000
-3.000000
-3.000000
-3.000000
-3.000000
-3.000000
-3.000000
-3.000000
-4.848101
-4.836680
-4.818247
-4.789807
-4.750669
-4.699791
-4.635903
-4.557538
-4.463062
-4.350717
-4.218665
-4.065036
-3.887977
-3.685692
-3.456464
-3.198655
-2.910697
-2.591104
-2.238568
-1.852256
-1.432137
-0.981502
-0.495977
-0.004767
-0.000910
10.751583
29.656707
53.626482
81.099217
108.523745
131.033316
148.006464
-3.000000
-3.000000
-3.000000
-3.000000
-3.000000
-3.000000
-3.000000
-3.000000
-4.844446
-4.832647
-4.813594
-4.784184
-4.743682
-4.690986
-4.624746
-4.543394
-4.445174
-4.328181
-4.190401
-4.029772
-3.844249
-3.631888
-3.390943
-3.119981
-2.818016
-2.484650
-2.120225
-1.726045
-1.303885
-0.862094
-0.371722
-0.006858
0.008273
19.794594
42.024517
70.555639
103.251514
136.185407
163.385159
184.011599
-3.000000
-3.000000
-3.000000
-3.000000
-3.000000
-3.000000
-3.000000
-3.000000
-4.842067
-4.830010
-4.810529
-4.780439
-4.738965
-4.684947
-4.616964
-4.533367
-4.432313
-4.311813
-4.169784
-4.004130
-3.812815
-3.593953
-3.345870
-3.067109
-2.756297
-2.411761
-2.030847
-1.609241
-1.140481
-0.626322
-0.006934
-0.003560
6.453170
26.652135
52.427338
85.298241
123.092580
161.428292
193.261083
217.513527
-3.000000
-3.000000
-3.000000
-3.000000
-3.000000
-3.000000
-3.000000
-3.000000
-4.841315
-4.829211
-4.809655
-4.779448
-4.737812
-4.683581
-4.615324
-4.531382
-4.429899
-4.308868
-4.166193
-3.999762
-3.807536
-3.587650
-3.338512
-3.058879
-2.747833
-2.404531
-2.027481
-1.613263
-1.153599
-0.647457
-0.006516
-0.001633
5.638285
29.881147
59.464395
97.307626
140.961936
185.371717
222.320347
250.520872
-3.000000
-3.000000
-3.000000
-3.000000
-3.000000
-3.000000
-3.000000
-3.000000
-4.840051
-4.827835
-4.808100
-4.777622
-4.735618
-4.680920
-4.612097
-4.527487
-4.425238
-4.303347
-4.159724
-3.992260
-3.798908
-3.577765
-3.327135
-3.045528
-2.731547
-2.383564
-1.999222
-1.575029
-1.106889
-0.594831
-0.005493
-0.002868
8.042384
34.026712
67.228143
109.732056
158.773619
208.696287
250.291529
282.107842
-3.000000
-3.000000
-3.000000
-3.000000
-3.000000
-3.000000
-3.000000
-3.000000
-4.838763
-4.826420
-4.806481
-4.775686
-4.733249
-4.677990
-4.608468
-4.523011
-4.419751
-4.296669
-4.151644
-3.982511
-3.787115
-3.563352
-3.309188
-3.022637
-2.701728
-2.344507
-1.949240
-1.514715
-1.043309
-0.527723
-0.009406
-0.001313
12.404645
38.949738
75.340893
122.253042
176.612121
232.085315
278.412329
313.944260
-3.000000
-3.000000
-3.000000
-3.000000
-3.000000
-3.000000
-3.000000
-3.000000
-4.837838
-4.825382
-4.805256
-4.774163
-4.731297
-4.675447
-4.605124
-4.518590
-4.413878
-4.288823
-4.141100
-3.968264
-3.767813
-3.537260
-3.274248
-2.976706
-2.643059
-2.272499
-1.865357
-1.422829
-0.952541
-0.429145
-0.004148
0.003339
19.459328
45.707877
84.042539
134.299328
193.293897
253.906404
304.737549
343.864683
-3.000000
-3.000000
-3.000000
-3.000000
-3.000000
-3.000000
-3.000000
-3.000000
-4.836939
-4.824360
-4.804031
-4.772622
-4.729314
-4.672885
-4.601837
-4.514435
-4.408730
-4.282602
-4.133801
-3.959995
-3.758821
-3.527947
-3.265156
-2.968461
-2.636275
-2.267652
-1.862659
-1.422119
-0.953298
-0.429824
-0.006696
0.002763
19.792996
49.377350
91.403617
146.043744
210.057152
275.983393
331.440492
374.279316
-3.000000
-3.000000
-3.000000
-3.000000
-3.000000
-3.000000
-3.000000
-3.000000
-4.835995
-4.823281
-4.802730
-4.770968
-4.727157
-4.670047
-4.598105
-4.509553
-4.402391
-4.274441
-4.123392
-3.946857
-3.742439
-3.507817
-3.240860
-2.939775
-2.603294
-2.230900
-1.823157
-1.381176
-0.913719
-0.384923
-0.003413
0.007952
23.334360
54.654656
99.253446
157.400858
225.890284
296.771002
356.628959
403.045938
-3.000000
-3.000000
-3.000000
-3.000000
-3.000000
-3.000000
-3.000000
-3.000000
-4.835372
-4.822614
-4.801990
-4.770112
-4.726132
-4.668786
-4.596516
-4.507508
-4.399714
-4.270895
-4.118667
-3.940568
-3.734142
-3.497048
-3.227193
-2.922913
-2.583164
-2.207738
-1.797563
-1.353965
-0.886931
-0.353129
-0.003822
0.007502
26.165028
58.677836
105.539354
167.272198
240.607689
316.923647
381.611127
431.947340
-3.000000
-3.000000
-3.000000
-3.000000
-3.000000
-3.000000
-3.000000
-3.000000
-4.831501
-4.818506
-4.797511
-4.765083
-4.720388
-4.662177
-4.588917
-4.498826
-4.389899
-4.259949
-4.106656
-3.927629
-3.720487
-3.482960
-3.213018
-2.909034
-2.569969
-2.195572
-1.786668
-1.344341
-0.878356
-0.337869
-0.007099
0.530165
27.207210
61.863402
111.801252
177.393456
255.220887
336.316843
405.225136
459.036047
-3.000000
-3.000000
-3.000000
-3.000000
-3.000000
-3.000000
-3.000000
-3.000000
-4.828395
-4.815250
-4.794013
-4.761210
-4.715998
-4.657106
-4.582972
-4.491775
-4.381459
-4.249780
-4.094365
-3.912781
-3.702639
-3.461710
-3.188066
-2.880222
-2.537212
-2.158417
-1.742752
-1.284257
-0.781718
-0.063606
-0.004762
3.909695
31.131150
67.088491
119.025120
187.592195
269.351772
354.816880
427.613792
484.627237
-4.836430
-4.823678
-4.803066
-4.771215
-4.727286
-4.670026
-4.597893
-4.509086
-4.401572
-4.273121
-4.121353
-3.943800
-3.737978
-3.501492
-3.232165
-2.928202
-2.588384
-2.212276
-1.800515
-1.353877
-0.881421
-0.321622
-0.001929
0.966477
28.035560
63.906549
116.225316
185.761950
269.113453
356.760859
431.819868
490.957899
-4.851315
-4.839290
-4.819830
-4.789713
-4.748094
-4.693718
-4.625042
-4.540266
-4.437356
-4.314082
-4.168057
-3.996783
-3.797707
-3.568285
-3.306062
-3.008790
-2.674605
-2.302264
-1.891531
-1.442844
-0.963972
-0.422384
-0.006885
0.007797
22.438978
57.678595
109.726781
179.916810
264.916242
355.120008
432.924978
494.668123
-4.859011
-4.847232
-4.828150
-4.798577
-4.757638
-4.704039
-4.636182
-4.552190
-4.449931
-4.327050
-4.181002
-4.009112
-3.808634
-3.576853
-3.311203
-3.009450
-2.669907
-2.291709
-1.875185
-1.421283
-0.939462
-0.389334
-0.006270
0.007554
25.536364
60.280206
112.123406
182.426152
268.194952
359.862148
439.433984
503.041153
-4.872011
-4.860863
-4.842771
-4.814673
-4.775664
-4.724414
-4.659273
-4.578292
-4.479239
-4.359629
-4.216759
-4.047760
-3.849672
-3.619549
-3.354602
-3.052404
-2.711143
-2.329919
-1.909147
-1.450038
-0.962025
-0.408058
-0.006899
0.005982
24.459057
57.447660
107.817391
177.680847
264.479376
358.509279
440.907744
507.359899
-4.879196
-4.868353
-4.850740
-4.823362
-4.785311
-4.735258
-4.671559
-4.592278
-4.495206
-4.377888
-4.237661
-4.071698
-3.877056
-3.650757
-3.389883
-3.091738
-2.754067
-2.375372
-1.955365
-1.494706
-1.001522
-0.445104
-0.007841
0.007391
22.211669
55.996344
107.395716
178.490308
266.781010
362.774942
447.327159
516.010605
-4.891257
-4.881080
-4.864519
-4.838716
-4.802746
-4.755259
-4.694576
-4.618706
-4.525362
-4.411978
-4.275744
-4.113642
-3.922500
-3.699062
-3.440108
-3.142622
-2.804054
-2.422675
-1.998084
-1.531051
-1.029629
-0.466538
-0.007418
0.003979
21.225846
53.018658
102.753754
173.313591
262.684873
361.257353
448.953007
520.877189
-4.897745
-4.887863
-4.871767
-4.846661
-4.811614
-4.765275
-4.705968
-4.631707
-4.540221
-4.428981
-4.295232
-4.136041
-3.948337
-3.728960
-3.474713
-3.182444
-2.849199
-2.472496
-2.050841
-1.583908
-1.077658
-0.512535
-0.008459
0.005785
18.396018
51.432903
102.301434
174.075024
264.894974
365.487463
455.516714
529.983633
-4.908768
-4.899567
-4.884549
-4.861066
-4.828177
-4.784520
-4.728395
-4.657777
-4.570326
-4.463413
-4.334146
-4.179400
-3.995862
-3.780069
-3.528465
-3.237500
-2.903808
-2.524541
-2.097960
-1.623743
-1.107850
-0.533642
-0.007993
0.001886
17.674989
48.383205
97.348853
168.458270
260.391942
363.784923
457.306263
535.477813
-4.914581
-4.905666
-4.891097
-4.868286
-4.836286
-4.793730
-4.738915
-4.669811
-4.584083
-4.479119
-4.352064
-4.199881
-4.019400
-3.807382
-3.560543
-3.275564
-2.949060
-2.577604
-2.157996
-1.687742
-1.168763
-0.593169
-0.008952
0.004201
14.068221
46.712261
96.907147
169.179853
262.487240
367.946392
464.003743
545.098312
-4.924533
-4.916304
-4.902829
-4.881672
-4.851885
-4.812103
-4.760612
-4.695358
-4.613955
-4.513706
-4.391633
-4.244519
-4.068956
-3.861388
-3.618137
-3.335399
-3.009235
-2.635642
-2.210934
-1.732396
-1.201981
-0.613893
-0.008450
-0.000175
13.734581
43.583727
91.610942
163.078807
257.527802
366.022751
465.960439
551.310272
-4.929703
-4.921751
-4.908708
-4.888200
-4.859269
-4.820545
-4.770309
-4.706497
-4.626719
-4.528270
-4.408176
-4.263247
-4.090155
-3.885532
-3.646078
-3.368635
-3.050152
-2.687433
-2.276545
-1.812154
-1.287468
-0.701610
-0.009285
0.002760
9.073418
41.919287
91.234568
163.767968
259.479185
370.073403
472.774985
561.515623
-4.938568
-4.931302
-4.919355
-4.900512
-4.873827
-4.837942
-4.791143
-4.731361
-4.656172
-4.562810
-4.448192
-4.308969
-4.141588
-3.942388
-3.707680
-3.433809
-3.117069
-2.753410
-2.337874
-1.864173
-1.325325
-0.721643
-0.008799
-0.002064
9.298355
38.688851
85.554548
157.136340
254.009088
367.884959
474.897429
568.551762
-4.943192
-4.936199
-4.924680
-4.906478
-4.880637
-4.845795
-4.800230
-4.741866
-4.668271
-4.576672
-4.463983
-4.326848
-4.161712
-3.964924
-3.732879
-3.462198
-3.149958
-2.793947
-2.392869
-1.946425
-1.452799
-0.918360
-0.208093
0.001685
2.823231
37.152806
85.304602
157.799666
255.785412
371.774829
481.805432
579.429156
-4.951444
-4.945177
-4.934825
-4.918408
-4.894996
-4.863262
-4.821521
-4.767729
-4.699480
-4.614008
-4.508211
-4.378682
-4.221764
-4.033622
-3.810358
-3.548157
-3.243505
-2.893467
-2.496042
-2.050676
-1.557634
-1.027778
-0.410373
-0.001454
0.009328
31.098931
78.095497
150.263901
249.786714
369.358854
484.146940
587.449621
-4.957110
-4.951315
-4.941717
-4.926449
-4.904586
-4.874815
-4.835456
-4.784460
-4.719397
-4.637455
-4.535446
-4.409838
-4.256795
-4.072252
-3.852026
-3.591985
-3.288286
-2.937703
-2.538032
-2.088659
-1.590003
-1.053082
-0.429235
-0.005669
0.005866
30.597441
75.828469
147.189258
247.488514
369.972528
489.082257
598.007191
-4.960284
-4.954687
-4.945398
-4.930588
-4.909323
-4.880276
-4.841755
-4.791694
-4.727644
-4.646777
-4.545892
-4.421450
-4.269614
-4.086321
-3.867385
-3.608645
-3.306185
-2.956634
-2.557561
-2.108053
-1.608240
-1.068587
-0.442376
-0.004885
0.006377
29.947007
75.724073
147.571020
248.732637
373.423409
496.069831
610.161486
-4.966355
-4.961388
-4.953117
-4.939881
-4.920784
-4.894552
-4.859552
-4.813775
-4.754827
-4.679917
-4.585872
-4.469157
-4.325909
-4.151992
-3.943063
-3.694650
-3.402287
-3.061710
-2.669217
-2.222302
-1.719826
-1.168820
-0.540941
-0.007746
0.002384
23.335588
67.451735
138.671919
241.413651
370.187244
498.488216
619.853689
-4.969505
-4.964780
-4.956889
-4.944219
-4.925862
-4.900531
-4.866566
-4.821927
-4.764169
-4.690440
-4.597489
-4.481682
-4.339049
-4.165329
-3.956053
-3.706636
-3.412532
-3.069466
-2.673819
-2.223273
-1.716877
-1.162356
-0.527872
-0.005397
0.007597
24.752301
69.013977
140.009464
242.850135
373.469242
505.490936
632.986360
-4.974620
-4.970492
-4.963575
-4.952420
-4.936169
-4.913600
-4.883131
-4.842792
-4.790210
-4.722585
-4.636699
-4.528931
-4.395298
-4.231518
-4.033083
-3.795331
-3.513487
-3.182688
-2.798041
-2.354940
-1.849578
-1.283619
-0.644958
-0.004731
-0.000287
17.280458
60.287579
130.513391
234.853724
369.750894
507.990679
644.073890
-4.977279
-4.973387
-4.966840
-4.956239
-4.940718
-4.919043
-4.889610
-4.850419
-4.799047
-4.732632
-4.647873
-4.541051
-4.408064
-4.244497
-4.045689
-3.806809
-3.522919
-3.189047
-2.800345
-2.352540
-1.842441
-1.273187
-0.628751
-0.005986
0.005782
18.938977
61.996681
131.788332
235.887631
372.531307
514.857080
658.377189
-4.981424
-4.978080
-4.972433
-4.963244
-4.949706
-4.930668
-4.904617
-4.869651
-4.823440
-4.763201
-4.685683
-4.587177
-4.463548
-4.310310
-4.122735
-3.895999
-3.625328
-3.306081
-2.933595
-2.502612
-2.006371
-1.435716
-0.788087
-0.005069
-0.002790
10.381929
52.901357
121.696660
227.144988
368.223572
517.359820
671.106378
-4.983618
-4.980498
-4.975207
-4.966554
-4.953729
-4.935571
-4.910552
-4.876740
-4.831758
-4.772756
-4.696397
-4.598864
-4.475900
-4.322886
-4.134951
-3.907113
-3.634390
-3.311830
-2.934322
-2.496196
-1.990899
-1.412408
-0.757183
-0.006404
0.004070
12.377943
54.804436
122.939789
227.718367
370.366910
523.963938
686.816094
-4.986874
-4.984244
-4.979762
-4.972392
-4.961394
-4.945699
-4.923891
-4.894159
-4.854251
-4.801434
-4.732462
-4.643567
-4.530472
-4.388446
-4.212399
-3.997045
-3.737127
-3.427733
-3.064674
-2.644915
-2.167066
-1.629544
-1.043387
-0.279265
-0.004728
2.409927
45.490805
112.258648
218.147675
365.335027
526.345939
701.488681
-4.988637
-4.986218
-4.982072
-4.975215
-4.964904
-4.950071
-4.929288
-4.900719
-4.862068
-4.810533
-4.742774
-4.654900
-4.542489
-4.400651
-4.224141
-4.007543
-3.745525
-3.433160
-3.066280
-2.641670
-2.156732
-1.604713
-0.987408
-0.083873
0.002666
4.836566
47.626994
113.512793
218.199875
366.675591
532.508503
718.903637
-4.991101
-4.989105
-4.985666
-4.979943
-4.971269
-4.958681
-4.940878
-4.916168
-4.882408
-4.836955
-4.776611
-4.697598
-4.595552
-4.465549
-4.302175
-4.099649
-3.852020
-3.553456
-3.198650
-2.783356
-2.305158
-1.762919
-1.168903
-0.460131
-0.005961
0.008243
38.043957
102.181153
207.707216
360.758140
534.584848
735.895747
-4.992472
-4.990669
-4.987542
-4.982298
-4.974279
-4.962525
-4.945732
-4.922191
-4.889722
-4.845613
-4.786568
-4.708672
-4.607387
-4.477585
-4.313638
-4.109565
-3.859273
-3.556895
-3.197243
-2.776366
-2.292315
-1.744386
-1.146254
-0.428671
0.001866
0.008994
40.658739
103.560853
207.180316
361.095326
540.051645
755.397655
-4.994253
-4.992801
-4.990267
-4.985987
-4.979383
-4.969608
-4.955496
-4.935498
-4.907614
-4.869319
-4.817502
-4.748413
-4.657641
-4.540123
-4.390189
-4.201656
-3.967964
-3.682380
-3.338235
-2.929143
-2.448884
-1.888453
-1.243673
-0.362472
-0.007141
3.895126
30.261423
91.543474
195.790989
354.157272
541.573731
775.195303
-4.995249
-4.993959
-4.991689
-4.987818
-4.981778
-4.972727
-4.959496
-4.940517
-4.913745
-4.876578
-4.825786
-4.757456
-4.666965
-4.548993
-4.397582
-4.206264
-3.968258
-3.676782
-3.325497
-2.909137
-2.424413
-1.869906
-1.256461
-0.534533
-0.002908
0.005897
33.710985
93.234425
194.668335
353.275771
545.997509
797.281875
-4.996295
-4.995221
-4.993316
-4.990035
-4.984856
-4.976999
-4.965364
-4.948457
-4.924305
-4.890357
-4.843406
-4.779514
-4.693964
-4.581258
-4.435167
-4.248841
-4.015030
-3.726418
-3.376130
-2.958447
-2.469820
-1.908958
-1.286667
-0.558426
0.000987
0.004350
32.303697
88.853077
188.244015
348.623852
548.490387
821.532430
-4.997184
-4.996313
-4.994752
-4.992037
-4.987700
-4.981031
-4.971019
-4.956273
-4.934922
-4.904525
-4.861967
-4.803386
-4.724114
-4.618669
-4.480799
-4.303581
-4.079588
-3.801136
-3.460655
-3.051265
-2.567746
-2.007142
-1.376771
-0.646589
-0.008293
0.003022
26.908190
82.591186
180.494796
342.643578
549.380241
845.757981
-4.997911
-4.997219
-4.995966
-4.993764
-4.990197
-4.984633
-4.976154
-4.963475
-4.944842
-4.917926
-4.879706
-4.826373
-4.753251
-4.654764
-4.524456
-4.355067
-4.138686
-3.866970
-3.531500
-3.124352
-2.639125
-2.071859
-1.428450
-0.685792
0.001453
0.001094
24.830672
77.525341
172.863170
336.189892
550.040320
873.968261
-4.998479
-4.997939
-4.996952
-4.995194
-4.992306
-4.987731
-4.980646
-4.969880
-4.953809
-4.930233
-4.896255
-4.848165
-4.781346
-4.690237
-4.568363
-4.408441
-4.202564
-3.942418
-3.619479
-3.225193
-2.751326
-2.190672
-1.542028
-0.795941
-0.008990
-0.000061
18.680815
71.203273
164.324877
328.517146
548.847171
902.418518
-4.998923
-4.998513
-4.997753
-4.996383
-4.994095
-4.990408
-4.984599
-4.975618