<?xml version='1.0' encoding='UTF-8'?>
<VTKFile xmlns='VTK' byte_order='LittleEndian' version='0.1' type='UnstructuredGrid'>
<UnstructuredGrid>
<Piece NumberOfCells='1816' NumberOfPoints='1816'>
<Points>
<DataArray NumberOfComponents='3' type='Float32' Name='Position' format='ascii'>
1.830000 0.400000 0.000000
1.830000 0.412500 0.000000
1.830000 0.425000 0.000000
1.830000 0.437500 0.000000
1.830000 0.450000 0.000000
1.830000 0.462500 0.000000
1.830000 0.475000 0.000000
1.830000 0.487500 0.000000
1.867500 0.400000 0.000000
1.867500 0.412500 0.000000
1.867500 0.425000 0.000000
1.867500 0.437500 0.000000
1.867500 0.450000 0.000000
1.867500 0.462500 0.000000
1.867500 0.475000 0.000000
1.867500 0.487500 0.000000
0.025000 0.000000 0.000000
0.025000 0.012500 0.000000
0.025000 0.025000 0.000000
0.025000 0.037500 0.000000
0.025000 0.050000 0.000000
0.025000 0.062500 0.000000
0.025000 0.075000 0.000000
0.025000 0.087500 0.000000
0.025000 0.100000 0.000000
0.025000 0.112500 0.000000
0.025000 0.125000 0.000000
0.025000 0.137500 0.000000
0.025000 0.150000 0.000000
0.025000 0.162500 0.000000
0.025000 0.175000 0.000000
0.025000 0.187500 0.000000
0.025000 0.200000 0.000000
0.025000 0.212500 0.000000
0.025000 0.225000 0.000000
0.025000 0.237500 0.000000
0.025000 0.250000 0.000000
0.025000 0.262500 0.000000
0.025000 0.275000 0.000000
0.025000 0.287500 0.000000
0.025000 0.300000 0.000000
0.025000 0.312500 0.000000
0.025000 0.325000 0.000000
0.025000 0.337500 0.000000
0.025000 0.350000 0.000000
0.025000 0.362500 0.000000
0.025000 0.375000 0.000000
0.025000 0.387500 0.000000
1.905000 0.400000 0.000000
1.905000 0.412500 0.000000
1.905000 0.425000 0.000000
1.905000 0.437500 0.000000
1.905000 0.450000 0.000000
1.905000 0.462500 0.000000
1.905000 0.475000 0.000000
1.905000 0.487500 0.000000
0.062500 0.000000 0.000000
0.062500 0.012500 0.000000
0.062500 0.025000 0.000000
0.062500 0.037500 0.000000
0.062500 0.050000 0.000000
0.062500 0.062500 0.000000
0.062500 0.075000 0.000000
0.062500 0.087500 0.000000
0.062500 0.100000 0.000000
0.062500 0.112500 0.000000
0.062500 0.125000 0.000000
0.062500 0.137500 0.000000
0.062500 0.150000 0.000000
0.062500 0.162500 0.000000
0.062500 0.175000 0.000000
0.062500 0.187500 0.000000
0.062500 0.200000 0.000000
0.062500 0.212500 0.000000
0.062500 0.225000 0.000000
0.062500 0.237500 0.000000
0.062500 0.250000 0.000000
0.062500 0.262500 0.000000
0.062500 0.275000 0.000000
0.062500 0.287500 0.000000
0.062500 0.300000 0.000000
0.062500 0.312500 0.000000
0.062500 0.325000 0.000000
0.062500 0.337500 0.000000
0.062500 0.350000 0.000000
0.062500 0.362500 0.000000
0.062500 0.375000 0.000000
0.062500 0.387500 0.000000
1.942500 0.400000 0.000000
1.942500 0.412500 0.000000
1.942500 0.425000 0.000000
1.942500 0.437500 0.000000
1.942500 0.450000 0.000000
1.942500 0.462500 0.000000
1.942500 0.475000 0.000000
1.942500 0.487500 0.000000
0.100000 0.000000 0.000000
0.100000 0.012500 0.000000
0.100000 0.025000 0.000000
0.100000 0.037500 0.000000
0.100000 0.050000 0.000000
0.100000 0.062500 0.000000
0.100000 0.075000 0.000000
0.100000 0.087500 0.000000
0.100000 0.100000 0.000000
0.100000 0.112500 0.000000
0.100000 0.125000 0.000000
0.100000 0.137500 0.000000
0.100000 0.150000 0.000000
0.100000 0.162500 0.000000
0.100000 0.175000 0.000000
0.100000 0.187500 0.000000
0.100000 0.200000 0.000000
0.100000 0.212500 0.000000
0.100000 0.225000 0.000000
0.100000 0.237500 0.000000
0.100000 0.250000 0.000000
0.100000 0.262500 0.000000
0.100000 0.275000 0.000000
0.100000 0.287500 0.000000
0.100000 0.300000 0.000000
0.100000 0.312500 0.000000
0.100000 0.325000 0.000000
0.100000 0.337500 0.000000
0.100000 0.350000 0.000000
0.100000 0.362500 0.000000
0.100000 0.375000 0.000000
0.100000 0.387500 0.000000
1.980000 0.400000 0.000000
1.980000 0.412500 0.000000
1.980000 0.425000 0.000000
1.980000 0.437500 0.000000
1.980000 0.450000 0.000000
1.980000 0.462500 0.000000
1.980000 0.475000 0.000000
1.980000 0.487500 0.000000
0.137500 0.000000 0.000000
0.137500 0.012500 0.000000
0.137500 0.025000 0.000000
0.137500 0.037500 0.000000
0.137500 0.050000 0.000000
0.137500 0.062500 0.000000
0.137500 0.075000 0.000000
0.137500 0.087500 0.000000
0.137500 0.100000 0.000000
0.137500 0.112500 0.000000
0.137500 0.125000 0.000000
0.137500 0.137500 0.000000
0.137500 0.150000 0.000000
0.137500 0.162500 0.000000
0.137500 0.175000 0.000000
0.137500 0.187500 0.000000
0.137500 0.200000 0.000000
0.137500 0.212500 0.000000
0.137500 0.225000 0.000000
0.137500 0.237500 0.000000
0.137500 0.250000 0.000000
0.137500 0.262500 0.000000
0.137500 0.275000 0.000000
0.137500 0.287500 0.000000
0.137500 0.300000 0.000000
0.137500 0.312500 0.000000
0.137500 0.325000 0.000000
0.137500 0.337500 0.000000
0.137500 0.350000 0.000000
0.137500 0.362500 0.000000
0.137500 0.375000 0.000000
0.137500 0.387500 0.000000
2.017500 0.400000 0.000000
2.017500 0.412500 0.000000
2.017500 0.425000 0.000000
2.017500 0.437500 0.000000
2.017500 0.450000 0.000000
2.017500 0.462500 0.000000
2.017500 0.475000 0.000000
2.017500 0.487500 0.000000
0.175000 0.000000 0.000000
0.175000 0.012500 0.000000
0.175000 0.025000 0.000000
0.175000 0.037500 0.000000
0.175000 0.050000 0.000000
0.175000 0.062500 0.000000
0.175000 0.075000 0.000000
0.175000 0.087500 0.000000
0.175000 0.100000 0.000000
0.175000 0.112500 0.000000
0.175000 0.125000 0.000000
0.175000 0.137500 0.000000
0.175000 0.150000 0.000000
0.175000 0.162500 0.000000
0.175000 0.175000 0.000000
0.175000 0.187500 0.000000
0.175000 0.200000 0.000000
0.175000 0.212500 0.000000
0.175000 0.225000 0.000000
0.175000 0.237500 0.000000
0.175000 0.250000 0.000000
0.175000 0.262500 0.000000
0.175000 0.275000 0.000000
0.175000 0.287500 0.000000
0.175000 0.300000 0.000000
0.175000 0.312500 0.000000
0.175000 0.325000 0.000000
0.175000 0.337500 0.000000
0.175000 0.350000 0.000000
0.175000 0.362500 0.000000
0.175000 0.375000 0.000000
0.175000 0.387500 0.000000
2.055000 0.400000 0.000000
2.055000 0.412500 0.000000
2.055000 0.425000 0.000000
2.055000 0.437500 0.000000
2.055000 0.450000 0.000000
2.055000 0.462500 0.000000
2.055000 0.475000 0.000000
2.055000 0.487500 0.000000
0.212500 0.000000 0.000000
0.212500 0.012500 0.000000
0.212500 0.025000 0.000000
0.212500 0.037500 0.000000
0.212500 0.050000 0.000000
0.212500 0.062500 0.000000
0.212500 0.075000 0.000000
0.212500 0.087500 0.000000
0.212500 0.100000 0.000000
0.212500 0.112500 0.000000
0.212500 0.125000 0.000000
0.212500 0.137500 0.000000
0.212500 0.150000 0.000000
0.212500 0.162500 0.000000
0.212500 0.175000 0.000000
0.212500 0.187500 0.000000
0.212500 0.200000 0.000000
0.212500 0.212500 0.000000
0.212500 0.225000 0.000000
0.212500 0.237500 0.000000
0.212500 0.250000 0.000000
0.212500 0.262500 0.000000
0.212500 0.275000 0.000000
0.212500 0.287500 0.000000
0.212500 0.300000 0.000000
0.212500 0.312500 0.000000
0.212500 0.325000 0.000000
0.212500 0.337500 0.000000
0.212500 0.350000 0.000000
0.212500 0.362500 0.000000
0.212500 0.375000 0.000000
0.212500 0.387500 0.000000
2.092500 0.400000 0.000000
2.092500 0.412500 0.000000
2.092500 0.425000 0.000000
2.092500 0.437500 0.000000
2.092500 0.450000 0.000000
2.092500 0.462500 0.000000
2.092500 0.475000 0.000000
2.092500 0.487500 0.000000
0.250000 0.000000 0.000000
0.250000 0.012500 0.000000
0.250000 0.025000 0.000000
0.250000 0.037500 0.000000
0.250000 0.050000 0.000000
0.250000 0.062500 0.000000
0.250000 0.075000 0.000000
0.250000 0.087500 0.000000
0.250000 0.100000 0.000000
0.250000 0.112500 0.000000
0.250000 0.125000 0.000000
0.250000 0.137500 0.000000
0.250000 0.150000 0.000000
0.250000 0.162500 0.000000
0.250000 0.175000 0.000000
0.250000 0.187500 0.000000
0.250000 0.200000 0.000000
0.250000 0.212500 0.000000
0.250000 0.225000 0.000000
0.250000 0.237500 0.000000
0.250000 0.250000 0.000000
0.250000 0.262500 0.000000
0.250000 0.275000 0.000000
0.250000 0.287500 0.000000
0.250000 0.300000 0.000000
0.250000 0.312500 0.000000
0.250000 0.325000 0.000000
0.250000 0.337500 0.000000
0.250000 0.350000 0.000000
0.250000 0.362500 0.000000
0.250000 0.375000 0.000000
0.250000 0.387500 0.000000
2.130000 0.400000 0.000000
2.130000 0.412500 0.000000
2.130000 0.425000 0.000000
2.130000 0.437500 0.000000
2.130000 0.450000 0.000000
2.130000 0.462500 0.000000
2.130000 0.475000 0.000000
2.130000 0.487500 0.000000
0.287500 0.000000 0.000000
0.287500 0.012500 0.000000
0.287500 0.025000 0.000000
0.287500 0.037500 0.000000
0.287500 0.050000 0.000000
0.287500 0.062500 0.000000
0.287500 0.075000 0.000000
0.287500 0.087500 0.000000
0.287500 0.100000 0.000000
0.287500 0.112500 0.000000
0.287500 0.125000 0.000000
0.287500 0.137500 0.000000
0.287500 0.150000 0.000000
0.287500 0.162500 0.000000
0.287500 0.175000 0.000000
0.287500 0.187500 0.000000
0.287500 0.200000 0.000000
0.287500 0.212500 0.000000
0.287500 0.225000 0.000000
0.287500 0.237500 0.000000
0.287500 0.250000 0.000000
0.287500 0.262500 0.000000
0.287500 0.275000 0.000000
0.287500 0.287500 0.000000
0.287500 0.300000 0.000000
0.287500 0.312500 0.000000
0.287500 0.325000 0.000000
0.287500 0.337500 0.000000
0.287500 0.350000 0.000000
0.287500 0.362500 0.000000
0.287500 0.375000 0.000000
0.287500 0.387500 0.000000
2.167500 0.400000 0.000000
2.167500 0.412500 0.000000
2.167500 0.425000 0.000000
2.167500 0.437500 0.000000
2.167500 0.450000 0.000000
2.167500 0.462500 0.000000
2.167500 0.475000 0.000000
2.167500 0.487500 0.000000
0.325000 0.000000 0.000000
0.325000 0.012500 0.000000
0.325000 0.025000 0.000000
0.325000 0.037500 0.000000
0.325000 0.050000 0.000000
0.325000 0.062500 0.000000
0.325000 0.075000 0.000000
0.325000 0.087500 0.000000
0.325000 0.100000 0.000000
0.325000 0.112500 0.000000
0.325000 0.125000 0.000000
0.325000 0.137500 0.000000
0.325000 0.150000 0.000000
0.325000 0.162500 0.000000
0.325000 0.175000 0.000000
0.325000 0.187500 0.000000
0.325000 0.200000 0.000000
0.325000 0.212500 0.000000
0.325000 0.225000 0.000000
0.325000 0.237500 0.000000
0.325000 0.250000 0.000000
0.325000 0.262500 0.000000
0.325000 0.275000 0.000000
[...]
<PointData>
<DataArray NumberOfComponents='1' type='Int32' Name='ParticleType' format='ascii'>
5
5
5
5
5
5
5
5
5
5
5
5
5
5
5
5
2
2
2
2
2
2
2
2
2
2
2
2
2
2
2
2
2
2
2
2
2
2
2
2
1
1
0
0
0
0
0
0
5
5
5
5
5
5
5
5
2
2
2
2
2
2
2
2
2
2
2
2
2
2
2
2
2
2
2
2
2
2
2
2
1
1
0
0
0
0
0
0
5
5
5
5
5
5
5
5
2
2
2
2
2
2
2
2
2
2
2
2
2
2
2
2
2
2
2
2
2
2
2
2
1
0
0
0
0
0
0
0
5
5
5
5
5
5
5
5
2
2
2
2
2
2
2
2
2
2
2
2
2
2
2
2
2
2
2
2
2
2
2
1
1
0
0
0
0
0
0
0
5
5
5
5
5
5
5
5
2
2
2
2
2
2
2
2
2
2
2
2
2
2
2
2
2
2
2
2
2
2
2
1
1
0
0
0
0
0
0
0
5
5
5
5
5
5
5
5
2
2
2
2
2
2
2
2
2
2
2
2
2
2
2
2
2
2
2
2
2
2
2
1
1
0
0
0
0
0
0
0
5
5
5
5
5
5
5
5
2
2
2
2
2
2
2
2
2
2
2
2
2
2
2
2
2
2
2
2
2
2
2
1
1
0
0
0
0
0
0
0
5
5
5
5
5
5
5
5
2
2
2
2
2
2
2
2
2
2
2
2
2
2
2
2
2
2
2
2
2
2
2
1
1
0
0
0
0
0
0
0
5
5
5
5
5
5
5
5
2
2
2
2
2
2
2
2
2
2
2
2
2
2
2
2
2
2
2
2
2
2
1
1
0
0
0
0
0
0
0
0
5
5
5
5
5
5
5
5
2
2
2
2
2
2
2
2
2
2
2
2
2
2
2
2
2
2
2
2
2
2
1
1
0
0
0
0
0
0
0
0
5
5
5
5
5
5
5
5
2
2
2
2
2
2
2
2
2
2
2
2
2
2
2
2
2
2
2
2
2
2
1
1
0
0
0
0
0
0
0
0
5
5
5
5
5
5
5
5
2
2
2
2
2
2
2
2
2
2
2
2
2
2
2
2
2
2
2
2
2
2
1
1
0
0
0
0
0
0
0
0
5
5
5
5
5
5
5
5
2
2
2
2
2
2
2
2
2
2
2
2
2
2
2
2
2
2
2
2
2
2
1
1
0
0
0
0
0
0
0
0
5
5
5
5
5
5
5
5
2
2
2
2
2
2
2
2
2
2
2
2
2
2
2
2
2
2
2
2
2
2
1
1
0
0
0
0
0
0
0
0
2
2
2
2
2
2
2
2
2
2
2
2
2
2
2
2
2
2
2
2
2
2
1
1
0
0
0
0
0
0
0
0
2
2
2
2
2
2
2
2
2
2
2
2
2
2
2
2
2
2
2
2
2
2
1
1
0
0
0
0
0
0
0
0
2
2
2
2
2
2
2
2
2
2
2
2
2
2
2
2
2
2
2
2
2
2
1
1
0
0
0
0
0
0
0
0
2
2
2
2
2
2
2
2
2
2
2
2
2
2
2
2
2
2
2
2
2
2
1
1
0
0
0
0
0
0
0
0
2
2
2
2
2
2
2
2
2
2
2
2
2
2
2
2
2
2
2
2
2
2
1
1
0
0
0
0
0
0
0
0
2
2
2
2
2
2
2
2
2
2
2
2
2
2
2
2
2
2
2
2
2
2
1
1
0
0
0
0
0
0
0
0
2
2
2
2
2
2
2
2
2
2
2
2
2
2
2
2
2
2
2
2
2
2
2
1
0
0
0
0
0
0
0
0
2
2
2
2
2
2
2
2
2
2
2
2
2
2
2
2
2
2
2
2
2
2
2
1
0
0
0
0
0
0
0
0
2
2
2
2
2
2
2
2
2
2
2
2
2
2
2
2
2
2
2
2
2
2
2
1
1
0
0
0
0
0
0
0
2
2
2
2
2
2
2
2
2
2
2
2
2
2
2
2
2
2
2
2
2
2
2
1
1
0
0
0
0
0
0
0
2
2
2
2
2
2
2
2
2
2
2
2
2
2
2
2
2
2
2
2
2
2
2
1
1
0
0
0
0
0
0
0
2
2
2
2
2
2
2
2
2
2
2
2
2
2
2
2
2
2
2
2
2
2
2
1
1
0
0
0
0
0
0
0
2
2
2
2
2
2
2
2
2
2
2
2
2
2
2
2
2
2
2
2
2
2
2
1
1
0
0
0
0
0
0
0
2
2
2
2
2
2
2
2
2
2
2
2
2
2
2
2
2
2
2
2
2
2
2
1
1
0
0
0
0
0
0
0
2
2
2
2
2
2
2
2
2
2
2
2
2
2
2
2
2
2
2
2
2
2
2
1
1
0
0
0
0
0
0
0
2
2
2
2
2
2
2
2
2
2
2
2
2
2
2
2
2
2
2
2
2
2
2
1
1
0
0
0
0
0
0
0
2
2
2
2
2
2
2
2
2
2
2
2
2
2
2
2
2
2
2
2
2
2
2
2
1
0
0
0
0
0
0
0
2
2
2
2
2
2
2
2
2
2
2
2
2
2
2
2
2
2
2
2
2
2
2
2
1
0
0
0
0
0
0
0
2
2
2
2
2
2
2
2
2
2
2
2
2
2
2
2
2
2
2
2
2
2
2
2
1
1
0
0
0
0
0
0
2
2
2
2
2
2
2
2
2
2
2
2
2
2
2
2
2
2
2
2
2
2
2
2
1
1
0
0
0
0
0
0
2
2
2
2
2
2
2
2
2
2
2
2
2
2
2
2
2
2
2
2
2
2
2
2
1
1
0
0
0
0
0
0
2
2
2
2
2
2
2
2
2
2
2
2
2
2
2
2
2
2
2
2
2
2
2
2
1
1
0
0
0
0
0
0
2
2
2
2
2
2
2
2
2
2
2
2
2
2
2
2
2
2
2
2
2
2
2
2
1
1
0
0
0
0
0
0
2
2
2
2
2
2
2
2
2
2
2
2
2
2
2
2
2
2
2
2
2
2
2
2
1
1
0
0
0
0
0
0
2
2
2
2
2
2
2
2
2
2
2
2
2
2
2
2
2
2
2
2
2
2
2
2
1
1
0
0
0
0
0
0
2
2
2
2
2
2
2
2
2
2
2
2
2
2
2
2
2
2
2
2
2
2
2
2
1
1
0
0
0
0
0
0
2
2
2
2
2
2
2
2
2
2
2
2
2
2
2
2
2
2
2
2
2
2
2
2
2
1
0
0
0
0
0
0
2
2
2
2
2
2
2
2
2
2
2
2
2
2
2
2
2
2
2
2
2
2
2
2
1
1
0
0
0
0
0
0
2
2
2
2
2
2
2
2
2
2
2
2
2
2
2
2
2
2
2
2
2
2
2
2
1
1
0
0
0
0
0
0
2
2
2
2
2
2
2
2
2
2
2
2
2
2
2
2
2
2
2
2
2
2
2
2
2
1
0
0
0
0
0
0
2
2
2
2
2
2
2
2
2
2
2
2
2
2
2
2
2
2
2
2
2
2
2
2
2
1
1
0
0
0
0
0
2
2
2
2
2
2
2
2
2
2
2
2
2
2
2
2
2
2
2
2
2
2
2
2
2
1
1
0
0
0
0
0
2
2
2
2
2
2
2
2
2
2
2
2
2
2
2
2
2
2
2
2
2
2
2
2
2
1
1
0
0
0
0
0
2
2
2
2
2
2
2
2
2
2
2
2
2
2
2
2
2
2
2
2
2
2
2
2
2
1
1
0
0
0
0
0
2
2
2
2
2
2
2
2
2
2
2
2
2
2
2
2
2
2
2
2
2
2
2
2
2
1
1
0
0
0
0
0
2
2
2
2
2
2
2
2
2
2
2
2
2
2
2
2
2
2
2
2
2
2
2
2
2
1
1
0
0
0
0
0
2
2
2
2
2
2
2
2
2
2
2
2
2
2
2
2
2
2
2
2
2
2
2
2
2
1
1
0
0
0
0
0
2
2
2
2
2
2
2
2
2
2
2
2
2
2
2
2
2
2
2
2
2
2
2
2
2
1
1
0
0
0
0
0
2
2
2
2
2
2
2
2
2
2
2
2
2
2
2
2
2
2
2
2
2
2
2
2
2
2
1
1
0
0
0
0
</DataArray>
<DataArray NumberOfComponents='1' type='Float32' Name='Temperature' format='ascii'>
-3.000000
-3.000000
-3.000000
-3.000000
-3.000000
-3.000000
-3.000000
-3.000000
-3.000000
-3.000000
-3.000000
-3.000000
-3.000000
-3.000000
-3.000000
-3.000000
-4.907177
-4.898653
-4.884799
-4.863251
-4.833279
-4.793826
-4.743586
-4.681036
-4.604455
-4.511966
-4.401577
-4.271238
-4.118902
-3.942584
-3.740416
-3.510671
-3.251760
-2.962188
-2.640514
-2.285385
-1.895798
-1.471622
-1.015291
-0.529594
-0.006369
-0.000111
8.063909
22.427775
39.157963
56.381133
70.721405
81.734217
-3.000000
-3.000000
-3.000000
-3.000000
-3.000000
-3.000000
-3.000000
-3.000000
-4.903836
-4.894963
-4.880541
-4.858102
-4.826881
-4.785764
-4.733370
-4.668082
-4.588059
-4.491272
-4.375545
-4.238607
-4.078159
-3.891960
-3.677925
-3.434246
-3.159519
-2.852890
-2.514207
-2.144154
-1.744448
-1.317309
-0.871125
-0.378763
-0.001794
0.009101
19.087975
38.594214
61.770917
85.657257
105.786040
121.370307
-3.000000
-3.000000
-3.000000
-3.000000
-3.000000
-3.000000
-3.000000
-3.000000
-4.902078
-4.893030
-4.878321
-4.855432
-4.823576
-4.781611
-4.728122
-4.661448
-4.579705
-4.480817
-4.362564
-4.222642
-4.058732
-3.868598
-3.650188
-3.401764
-3.122038
-2.810325
-2.466681
-2.091986
-1.687872
-1.254774
-0.798314
-0.225583
-0.004710
1.989030
25.543904
50.848695
80.931870
112.046917
138.380528
158.851930
-3.000000
-3.000000
-3.000000
-3.000000
-3.000000
-3.000000
-3.000000
-3.000000
-4.900065
-4.890750
-4.875599
-4.852004
-4.819138
-4.775797
-4.720491
-4.651475
-4.566765
-4.464176
-4.341363
-4.195867
-4.025170
-3.826751
-3.598142
-3.336997
-3.041190
-2.708969
-2.339189
-1.931695
-1.487375
-1.011841
-0.492207
-0.008342
0.004440
14.637645
37.092695
66.993651
102.830301
140.293455
172.224893
197.223387
-3.000000
-3.000000
-3.000000
-3.000000
-3.000000
-3.000000
-3.000000
-3.000000
-4.898771
-4.889296
-4.873879
-4.849859
-4.816377
-4.772180
-4.715714
-4.645139
-4.558352
-4.453010
-4.326579
-4.176386
-3.999702
-3.793841
-3.556297
-3.284904
-2.978032
-2.634803
-2.255314
-1.840915
-1.393645
-0.922799
-0.396224
-0.006067
0.008585
21.853755
46.992798
81.075902
122.357352
166.042315
203.534446
233.044951
-3.000000
-3.000000
-3.000000
-3.000000
-3.000000
-3.000000
-3.000000
-3.000000
-4.898290
-4.888784
-4.873318
-4.849225
-4.815646
-4.771330
-4.714720
-4.643975
-4.556983
-4.451394
-4.324655
-4.174070
-3.996879
-3.790361
-3.551971
-3.279509
-2.971319
-2.626510
-2.245178
-1.828681
-1.378943
-0.906083
-0.371174
-0.003905
0.007528
24.569057
53.105529
92.269904
139.988861
190.652025
234.221384
268.592901
-3.000000
-3.000000
-3.000000
-3.000000
-3.000000
-3.000000
-3.000000
-3.000000
-4.897555
-4.887955
-4.872335
-4.848003
-4.814089
-4.769333
-4.712166
-4.640738
-4.552933
-4.446403
-4.318604
-4.166864
-3.988453
-3.780691
-3.541077
-3.267450
-2.958176
-2.612359
-2.230041
-1.812493
-1.361371
-0.887636
-0.344182
-0.006006
0.008014
27.722122
60.066818
104.111212
157.656890
214.567532
263.637055
302.490144
-3.000000
-3.000000
-3.000000
-3.000000
-3.000000
-3.000000
-3.000000
-3.000000
-4.896850
-4.887154
-4.871373
-4.846788
-4.812517
-4.767283
-4.709500
-4.637298
-4.548545
-4.440879
-4.311751
-4.158493
-3.978393
-3.768802
-3.527258
-3.251641
-2.940345
-2.592476
-2.208051
-1.788319
-1.334838
-0.859880
-0.308087
-0.005658
0.009627
31.143156
67.132428
115.937421
175.280275
238.522314
293.231396
336.728122
-3.000000
-3.000000
-3.000000
-3.000000
-3.000000
-3.000000
-3.000000
-3.000000
-4.896411
-4.886647
-4.870755
-4.845987
-4.811450
-4.765846
-4.707561
-4.634694
-4.545075
-4.436296
-4.305756
-4.150715
-3.968346
-3.755779
-3.510118
-3.228396
-2.907479
-2.543978
-2.134373
-1.675547
-1.167482
-0.608844
-0.005267
-0.002446
11.023372
36.214527
74.358764
126.943034
191.521166
260.755316
320.910988
368.952234
-3.000000
-3.000000
-3.000000
-3.000000
-3.000000
-3.000000
-3.000000
-3.000000
-4.896034
-4.886200
-4.870188
-4.845223
-4.810391
-4.764365
-4.705497
-4.631842
-4.541184
-4.431074
-4.298886
-4.141889
-3.957342
-3.742596
-3.495194
-3.212928
-2.893782
-2.535660
-2.135837
-1.690364
-1.194122
-0.646699
-0.007904
-0.003325
8.582148
39.611217
81.287147
138.136845
207.985908
283.274152
349.008079
401.773160
-3.000000
-3.000000
-3.000000
-3.000000
-3.000000
-3.000000
-3.000000
-3.000000
-4.895652
-4.885739
-4.869591
-4.844403
-4.809238
-4.762739
-4.703221
-4.628699
-4.536908
-4.425352
-4.291354
-4.132130
-3.944859
-3.726757
-3.475123
-3.187335
-2.860809
-2.492953
-2.081315
-1.623883
-1.122321
-0.569348
-0.004777
0.003265
13.204481
44.308581
88.306871
148.683101
223.381901
304.396339
375.482103
432.840124
-3.000000
-3.000000
-3.000000
-3.000000
-3.000000
-3.000000
-3.000000
-3.000000
-4.895345
-4.885407
-4.869220
-4.843975
-4.808736
-4.762148
-4.702523
-4.627873
-4.535921
-4.424142
-4.289800
-4.129999
-3.941731
-3.721926
-3.467504
-3.175440
-2.842888
-2.467432
-2.047569
-1.582954
-1.079045
-0.519599
-0.005499
0.001750
17.090058
47.530685
93.412487
157.482215
237.569885
324.930503
401.900279
464.287239
-3.000000
-3.000000
-3.000000
-3.000000
-3.000000
-3.000000
-3.000000
-3.000000
-4.892635
-4.882437
-4.865837
-4.839966
-4.803891
-4.756258
-4.695393
-4.619326
-4.525817
-4.412394
-4.276398
-4.115036
-3.925435
-3.704692
-3.449918
-3.158286
-2.827108
-2.454027
-2.037428
-1.576656
-1.076629
-0.520746
-0.009141
0.005994
16.976729
49.953085
99.078491
167.088983
251.905754
344.655628
426.717913
493.619017
-3.000000
-3.000000
-3.000000
-3.000000
-3.000000
-3.000000
-3.000000
-3.000000
-4.889881
-4.879517
-4.862655
-4.836394
-4.799805
-4.751536
-4.689909
-4.612940
-4.518353
-4.403607
-4.265924
-4.102329
-3.909707
-3.684878
-3.424713
-3.126306
-2.787225
-2.405844
-1.981826
-1.515881
-1.016311
-0.452792
-0.007164
0.006539
22.291477
54.783079
105.482159
176.540078
265.723991
363.540033
450.321839
521.383098
-4.896089
-4.886102
-4.869840
-4.844489
-4.809122
-4.762397
-4.702650
-4.627914
-4.535945
-4.424251
-4.290134
-4.130735
-3.943084
-3.724144
-3.470857
-3.180187
-2.849210
-2.475312
-2.056606
-1.592161
-1.086715
-0.522992
-0.003549
0.005874
17.448239
51.121680
102.262892
174.168759
264.919319
365.257055
454.937384
529.010119
-4.907687
-4.898451
-4.883384
-4.859843
-4.826906
-4.783239
-4.727182
-4.656763
-4.569722
-4.463534
-4.335461
-4.182612
-4.002024
-3.790764
-3.546045
-3.265317
-2.946296
-2.586783
-2.184145
-1.734467
-1.231486
-0.673929
-0.008251
0.003407
8.406266
44.448280
95.143011
167.434673
259.879626
363.305649
456.594063
534.398519
-4.913522
-4.904547
-4.889884
-4.866935
-4.834753
-4.791979
-4.736914
-4.667537
-4.581527
-4.476284
-4.348975
-4.196583
-4.015964
-3.803903
-3.557141
-3.272372
-2.946214
-2.575224
-2.156155
-1.686416
-1.167794
-0.591849
-0.008001
0.002116
14.269199
46.973888
97.239536
169.501651
262.655068
367.786802
463.426501
544.050878
-4.923537
-4.915244
-4.901666
-4.880356
-4.850364
-4.810325
-4.758527
-4.692917
-4.611113
-4.510424
-4.387877
-4.240263
-4.064182
-3.856082
-3.612287
-3.328993
-3.002280
-2.628204
-2.203214
-1.724798
-1.195281
-0.608178
-0.008590
-0.000062
14.010841
43.907274
92.003342
163.454364
257.738049
365.884158
465.374402
550.213061
-4.928747
-4.920731
-4.907587
-4.886926
-4.857790
-4.818810
-4.768266
-4.704098
-4.623917
-4.525025
-4.404457
-4.259034
-4.085441
-3.880325
-3.640394
-3.362479
-3.043491
-2.680149
-2.268455
-1.803162
-1.278213
-0.692709
-0.009271
0.002849
9.431217
42.238648
91.620838
164.145644
259.700139
369.943758
472.181838
560.376934
-4.937680
-4.930350
-4.918301
-4.899303
-4.872410
-4.836263
-4.789147
-4.728995
-4.653383
-4.559550
-4.444421
-4.304655
-4.136715
-3.936949
-3.701676
-3.427227
-3.109855
-2.745442
-2.329012
-1.854459
-1.315602
-0.712792
-0.008747
-0.001943
9.612601
39.016298
85.967789
157.550787
254.265819
367.774478
474.293399
567.354439
-4.942279
-4.935215
-4.923585
-4.905214
-4.879145
-4.844017
-4.798105
-4.739334
-4.665271
-4.573147
-4.459876
-4.322108
-4.156297
-3.958808
-3.726058
-3.454704
-3.141865
-2.785351
-2.383770
-1.936268
-1.438972
-0.894934
-0.138902
0.001680
3.611924
37.502309
85.715362
158.213618
256.050880
371.674137
481.194762
578.183424
-4.950115
-4.943726
-4.933178
-4.916461
-4.892638
-4.860372
-4.817964
-4.763349
-4.694084
-4.607357
-4.499997
-4.368510
-4.209138
-4.017958
-3.791017
-3.524530
-3.215101
-2.859918
-2.456668
-2.002694
-1.490063
-0.916306
-0.086926
-0.003504
4.573424
34.130683
79.633160
151.044709
250.050971
369.190831
483.464041
586.102329
-4.954132
-4.948002
-4.937859
-4.921746
-4.898718
-4.867429
-4.826170
-4.772865
-4.705060
-4.619935
-4.514317
-4.384711
-4.227356
-4.038312
-3.813584
-3.549300
-3.241951
-2.888711
-2.487794
-2.038963
-1.542750
-1.010999
-0.388205
0.000929
0.009161
32.945474
79.572057
151.675464
251.617161
372.865702
490.423523
597.701648
-4.960884
-4.955406
-4.946316
-4.931822
-4.911010
-4.882576
-4.844852
-4.795794
-4.732966
-4.653533
-4.554266
-4.431556
-4.281452
-4.099730
-3.882003
-3.623897
-3.321306
-2.970754
-2.569847
-2.117886
-1.615413
-1.073301
-0.446443
-0.004515
0.009672
29.405058
73.022182
143.889546
244.988524
370.004594
492.831211
606.711272
-4.964352
-4.959124
-4.950426
-4.936519
-4.916476
-4.888985
-4.852363
-4.804548
-4.743086
-4.665128
-4.567439
-4.446417
-4.298139
-4.118417
-3.902893
-3.647179
-3.347063
-2.998816
-2.599622
-2.148201
-1.644528
-1.098351
-0.468652
0.000317
0.007169
28.061749
73.062987
144.485495
246.291843
373.374855
499.797086
619.211350
-4.970050
-4.965443
-4.957752
-4.945404
-4.927515
-4.902829
-4.869724
-4.826194
-4.769829
-4.697799
-4.606846
-4.493296
-4.353073
-4.181743
-3.974574
-3.726651
-3.433069
-3.089246
-2.691426
-2.237440
-1.726841
-1.168145
-0.530747
-0.005245
0.008024
24.506473
66.035001
136.037586
238.965482
370.058155
502.307620
629.491617
-4.973023
-4.968662
-4.961358
-4.949590
-4.932465
-4.908716
-4.876704
-4.834399
-4.779360
-4.708721
-4.619200
-4.507110
-4.368404
-4.198723
-3.993465
-3.747875
-3.457161
-3.116693
-2.722353
-2.271172
-1.761612
-1.200066
-0.560994
-0.000107
0.004847
22.635786
66.216564
136.644622
239.966956
373.026677
509.206104
643.055123
-4.977931
-4.974185
-4.967885
-4.957685
-4.942750
-4.921886
-4.893540
-4.855762
-4.806179
-4.741973
-4.659872
-4.556166
-4.426755
-4.267222
-4.072953
-3.839261
-3.561507
-3.235122
-2.855490
-2.417730
-1.916599
-1.348752
-0.709070
-0.003005
0.003836
13.472240
58.190645
127.677987
232.180308
369.313063
511.814200
654.840411
-4.981282
-4.977933
-4.972278
-4.963079
-4.949529
-4.930477
-4.904408
-4.869413
-4.823152
-4.762820
-4.685136
-4.586342
-4.462239
-4.308245
-4.119484
-3.890881
-3.617220
-3.293126
-2.912941
-2.470676
-1.960321
-1.379212
-0.722171
-0.007596
-0.002094
14.321283
55.199915
123.259514
228.100947
368.473250
516.741498
669.172149
-4.983268
-4.980105
-4.974741
-4.965976
-4.952995
-4.934634
-4.909359
-4.875233
-4.829875
-4.770436
-4.693579
-4.595493
-4.471932
-4.318293
-4.129726
-3.901268
-3.627943
-3.304778
-2.926620
-2.487787
-1.981874
-1.403569
-0.749119
-0.006646
-0.000946
12.776282
55.269305
123.538372
228.297446
370.551240
523.367895
684.812480
-4.986552
-4.983878
-4.979322
-4.971837
-4.960677
-4.944768
-4.922687
-4.892615
-4.852295
-4.798988
-4.729449
-4.639910
-4.526104
-4.383314
-4.206474
-3.990334
-3.729684
-3.419666
-3.056153
-2.636138
-2.158111
-1.619735
-1.030279
-0.241555
-0.004695
2.939924
45.978478
112.905598
218.790478
365.576138
525.765309
699.346282
-4.988341
-4.985877
-4.981659
-4.974688
-4.964216
-4.949169
-4.928110
-4.899198
-4.860128
-4.808096
-4.739759
-4.651230
-4.538097
-4.395487
-4.218184
-4.000809
-3.738075
-3.425101
-3.057729
-2.632611
-2.146601
-1.591213
-0.966082
-0.029189
0.002745
5.376252
48.099798
114.157858
218.879420
366.976101
531.964282
716.636742
-4.990854
-4.988818
-4.985315
-4.979487
-4.970666
-4.957880
-4.939818
-4.914781
-4.880618
-4.834678
-4.773759
-4.694082
-4.591287
-4.460460
-4.296207
-4.092776
-3.844263
-3.544897
-3.189453
-2.773780
-2.295569
-1.753736
-1.160773
-0.452193
-0.005887
0.008413
38.560518
102.877181
208.451118
361.123166
534.068336
733.460712
-4.992250
-4.990409
-4.987219
-4.981874
-4.973710
-4.961760
-4.944711
-4.920845
-4.887972
-4.843375
-4.783752
-4.705190
-4.603157
-4.472539
-4.307733
-4.102794
-3.851681
-3.548594
-3.188425
-2.767314
-2.283402
-1.736053
-1.139156
-0.422320
0.001813
0.009151
41.127719
104.242201
207.963959
361.533774
539.591041
752.809397
-4.994076
-4.992591
-4.990003
-4.985637
-4.978909
-4.968965
-4.954630
-4.934349
-4.906112
-4.867392
-4.815075
-4.745416
-4.654017
-4.535834
-4.385227
-4.196053
-3.961808
-3.675844
-3.331693
-2.923569
-2.447206
-1.900026
-1.290355
-0.576847
-0.006920
0.005731
30.443217
92.095645
196.547082
354.625088
541.138102
772.390781
-4.995121
-4.993810
-4.991505
-4.987580
-4.981465
-4.972318
-4.958971
-4.939861
-4.912951
-4.875652
-4.824753
-4.756368
-4.665906
-4.548083
-4.396978
-4.206150
-3.968830
-3.678211
-3.327877
-2.912408
-2.428272
-1.873745
-1.259325
-0.535565
0.001092
0.006558
33.808808
93.705001
195.413509
353.806032
545.631825
794.280019
-4.996380
-4.995352
-4.993532
-4.990408
-4.985494
-4.978063
-4.967098
-4.951212
-4.928575
-4.896825
-4.852982
-4.793379
-4.713620
-4.608569
-4.472392
-4.298651
-4.080440
-3.810541
-3.481583
-3.086238
-2.617650
-2.069997
-1.444311
-0.722694
-0.007711
0.002914
21.456564
80.691807
183.007088
345.634143
546.229416
817.209347
-4.997123
-4.996242
-4.994668
-4.991934
-4.987575
-4.980886
-4.970867
-4.956140
-4.934857
-4.904609
-4.862326
-4.804200
-4.725634
-4.621231
-4.484832
-4.309611
-4.088223
-3.813004
-3.476264
-3.070740
-2.590435
-2.031251
-1.398537
-0.664808
0.000505
0.003707
25.903042
82.656436
181.152723
343.303828
549.194244
842.263425
-4.997938
-4.997270
-4.996065
-4.993953
-4.990549
-4.985264
-4.977248
-4.965313
-4.947845
-4.922697
-4.887083
-4.837479
-4.769543
-4.678069
-4.557009
-4.399569
-4.198400
-3.945888
-3.634458
-3.256756
-2.805366
-2.271855
-1.644232
-0.918858
-0.008195
0.000318
11.427160
68.911009
167.812472
333.624669
548.265838
869.297164
-4.998433
-4.997883
-4.996879
-4.995095
-4.992173
-4.987553
-4.980419
-4.969607
-4.953505
-4.929936
-4.896037
-4.848145
-4.781703
-4.691226
-4.570323
-4.411814
-4.207917
-3.950472
-3.631125
-3.241389
-2.772696
-2.216690
-1.568937
-0.821538
0.000201
0.000871
17.328108
71.359639
165.170031
329.463821
548.991966
898.329694
-4.998923
-4.998521
-4.997780
-4.996450
-4.994242
-4.990704
-4.985165
-4.976652
-4.963797
-4.944720
-4.916899
-4.877040
-4.820949
-4.743437
-4.638281
-4.498261
-4.315316
-4.080851
-3.786210
-3.423333
-2.985561
-2.468745
-1.870157
-1.207605
-0.374215
0.007324
0.561932
57.261746
151.090574
318.028451
545.710130
930.453606
-4.999223
-4.998908
-4.998318
-4.997241
-4.995417
-4.992433
-4.987656
-4.980154
-4.968580
-4.951043
-4.924955
-4.886872
-4.832345
-4.755823
-4.650618
-4.509008
-4.322492
-4.082216
-3.779533
-3.406509
-2.955902
-2.419878
-1.783217
-1.041413
-0.004463
-0.002606
8.654394
60.365187
147.617924
311.690084
543.186724
964.532452
-4.999475
-4.999245
-4.998809
-4.997999
-4.996602
-4.994271
-4.990465
-4.984366
-4.974769
-4.959942
-4.937464
-4.904040
-4.855325
-4.785777
-4.688587
-4.555729
-4.378194
-4.146404
-3.850779
-3.482229
-3.032022
-2.490276
-1.839141
-1.072241
-0.000176
-0.004843
9.041489
55.433107
138.330225
301.104047
537.580972
1003.548336
-4.999657
-4.999496
-4.999183
-4.998595
-4.997559
-4.995794
-4.992850
-4.988032
-4.980291
-4.968083
-4.949197
-4.920552
-4.877985
-4.816057
-4.727920
-4.605309
-4.438726
-4.217878
-3.932409
-3.572907
-3.132082
-2.606110
-1.993868
-1.312882
-0.475534
-0.004636
0.621858
49.913569
128.571346
289.266060
529.081454
1043.542967
-4.999786
-4.999677
-4.999462
-4.999049
-4.998307
-4.997014
-4.994807
-4.991111
-4.985036
-4.975238
-4.959740
-4.935718
-4.899251
-4.845080
-4.766404
-4.654783
-4.500249
-4.291678
-4.017536
-3.666985
-3.231279
-2.705406
-2.087936
-1.395125
-0.557494
-0.006744
0.009985
44.805173
118.430046
276.010225
517.849945
1090.449369
-4.999871
-4.999800
-4.999657
-4.999376
-4.998861
-4.997940
-4.996329
-4.993566
-4.988912
-4.981225
-4.968775
-4.949025
-4.918350
-4.871750
-4.802568
-4.702298
-4.560574
-4.365461
-4.104149
-3.764134
-3.334827
-2.809548
-2.186072
-1.478985
-0.633715
-0.005910
0.007354
39.882609
108.234832
261.563413
502.836918
1138.938292
-4.999927
-4.999882
-4.999792
-4.999610
-4.999267
-4.998638
-4.997509
-4.995518
-4.992075