<?xml version='1.0' encoding='UTF-8'?>
<VTKFile xmlns='VTK' byte_order='LittleEndian' version='0.1' type='UnstructuredGrid'>
<UnstructuredGrid>
<Piece NumberOfCells='1888' NumberOfPoints='1888'>
<Points>
<DataArray NumberOfComponents='3' type='Float32' Name='Position' format='ascii'>
-0.040000 -0.030000 0.000000
-0.040000 -0.020000 0.000000
-0.040000 -0.010000 0.000000
-0.040000 0.000000 0.000000
-0.040000 0.010000 0.000000
-0.040000 0.020000 0.000000
-0.040000 0.030000 0.000000
-0.040000 0.040000 0.000000
-0.040000 0.050000 0.000000
-0.040000 0.060000 0.000000
-0.040000 0.070000 0.000000
-0.040000 0.080000 0.000000
-0.040000 0.090000 0.000000
-0.040000 0.100000 0.000000
-0.040000 0.110000 0.000000
-0.040000 0.120000 0.000000
-0.040000 0.130000 0.000000
-0.040000 0.140000 0.000000
-0.040000 0.150000 0.000000
-0.040000 0.160000 0.000000
-0.040000 0.170000 0.000000
-0.040000 0.180000 0.000000
-0.040000 0.190000 0.000000
-0.040000 0.200000 0.000000
-0.040000 0.210000 0.000000
-0.040000 0.220000 0.000000
-0.040000 0.230000 0.000000
-0.040000 0.240000 0.000000
-0.040000 0.250000 0.000000
-0.040000 0.260000 0.000000
-0.040000 0.270000 0.000000
-0.040000 0.280000 0.000000
-0.040000 0.290000 0.000000
-0.040000 0.300000 0.000000
-0.040000 0.310000 0.000000
-0.040000 0.320000 0.000000
-0.040000 0.330000 0.000000
-0.040000 0.340000 0.000000
-0.040000 0.350000 0.000000
-0.040000 0.360000 0.000000
-0.040000 0.370000 0.000000
-0.040000 0.380000 0.000000
-0.040000 0.390000 0.000000
-0.040000 0.400000 0.000000
0.010000 -0.030000 0.000000
0.010000 -0.020000 0.000000
0.010000 -0.010000 0.000000
0.010000 0.000000 0.000000
0.010000 0.010000 0.000000
0.010000 0.020000 0.000000
0.010000 0.030000 0.000000
0.010000 0.040000 0.000000
0.010000 0.050000 0.000000
0.010000 0.060000 0.000000
0.010000 0.070000 0.000000
0.010000 0.080000 0.000000
0.010000 0.090000 0.000000
0.010000 0.100000 0.000000
0.010000 0.110000 0.000000
0.010000 0.120000 0.000000
0.010000 0.130000 0.000000
0.010000 0.140000 0.000000
0.010000 0.150000 0.000000
0.010000 0.160000 0.000000
0.010000 0.170000 0.000000
0.010000 0.180000 0.000000
0.010000 0.190000 0.000000
0.010000 0.200000 0.000000
0.010000 0.210000 0.000000
0.010000 0.220000 0.000000
0.010000 0.230000 0.000000
0.010000 0.240000 0.000000
0.010000 0.250000 0.000000
0.010000 0.260000 0.000000
0.010000 0.270000 0.000000
0.010000 0.280000 0.000000
0.010000 0.290000 0.000000
0.010000 0.300000 0.000000
0.010000 0.310000 0.000000
0.010000 0.320000 0.000000
0.010000 0.330000 0.000000
0.010000 0.340000 0.000000
0.010000 0.350000 0.000000
0.010000 0.360000 0.000000
0.010000 0.370000 0.000000
0.010000 0.380000 0.000000
0.010000 0.390000 0.000000
0.010000 0.400000 0.000000
0.286000 0.410000 0.000000
0.286000 0.420000 0.000000
0.286000 0.430000 0.000000
0.286000 0.440000 0.000000
0.060000 -0.030000 0.000000
0.060000 -0.020000 0.000000
0.060000 -0.010000 0.000000
0.060000 0.000000 0.000000
0.060000 0.010000 0.000000
0.060000 0.020000 0.000000
0.060000 0.030000 0.000000
0.060000 0.040000 0.000000
0.060000 0.050000 0.000000
0.060000 0.060000 0.000000
0.060000 0.070000 0.000000
0.060000 0.080000 0.000000
0.060000 0.090000 0.000000
0.060000 0.100000 0.000000
0.060000 0.110000 0.000000
0.060000 0.120000 0.000000
0.060000 0.130000 0.000000
0.060000 0.140000 0.000000
0.060000 0.150000 0.000000
0.060000 0.160000 0.000000
0.060000 0.170000 0.000000
0.060000 0.180000 0.000000
0.060000 0.190000 0.000000
0.060000 0.200000 0.000000
0.060000 0.210000 0.000000
0.060000 0.220000 0.000000
0.060000 0.230000 0.000000
0.060000 0.240000 0.000000
0.060000 0.250000 0.000000
0.060000 0.260000 0.000000
0.060000 0.270000 0.000000
0.060000 0.280000 0.000000
0.060000 0.290000 0.000000
0.060000 0.300000 0.000000
0.060000 0.310000 0.000000
0.060000 0.320000 0.000000
0.060000 0.330000 0.000000
0.060000 0.340000 0.000000
0.060000 0.350000 0.000000
0.060000 0.360000 0.000000
0.060000 0.370000 0.000000
0.060000 0.380000 0.000000
0.060000 0.390000 0.000000
0.060000 0.400000 0.000000
0.336000 0.410000 0.000000
0.336000 0.420000 0.000000
0.336000 0.430000 0.000000
0.336000 0.440000 0.000000
0.110000 -0.030000 0.000000
0.110000 -0.020000 0.000000
0.110000 -0.010000 0.000000
0.110000 0.000000 0.000000
0.110000 0.010000 0.000000
0.110000 0.020000 0.000000
0.110000 0.030000 0.000000
0.110000 0.040000 0.000000
0.110000 0.050000 0.000000
0.110000 0.060000 0.000000
0.110000 0.070000 0.000000
0.110000 0.080000 0.000000
0.110000 0.090000 0.000000
0.110000 0.100000 0.000000
0.110000 0.110000 0.000000
0.110000 0.120000 0.000000
0.110000 0.130000 0.000000
0.110000 0.140000 0.000000
0.110000 0.150000 0.000000
0.110000 0.160000 0.000000
0.110000 0.170000 0.000000
0.110000 0.180000 0.000000
0.110000 0.190000 0.000000
0.110000 0.200000 0.000000
0.110000 0.210000 0.000000
0.110000 0.220000 0.000000
0.110000 0.230000 0.000000
0.110000 0.240000 0.000000
0.110000 0.250000 0.000000
0.110000 0.260000 0.000000
0.110000 0.270000 0.000000
0.110000 0.280000 0.000000
0.110000 0.290000 0.000000
0.110000 0.300000 0.000000
0.110000 0.310000 0.000000
0.110000 0.320000 0.000000
0.110000 0.330000 0.000000
0.110000 0.340000 0.000000
0.110000 0.350000 0.000000
0.110000 0.360000 0.000000
0.110000 0.370000 0.000000
0.110000 0.380000 0.000000
0.110000 0.390000 0.000000
0.110000 0.400000 0.000000
0.386000 0.410000 0.000000
0.386000 0.420000 0.000000
0.386000 0.430000 0.000000
0.386000 0.440000 0.000000
0.160000 -0.030000 0.000000
0.160000 -0.020000 0.000000
0.160000 -0.010000 0.000000
0.160000 0.000000 0.000000
0.160000 0.010000 0.000000
0.160000 0.020000 0.000000
0.160000 0.030000 0.000000
0.160000 0.040000 0.000000
0.160000 0.050000 0.000000
0.160000 0.060000 0.000000
0.160000 0.070000 0.000000
0.160000 0.080000 0.000000
0.160000 0.090000 0.000000
0.160000 0.100000 0.000000
0.160000 0.110000 0.000000
0.160000 0.120000 0.000000
0.160000 0.130000 0.000000
0.160000 0.140000 0.000000
0.160000 0.150000 0.000000
0.160000 0.160000 0.000000
0.160000 0.170000 0.000000
0.160000 0.180000 0.000000
0.160000 0.190000 0.000000
0.160000 0.200000 0.000000
0.160000 0.210000 0.000000
0.160000 0.220000 0.000000
0.160000 0.230000 0.000000
0.160000 0.240000 0.000000
0.160000 0.250000 0.000000
0.160000 0.260000 0.000000
0.160000 0.270000 0.000000
0.160000 0.280000 0.000000
0.160000 0.290000 0.000000
0.160000 0.300000 0.000000
0.160000 0.310000 0.000000
0.160000 0.320000 0.000000
0.160000 0.330000 0.000000
0.160000 0.340000 0.000000
0.160000 0.350000 0.000000
0.160000 0.360000 0.000000
0.160000 0.370000 0.000000
0.160000 0.380000 0.000000
0.160000 0.390000 0.000000
0.160000 0.400000 0.000000
0.436000 0.410000 0.000000
0.436000 0.420000 0.000000
0.436000 0.430000 0.000000
0.436000 0.440000 0.000000
0.210000 -0.030000 0.000000
0.210000 -0.020000 0.000000
0.210000 -0.010000 0.000000
0.210000 0.000000 0.000000
0.210000 0.010000 0.000000
0.210000 0.020000 0.000000
0.210000 0.030000 0.000000
0.210000 0.040000 0.000000
0.210000 0.050000 0.000000
0.210000 0.060000 0.000000
0.210000 0.070000 0.000000
0.210000 0.080000 0.000000
0.210000 0.090000 0.000000
0.210000 0.100000 0.000000
0.210000 0.110000 0.000000
0.210000 0.120000 0.000000
0.210000 0.130000 0.000000
0.210000 0.140000 0.000000
0.210000 0.150000 0.000000
0.210000 0.160000 0.000000
0.210000 0.170000 0.000000
0.210000 0.180000 0.000000
0.210000 0.190000 0.000000
0.210000 0.200000 0.000000
0.210000 0.210000 0.000000
0.210000 0.220000 0.000000
0.210000 0.230000 0.000000
0.210000 0.240000 0.000000
0.210000 0.250000 0.000000
0.210000 0.260000 0.000000
0.210000 0.270000 0.000000
0.210000 0.280000 0.000000
0.210000 0.290000 0.000000
0.210000 0.300000 0.000000
0.210000 0.310000 0.000000
0.210000 0.320000 0.000000
0.210000 0.330000 0.000000
0.210000 0.340000 0.000000
0.210000 0.350000 0.000000
0.210000 0.360000 0.000000
0.210000 0.370000 0.000000
0.210000 0.380000 0.000000
0.210000 0.390000 0.000000
0.210000 0.400000 0.000000
0.486000 0.410000 0.000000
0.486000 0.420000 0.000000
0.486000 0.430000 0.000000
0.486000 0.440000 0.000000
0.260000 -0.030000 0.000000
0.260000 -0.020000 0.000000
0.260000 -0.010000 0.000000
0.260000 0.000000 0.000000
0.260000 0.010000 0.000000
0.260000 0.020000 0.000000
0.260000 0.030000 0.000000
0.260000 0.040000 0.000000
0.260000 0.050000 0.000000
0.260000 0.060000 0.000000
0.260000 0.070000 0.000000
0.260000 0.080000 0.000000
0.260000 0.090000 0.000000
0.260000 0.100000 0.000000
0.260000 0.110000 0.000000
0.260000 0.120000 0.000000
0.260000 0.130000 0.000000
0.260000 0.140000 0.000000
0.260000 0.150000 0.000000
0.260000 0.160000 0.000000
0.260000 0.170000 0.000000
0.260000 0.180000 0.000000
0.260000 0.190000 0.000000
0.260000 0.200000 0.000000
0.260000 0.210000 0.000000
0.260000 0.220000 0.000000
0.260000 0.230000 0.000000
0.260000 0.240000 0.000000
0.260000 0.250000 0.000000
0.260000 0.260000 0.000000
0.260000 0.270000 0.000000
0.260000 0.280000 0.000000
0.260000 0.290000 0.000000
0.260000 0.300000 0.000000
0.260000 0.310000 0.000000
0.260000 0.320000 0.000000
0.260000 0.330000 0.000000
0.260000 0.340000 0.000000
0.260000 0.350000 0.000000
0.260000 0.360000 0.000000
0.260000 0.370000 0.000000
0.260000 0.380000 0.000000
0.260000 0.390000 0.000000
0.260000 0.400000 0.000000
0.536000 0.410000 0.000000
0.536000 0.420000 0.000000
0.536000 0.430000 0.000000
0.536000 0.440000 0.000000
0.310000 -0.030000 0.000000
0.310000 -0.020000 0.000000
0.310000 -0.010000 0.000000
0.310000 0.000000 0.000000
0.310000 0.010000 0.000000
0.310000 0.020000 0.000000
0.310000 0.030000 0.000000
0.310000 0.040000 0.000000
0.310000 0.050000 0.000000
0.310000 0.060000 0.000000
0.310000 0.070000 0.000000
0.310000 0.080000 0.000000
0.310000 0.090000 0.000000
0.310000 0.100000 0.000000
0.310000 0.110000 0.000000
0.310000 0.120000 0.000000
0.310000 0.130000 0.000000
0.310000 0.140000 0.000000
0.310000 0.150000 0.000000
0.310000 0.160000 0.000000
0.310000 0.170000 0.000000
0.310000 0.180000 0.000000
0.310000 0.190000 0.000000
0.310000 0.200000 0.000000
0.310000 0.210000 0.000000
[...]
<PointData>
<DataArray NumberOfComponents='1' type='Int32' Name='ParticleType' format='ascii'>
4
4
4
4
4
4
4
4
4
4
4
4
4
4
4
4
4
4
4
4
4
4
4
4
4
4
4
4
4
4
4
4
4
4
4
4
4
4
4
4
4
4
4
4
4
4
3
3
2
2
2
2
2
2
2
2
2
2
2
2
2
2
2
2
2
2
2
2
2
2
2
2
2
2
2
2
2
2
2
2
2
2
2
2
2
2
2
2
5
5
5
5
4
4
3
3
2
2
2
2
2
2
2
2
2
2
2
2
2
2
2
2
2
2
2
2
2
2
2
2
2
2
2
2
2
2
2
2
2
2
2
2
2
2
2
2
5
5
5
5
4
4
3
3
2
2
2
2
2
2
2
2
2
2
2
2
2
2
2
2
2
2
2
2
2
2
2
2
2
2
2
2
2
2
2
2
2
2
2
2
2
2
2
2
5
5
5
5
4
4
3
3
2
2
2
2
2
2
2
2
2
2
2
2
2
2
2
2
2
2
2
2
2
2
2
2
2
2
2
2
2
2
2
2
2
2
2
2
2
2
2
2
5
5
5
5
4
4
3
3
2
2
2
2
2
2
2
2
2
2
2
2
2
2
2
2
2
2
2
2
2
2
2
2
2
2
2
2
2
2
2
2
2
2
2
2
2
2
2
2
5
5
5
5
4
4
3
3
2
2
2
2
2
2
2
2
2
2
2
2
2
2
2
2
2
2
2
2
2
2
2
2
2
2
2
2
2
2
2
2
2
2
2
2
2
2
2
2
5
5
5
5
4
4
3
3
2
2
2
2
2
2
2
2
2
2
2
2
2
2
2
2
2
2
2
2
2
2
2
2
2
2
2
2
2
2
2
2
2
2
2
2
2
2
2
2
5
5
5
5
4
4
3
3
2
2
2
2
2
2
2
2
2
2
2
2
2
2
2
2
2
2
2
2
2
2
2
2
2
2
2
2
2
2
2
2
2
2
2
2
2
2
2
2
5
5
5
5
4
4
3
3
2
2
2
2
2
2
2
2
2
2
2
2
2
2
2
2
2
2
2
2
2
2
2
2
2
2
2
2
2
2
2
2
2
2
2
2
2
2
2
2
5
5
5
5
4
4
3
3
2
2
2
2
2
2
2
2
2
2
2
2
2
2
2
2
2
2
2
2
2
2
2
2
2
2
2
2
2
2
2
2
2
2
2
2
2
2
2
2
5
5
5
5
4
4
3
3
2
2
2
2
2
2
2
2
2
2
2
2
2
2
2
2
2
2
2
2
2
2
2
2
2
2
2
2
2
2
2
2
2
2
2
2
2
2
2
2
4
4
3
3
2
2
2
2
2
2
2
2
2
2
2
2
2
2
2
2
2
2
2
2
2
2
2
2
2
2
2
2
2
2
2
2
2
2
2
2
2
2
2
2
4
4
3
3
2
2
2
2
2
2
2
2
2
2
2
2
2
2
2
2
2
2
2
2
2
2
2
2
2
2
2
2
2
2
2
2
2
2
2
2
2
2
2
2
4
4
3
3
2
2
2
2
2
2
2
2
2
2
2
2
2
2
2
2
2
2
2
2
2
2
2
2
2
2
2
2
2
2
2
2
2
2
2
2
2
2
2
2
4
4
3
3
2
2
2
2
2
2
2
2
2
2
2
2
2
2
2
2
2
2
2
2
2
2
2
2
2
2
2
2
2
2
2
2
2
2
2
2
2
2
2
2
4
4
3
3
2
2
2
2
2
2
2
2
2
2
2
2
2
2
2
2
2
2
2
2
2
2
2
2
2
2
2
2
2
2
2
2
2
2
2
2
2
2
2
2
4
4
3
3
2
2
2
2
2
2
2
2
2
2
2
2
2
2
2
2
2
2
2
2
2
2
2
2
2
2
2
2
2
2
2
2
2
2
2
2
2
2
2
2
4
4
3
3
2
2
2
2
2
2
2
2
2
2
2
2
2
2
2
2
2
2
2
2
2
2
2
2
2
2
2
2
2
2
2
2
2
2
2
2
2
2
2
2
4
4
3
3
2
2
2
2
2
2
2
2
2
2
2
2
2
2
2
2
2
2
2
2
2
2
2
2
2
2
2
2
2
2
2
2
2
2
2
2
2
2
2
2
4
4
3
3
2
2
2
2
2
2
2
2
2
2
2
2
2
2
2
2
2
2
2
2
2
2
2
2
2
2
2
2
2
2
2
2
2
2
2
2
2
2
2
2
4
4
3
3
2
2
2
2
2
2
2
2
2
2
2
2
2
2
2
2
2
2
2
2
2
2
2
2
2
2
2
2
2
2
2
2
2
2
2
2
2
2
2
2
4
4
3
3
2
2
2
2
2
2
2
2
2
2
2
2
2
2
2
2
2
2
2
2
2
2
2
2
2
2
2
2
2
2
2
2
2
2
2
2
2
2
2
2
4
4
3
3
2
2
2
2
2
2
2
2
2
2
2
2
2
2
2
2
2
2
2
2
2
2
2
2
2
2
2
2
2
2
2
2
2
2
2
2
2
2
2
2
4
4
3
3
2
2
2
2
2
2
2
2
2
2
2
2
2
2
2
2
2
2
2
2
2
2
2
2
2
2
2
2
2
2
2
2
2
2
2
2
2
2
2
2
4
4
3
3
2
2
2
2
2
2
2
2
2
2
2
2
2
2
2
2
2
2
2
2
2
2
2
2
2
2
2
2
2
2
2
2
2
2
2
2
2
2
2
2
4
4
3
3
2
2
2
2
2
2
2
2
2
2
2
2
2
2
2
2
2
2
2
2
2
2
2
2
2
2
2
2
2
2
2
2
2
2
2
2
2
2
2
2
4
4
3
3
2
2
2
2
2
2
2
2
2
2
2
2
2
2
2
2
2
2
2
2
2
2
2
2
2
2
2
2
2
2
2
2
2
2
2
2
2
2
2
2
4
4
3
3
2
2
2
2
2
2
2
2
2
2
2
2
2
2
2
2
2
2
2
2
2
2
2
2
2
2
2
2
2
2
2
2
2
2
2
2
2
2
2
2
4
4
3
3
2
2
2
2
2
2
2
2
2
2
2
2
2
2
2
2
2
2
2
2
2
2
2
2
2
2
2
2
2
2
2
2
2
2
2
2
2
2
2
2
4
4
3
3
2
2
2
2
2
2
2
2
2
2
2
2
2
2
2
2
2
2
2
2
2
2
2
2
2
2
2
2
2
2
2
2
2
2
2
2
2
2
2
2
4
4
3
3
2
2
2
2
2
2
2
2
2
2
2
2
2
2
2
2
2
2
2
2
2
2
2
2
2
2
2
2
2
2
2
2
2
2
2
2
2
2
2
2
4
4
3
3
2
2
2
2
2
2
2
2
2
2
2
2
2
2
2
2
2
2
2
2
2
2
2
2
2
2
2
2
2
2
2
2
2
2
2
2
2
2
2
2
4
4
3
3
2
2
2
2
2
2
2
2
2
2
2
2
2
2
2
2
2
2
2
2
2
2
2
2
2
2
2
2
2
2
2
2
2
2
2
2
2
2
2
2
4
4
3
3
2
2
2
2
2
2
2
2
2
2
2
2
2
2
2
2
2
2
2
2
2
2
2
2
2
2
2
2
2
2
2
2
2
2
2
2
2
2
2
2
4
4
3
3
2
2
2
2
2
2
2
2
2
2
2
2
2
2
2
2
2
2
2
2
2
2
2
2
2
2
2
2
2
2
2
2
2
2
2
2
2
2
2
2
4
4
3
3
2
2
2
2
2
2
2
2
2
2
2
2
2
2
2
2
2
2
2
2
2
2
2
2
2
2
2
2
2
2
2
2
2
2
2
2
2
2
2
2
4
4
3
3
2
2
2
2
2
2
2
2
2
2
2
2
2
2
2
2
2
2
2
2
2
2
2
2
2
2
2
2
2
2
2
2
2
2
2
2
2
2
2
2
4
4
3
3
2
2
2
2
2
2
2
2
2
2
2
2
2
2
2
2
2
2
2
2
2
2
2
2
2
2
2
2
2
2
2
2
2
2
2
2
2
2
2
2
4
4
3
3
2
2
2
2
2
2
2
2
2
2
2
2
2
2
2
2
2
2
2
2
2
2
2
2
2
2
2
2
2
2
2
2
2
2
2
2
2
2
2
2
4
4
3
3
2
2
2
2
2
2
2
2
2
2
2
2
2
2
2
2
2
2
2
2
2
2
2
2
2
2
2
2
2
2
2
2
2
2
2
2
2
2
2
2
4
4
3
3
3
3
3
3
3
3
3
3
3
3
3
3
3
3
3
3
3
3
3
3
3
3
3
3
3
3
3
3
3
3
3
3
3
3
3
3
3
3
3
3
</DataArray>
<DataArray NumberOfComponents='1' type='Float32' Name='Temperature' format='ascii'>
0.000000
0.000000
0.000000
0.000000
0.000000
0.000000
0.000000
0.000000
0.000000
0.000000
0.000000
0.000000
0.000000
0.000000
0.000000
0.000000
0.000000
0.000000
0.000000
0.000000
0.000000
0.000000
0.000000
0.000000
0.000000
0.000000
0.000000
0.000000
0.000000
0.000000
0.000000
0.000000
0.000000
0.000000
0.000000
0.000000
0.000000
0.000000
0.000000
0.000000
0.000000
0.000000
0.000000
0.000000
0.000000
0.000000
0.000000
0.000000
-0.292242
-0.527197
-0.767708
-1.004250
-1.236899
-1.464699
-1.686856
-1.902626
-2.111334
-2.312380
-2.505243
-2.689482
-2.864741
-3.030748
-3.187316
-3.334339
-3.471790
-3.599717
-3.718242
-3.827547
-3.927877
-4.019527
-4.102838
-4.178187
-4.245983
-4.306657
-4.360652
-4.408422
-4.450420
-4.487091
-4.518867
-4.546163
-4.569366
-4.588834
-4.604890
-4.617820
-4.627864
-4.635220
-4.640007
-4.642965
-3.000000
-3.000000
-3.000000
-3.000000
0.000000
0.000000
0.000000
0.000000
-0.289496
-0.522171
-0.760224
-0.994163
-1.224009
-1.448760
-1.667577
-1.879671
-2.084328
-2.280907
-2.468852
-2.647689
-2.817036
-2.976599
-3.126175
-3.265652
-3.395003
-3.514286
-3.623643
-3.723286
-3.813501
-3.894636
-3.967095
-4.031330
-4.087834
-4.137132
-4.179773
-4.216317
-4.247333
-4.273386
-4.295027
-4.312790
-4.327178
-4.338660
-4.347661
-4.354559
-4.359677
-4.363277
-4.365547
-4.366912
-3.000000
-3.000000
-3.000000
-3.000000
0.000000
0.000000
0.000000
0.000000
-0.288495
-0.520319
-0.757425
-0.990315
-1.218972
-1.442360
-1.659601
-1.869870
-2.072412
-2.266545
-2.451672
-2.627280
-2.792944
-2.948336
-3.093216
-3.227443
-3.350967
-3.463831
-3.566167
-3.658194
-3.740212
-3.812598
-3.875800
-3.930329
-3.976749
-4.015675
-4.047755
-4.073668
-4.094106
-4.109770
-4.121353
-4.129533
-4.134957
-4.138235
-4.139925
-4.140525
-4.140467
-4.140101
-4.139705
-4.139379
-3.000000
-3.000000
-3.000000
-3.000000
0.000000
0.000000
0.000000
0.000000
-0.288277
-0.519907
-0.756782
-0.989392
-1.217702
-1.440656
-1.657350
-1.866930
-2.068608
-2.261667
-2.445465
-2.619442
-2.783124
-2.936122
-3.078142
-3.208977
-3.328519
-3.436750
-3.533749
-3.619687
-3.694831
-3.759535
-3.814245
-3.859489
-3.895877
-3.924091
-3.944878
-3.959043
-3.967433
-3.970927
-3.970421
-3.966811
-3.960975
-3.953753
-3.945935
-3.938233
-3.931274
-3.925576
-3.921571
-3.918946
-3.000000
-3.000000
-3.000000
-3.000000
0.000000
0.000000
0.000000
0.000000
-0.288267
-0.519888
-0.756748
-0.989339
-1.217621
-1.440533
-1.657166
-1.866658
-2.068210
-2.261090
-2.444635
-2.618260
-2.781456
-2.933794
-3.074922
-3.204570
-3.322549
-3.428748
-3.523136
-3.605765
-3.676769
-3.736364
-3.784860
-3.822656
-3.850254
-3.868259
-3.877390
-3.878479
-3.872474
-3.860439
-3.843536
-3.823017
-3.800195
-3.776410
-3.752990
-3.731202
-3.712207
-3.697003
-3.686465
-3.679621
-3.000000
-3.000000
-3.000000
-3.000000
0.000000
0.000000
0.000000
0.000000
-0.288267
-0.519888
-0.756748
-0.989339
-1.217621
-1.440533
-1.657166
-1.866658
-2.068209
-2.261088
-2.444632
-2.618254
-2.781445
-2.933774
-3.074886
-3.204508
-3.322439
-3.428559
-3.522816
-3.605228
-3.675881
-3.734919
-3.782541
-3.818994
-3.844562
-3.859557
-3.864310
-3.859162
-3.844465
-3.820590
-3.787958
-3.747093
-3.698712
-3.643850
-3.584030
-3.521463
-3.459268
-3.401550
-3.354782
-3.312259
-3.000000
-3.000000
-3.000000
-3.000000
0.000000
0.000000
0.000000
0.000000
-0.288267
-0.519888
-0.756748
-0.989339
-1.217621
-1.440533
-1.657166
-1.866658
-2.068209
-2.261088
-2.444632
-2.618254
-2.781445
-2.933774
-3.074886
-3.204508
-3.322439
-3.428559
-3.522816
-3.605228
-3.675881
-3.734919
-3.782541
-3.818994
-3.844562
-3.859557
-3.864310
-3.859162
-3.844465
-3.820590
-3.787958
-3.747093
-3.698709
-3.643840
-3.583995
-3.521353
-3.458932
-3.400534
-3.352442
-3.302510
-3.000000
-3.000000
-3.000000
-3.000000
0.000000
0.000000
0.000000
0.000000
-0.288267
-0.519888
-0.756748
-0.989339
-1.217621
-1.440533
-1.657166
-1.866658
-2.068209
-2.261088
-2.444632
-2.618254
-2.781445
-2.933774
-3.074886
-3.204508
-3.322439
-3.428559
-3.522816
-3.605228
-3.675881
-3.734919
-3.782541
-3.818994
-3.844562
-3.859557
-3.864310
-3.859162
-3.844465
-3.820590
-3.787958
-3.747093
-3.698709
-3.643840
-3.583995
-3.521353
-3.458932
-3.400534
-3.352442
-3.302510
-3.000000
-3.000000
-3.000000
-3.000000
0.000000
0.000000
0.000000
0.000000
-0.288267
-0.519888
-0.756748
-0.989339
-1.217621
-1.440533
-1.657166
-1.866658
-2.068209
-2.261088
-2.444632
-2.618254
-2.781445
-2.933774
-3.074886
-3.204508
-3.322439
-3.428559
-3.522816
-3.605228
-3.675881
-3.734919
-3.782541
-3.818994
-3.844562
-3.859557
-3.864310
-3.859162
-3.844465
-3.820590
-3.787958
-3.747093
-3.698709
-3.643840
-3.583995
-3.521353
-3.458932
-3.400534
-3.352442
-3.302510
-3.000000
-3.000000
-3.000000
-3.000000
0.000000
0.000000
0.000000
0.000000
-0.288267
-0.519888
-0.756748
-0.989339
-1.217621
-1.440533
-1.657166
-1.866658
-2.068209
-2.261088
-2.444632
-2.618254
-2.781445
-2.933774
-3.074886
-3.204508
-3.322439
-3.428559
-3.522816
-3.605228
-3.675881
-3.734919
-3.782541
-3.818994
-3.844562
-3.859557
-3.864310
-3.859162
-3.844465
-3.820590
-3.787958
-3.747093
-3.698709
-3.643840
-3.583995
-3.521353
-3.458932
-3.400534
-3.352442
-3.302510
-3.000000
-3.000000
-3.000000
-3.000000
0.000000
0.000000
0.000000
0.000000
-0.290401
-0.523763
-0.762449
-0.996899
-1.227091
-1.451972
-1.670640
-1.882236
-2.085963
-2.281087
-2.466940
-2.642928
-2.808530
-2.963296
-3.106856
-3.238912
-3.359238
-3.467683
-3.564165
-3.648668
-3.721241
-3.781992
-3.831085
-3.868727
-3.895168
-3.910684
-3.915572
-3.910143
-3.894720
-3.869651
-3.835340
-3.792306
-3.741279
-3.683329
-3.620046
-3.553731
-3.487590
-3.425662
-3.374632
-3.321603
0.000000
0.000000
0.000000
0.000000
-0.293402
-0.529238
-0.770557
-1.007748
-1.240830
-1.468778
-1.690717
-1.905810
-2.113273
-2.312382
-2.502473
-2.682945
-2.853262
-3.012953
-3.161612
-3.298899
-3.424537
-3.538310
-3.640065
-3.729706
-3.807195
-3.872546
-3.925822
-3.967133
-3.996623
-4.014465
-4.020857
-4.016010
-4.000157
-3.973566
-3.936582
-3.889691
-3.833635
-3.769561
-3.699224
-3.625202
-3.551122
-3.481568
-3.424132
-3.364273
0.000000
0.000000
0.000000
0.000000
-0.295155
-0.532468
-0.775415
-1.014380
-1.249437
-1.479606
-1.704056
-1.921994
-2.132677
-2.335418
-2.529582
-2.714593
-2.889929
-3.055123
-3.209759
-3.353473
-3.485944
-3.606899
-3.716106
-3.813369
-3.898532
-3.971473
-4.032099
-4.080348
-4.116179
-4.139571
-4.150517
-4.149026
-4.135131
-4.108914
-4.070562
-4.020449
-3.959278
-3.888260
-3.809352
-3.725522
-3.640999
-3.561168
-3.494951
-3.425519
0.000000
0.000000
0.000000
0.000000
-0.295686
-0.533468
-0.776972
-1.016601
-1.252473
-1.483652
-1.709359
-1.928857
-2.141468
-2.346572
-2.543612
-2.732088
-2.911557
-3.081632
-3.241968
-3.392263
-3.532243
-3.661656
-3.780265
-3.887833
-3.984120
-4.068870
-4.141807
-4.202625
-4.250986
-4.286510
-4.308785
-4.317366
-4.311806
-4.291703
-4.256781
-4.207023
-4.142861
-4.065425
-3.976858
-3.880653
-3.781968
-3.687483
-3.608307
-3.524132
0.000000
0.000000
0.000000
0.000000
-0.295717
-0.533531
-0.777077
-1.016768
-1.252727
-1.484035
-1.709928
-1.929695
-2.142688
-2.348332
-2.546126
-2.735644
-2.916539
-3.088541
-3.251451
-3.405142
-3.549546
-3.684645
-3.810459
-3.927023
-4.034363
-4.132467
-4.221243
-4.300473
-4.369765
-4.428499
-4.475781
-4.510421
-4.530937
-4.535627
-4.522705
-4.490558
-4.438101
-4.365256
-4.273528
-4.166606
-4.050899
-3.935365
-3.835457
-3.724574
0.000000
0.000000
0.000000
0.000000
-0.295717
-0.533531
-0.777077
-1.016768
-1.252728
-1.484035
-1.709929
-1.929697
-2.142692
-2.348339
-2.546139
-2.735669
-2.916585
-3.088623
-3.251597
-3.405397
-3.549986
-3.685397
-3.811723
-3.929120
-4.037791
-4.137989
-4.230001
-4.314149
-4.390777
-4.460246
-4.522931
-4.579207
-4.629450
-4.674027
-4.713291
-4.747579
-4.777196
-4.802406
-4.823389
-4.840128
-4.852168
-4.857645
-4.855425
-4.811969
0.000000
0.000000
0.000000
0.000000
-0.295717
-0.533531
-0.777077
-1.016768
-1.252728
-1.484035
-1.709929
-1.929697
-2.142692
-2.348339
-2.546139
-2.735669
-2.916585
-3.088623
-3.251597
-3.405397
-3.549986
-3.685397
-3.811723
-3.929120
-4.037791
-4.137989
-4.230001
-4.314149
-4.390777
-4.460246
-4.522931
-4.579207
-4.629450
-4.674027
-4.713293
-4.747584
-4.777216
-4.802478
-4.823628
-4.840894
-4.854470
-4.864512
-4.871095
-4.875187
0.000000
0.000000
0.000000
0.000000
-0.295717
-0.533531
-0.777077
-1.016768
-1.252728
-1.484035
-1.709929
-1.929697
-2.142692
-2.348339
-2.546139
-2.735669
-2.916585
-3.088623
-3.251597
-3.405397
-3.549986
-3.685397
-3.811723
-3.929120
-4.037791
-4.137989
-4.230001
-4.314149
-4.390777
-4.460246
-4.522931
-4.579207
-4.629450
-4.674027
-4.713293
-4.747584
-4.777216
-4.802478
-4.823628
-4.840894
-4.854470
-4.864512
-4.871095
-4.875187
0.000000
0.000000
0.000000
0.000000
-0.295717
-0.533531
-0.777077
-1.016768
-1.252728
-1.484035
-1.709929
-1.929697
-2.142692
-2.348339
-2.546139
-2.735669
-2.916585
-3.088623
-3.251597
-3.405397
-3.549986
-3.685397
-3.811723
-3.929120
-4.037791
-4.137989
-4.230001
-4.314149
-4.390777
-4.460246
-4.522931
-4.579207
-4.629450
-4.674027
-4.713293
-4.747584
-4.777216
-4.802478
-4.823628
-4.840894
-4.854470
-4.864512
-4.871095
-4.875187
0.000000
0.000000
0.000000
0.000000
-0.295717
-0.533531
-0.777077
-1.016768
-1.252728
-1.484035
-1.709929
-1.929697
-2.142692
-2.348339
-2.546139
-2.735669
-2.916585
-3.088623
-3.251597
-3.405397
-3.549986
-3.685397
-3.811723
-3.929120
-4.037791
-4.137989
-4.230001
-4.314149
-4.390777
-4.460246
-4.522931
-4.579207
-4.629450
-4.674027
-4.713293
-4.747584
-4.777216
-4.802478
-4.823628
-4.840894
-4.854470
-4.864512
-4.871095
-4.875187
0.000000
0.000000
0.000000
0.000000
-0.295717
-0.533531
-0.777077
-1.016768
-1.252728
-1.484035
-1.709929
-1.929697
-2.142692
-2.348339
-2.546139
-2.735669
-2.916585
-3.088623
-3.251597
-3.405397
-3.549986
-3.685397
-3.811723
-3.929120
-4.037791
-4.137989
-4.230001
-4.314149
-4.390777
-4.460246
-4.522931
-4.579207
-4.629450
-4.674027
-4.713293
-4.747584
-4.777216
-4.802478
-4.823628
-4.840894
-4.854470
-4.864512
-4.871095
-4.875187
0.000000
0.000000
0.000000
0.000000
-0.295717
-0.533531
-0.777077
-1.016768
-1.252728
-1.484035
-1.709929
-1.929697
-2.142692
-2.348339
-2.546139
-2.735669
-2.916585
-3.088623
-3.251597
-3.405397
-3.549986
-3.685397
-3.811723
-3.929120
-4.037791
-4.137989
-4.230001
-4.314149
-4.390777
-4.460246
-4.522931
-4.579207
-4.629450
-4.674027
-4.713293
-4.747584
-4.777216
-4.802478
-4.823628
-4.840894
-4.854470
-4.864512
-4.871095
-4.875187
0.000000
0.000000
0.000000
0.000000
-0.295717
-0.533531
-0.777077
-1.016768
-1.252728
-1.484035
-1.709929
-1.929697
-2.142692
-2.348339
-2.546139
-2.735669
-2.916585
-3.088623
-3.251597
-3.405397
-3.549986
-3.685397
-3.811723
-3.929120
-4.037791
-4.137989
-4.230001
-4.314149
-4.390777
-4.460246
-4.522931
-4.579207
-4.629450
-4.674027
-4.713293
-4.747584
-4.777216
-4.802478
-4.823628
-4.840894
-4.854470
-4.864512
-4.871095
-4.875187
0.000000
0.000000
0.000000
0.000000
-0.295717
-0.533531
-0.777077
-1.016768
-1.252728
-1.484035
-1.709929
-1.929697
-2.142692
-2.348339
-2.546139
-2.735669
-2.916585
-3.088623
-3.251597
-3.405397
-3.549986
-3.685397
-3.811723
-3.929120
-4.037791
-4.137989
-4.230001
-4.314149
-4.390777
-4.460246
-4.522931
-4.579207
-4.629450
-4.674027
-4.713293
-4.747584
-4.777216
-4.802478
-4.823628
-4.840894
-4.854470
-4.864512
-4.871095
-4.875187
0.000000
0.000000
0.000000
0.000000
-0.295717
-0.533531
-0.777077
-1.016768
-1.252728
-1.484035
-1.709929
-1.929697
-2.142692
-2.348339
-2.546139
-2.735669
-2.916585
-3.088623
-3.251597
-3.405397
-3.549986
-3.685397
-3.811723
-3.929120
-4.037791
-4.137989
-4.230001
-4.314149
-4.390777
-4.460246
-4.522931
-4.579207
-4.629450
-4.674027
-4.713293
-4.747584
-4.777216
-4.802478
-4.823628
-4.840894
-4.854470
-4.864512
-4.871095
-4.875187
0.000000
0.000000
0.000000
0.000000
-0.295717
-0.533531
-0.777077
-1.016768
-1.252728
-1.484035
-1.709929
-1.929697
-2.142692
-2.348339
-2.546139
-2.735669
-2.916585
-3.088623
-3.251597
-3.405397
-3.549986
-3.685397
-3.811723
-3.929120
-4.037791
-4.137989
-4.230001
-4.314149
-4.390777
-4.460246
-4.522931
-4.579207
-4.629450
-4.674027
-4.713293
-4.747584
-4.777216
-4.802478
-4.823628
-4.840894
-4.854470
-4.864512
-4.871095
-4.875187
0.000000
0.000000
0.000000
0.000000
-0.295717
-0.533531
-0.777077
-1.016768
-1.252728
-1.484035
-1.709929
-1.929697
-2.142692
-2.348339
-2.546139
-2.735669
-2.916585
-3.088623
-3.251597
-3.405397
-3.549986
-3.685397
-3.811723
-3.929120
-4.037791
-4.137989
-4.230001
-4.314149
-4.390777
-4.460246
-4.522931
-4.579207
-4.629450
-4.674027
-4.713293
-4.747584
-4.777216
-4.802478
-4.823628
-4.840894
-4.854470
-4.864512
-4.871095
-4.875187
0.000000
0.000000
0.000000
0.000000
-0.295717
-0.533531
-0.777077
-1.016768
-1.252728
-1.484035
-1.709929
-1.929697
-2.142692
-2.348339
-2.546139
-2.735669
-2.916585
-3.088623
-3.251597
-3.405397
-3.549986
-3.685397
-3.811723
-3.929120
-4.037791
-4.137989
-4.230001
-4.314149
-4.390777
-4.460246
-4.522931
-4.579207
-4.629450
-4.674027
-4.713293
-4.747584
-4.777216
-4.802478
-4.823628
-4.840894
-4.854470
-4.864512
-4.871095
-4.875187
0.000000
0.000000
0.000000
0.000000
-0.295717
-0.533531
-0.777077
-1.016768
-1.252728
-1.484035
-1.709929
-1.929697
-2.142692
-2.348339
-2.546139
-2.735669
-2.916585
-3.088623
-3.251597
-3.405397
-3.549986
-3.685397
-3.811723
-3.929120
-4.037791
-4.137989
-4.230001
-4.314149
-4.390777
-4.460246
-4.522931
-4.579207
-4.629450
-4.674027
-4.713293
-4.747584
-4.777216
-4.802478
-4.823628
-4.840894
-4.854470
-4.864512
-4.871095
-4.875187
0.000000
0.000000
0.000000
0.000000
-0.295717
-0.533531
-0.777077
-1.016768
-1.252728
-1.484035
-1.709929
-1.929697
-2.142692
-2.348339
-2.546139
-2.735669
-2.916585
-3.088623
-3.251597
-3.405397
-3.549986
-3.685397
-3.811723
-3.929120
-4.037791
-4.137989
-4.230001
-4.314149
-4.390777
-4.460246
-4.522931
-4.579207
-4.629450
-4.674027
-4.713293
-4.747584
-4.777216
-4.802478
-4.823628
-4.840894
-4.854470
-4.864512
-4.871095
-4.875187
0.000000
0.000000
0.000000
0.000000
-0.295717
-0.533531
-0.777077
-1.016768
-1.252728
-1.484035
-1.709929
-1.929697
-2.142692
-2.348339
-2.546139
-2.735669
-2.916585
-3.088623
-3.251597
-3.405397
-3.549986
-3.685397
-3.811723
-3.929120
-4.037791
-4.137989
-4.230001
-4.314149
-4.390777
-4.460246
-4.522931
-4.579207
-4.629450
-4.674027
-4.713293
-4.747584
-4.777216
-4.802478
-4.823628
-4.840894
-4.854470
-4.864512
-4.871095
-4.875187
0.000000
0.000000
0.000000
0.000000
-0.295717
-0.533531
-0.777077
-1.016768
-1.252728
-1.484035
-1.709929
-1.929697
-2.142692
-2.348339
-2.546139
-2.735669
-2.916585
-3.088623
-3.251597
-3.405397
-3.549986
-3.685397
-3.811723
-3.929120
-4.037791
-4.137989
-4.230001
-4.314149
-4.390777
-4.460246
-4.522931
-4.579207
-4.629450
-4.674027
-4.713293
-4.747584
-4.777216
-4.802478
-4.823628
-4.840894
-4.854470
-4.864512
-4.871095
-4.875187
0.000000
0.000000
0.000000
0.000000
-0.295717
-0.533531
-0.777077
-1.016768
-1.252728
-1.484035
-1.709929
-1.929697
-2.142692
-2.348339
-2.546139
-2.735669
-2.916585
-3.088623
-3.251597
-3.405397
-3.549986
-3.685397
-3.811723
-3.929120
-4.037791
-4.137989
-4.230001
-4.314149
-4.390777
-4.460246
-4.522931
-4.579207
-4.629450
-4.674027
-4.713293
-4.747584
-4.777216
-4.802478
-4.823628
-4.840894
-4.854470
-4.864512
-4.871095
-4.875187
0.000000
0.000000
0.000000
0.000000
-0.295717
-0.533531
-0.777077
-1.016768
-1.252728
-1.484035
-1.709929
-1.929697
-2.142692
-2.348339
-2.546139
-2.735669
-2.916585
-3.088623
-3.251597
-3.405397
-3.549986
-3.685397
-3.811723
-3.929120
-4.037791
-4.137989
-4.230001
-4.314149
-4.390777
-4.460246
-4.522931
-4.579207
-4.629450
-4.674027
-4.713293
-4.747584
-4.777216
-4.802478
-4.823628
-4.840894
-4.854470
-4.864512
-4.871095
-4.875187
0.000000
0.000000
0.000000
0.000000
-0.295717
-0.533531
-0.777077
-1.016768
-1.252728
-1.484035
-1.709929
-1.929697
-2.142692
-2.348339
-2.546139
-2.735669
-2.916585
-3.088623
-3.251597
-3.405397
-3.549986
-3.685397
-3.811723
-3.929120
-4.037791
-4.137989
-4.230001
-4.314149
-4.390777
-4.460246
-4.522931
-4.579207
-4.629450
-4.674027
-4.713293
-4.747584
-4.777216
-4.802478
-4.823628
-4.840894
-4.854470