<?xml version='1.0' encoding='UTF-8'?>
<VTKFile xmlns='VTK' byte_order='LittleEndian' version='0.1' type='UnstructuredGrid'>
<UnstructuredGrid>
<Piece NumberOfCells='1888' NumberOfPoints='1888'>
<Points>
<DataArray NumberOfComponents='3' type='Float32' Name='Position' format='ascii'>
-0.040000 -0.030000 0.000000
-0.040000 -0.020000 0.000000
-0.040000 -0.010000 0.000000
-0.040000 0.000000 0.000000
-0.040000 0.010000 0.000000
-0.040000 0.020000 0.000000
-0.040000 0.030000 0.000000
-0.040000 0.040000 0.000000
-0.040000 0.050000 0.000000
-0.040000 0.060000 0.000000
-0.040000 0.070000 0.000000
-0.040000 0.080000 0.000000
-0.040000 0.090000 0.000000
-0.040000 0.100000 0.000000
-0.040000 0.110000 0.000000
-0.040000 0.120000 0.000000
-0.040000 0.130000 0.000000
-0.040000 0.140000 0.000000
-0.040000 0.150000 0.000000
-0.040000 0.160000 0.000000
-0.040000 0.170000 0.000000
-0.040000 0.180000 0.000000
-0.040000 0.190000 0.000000
-0.040000 0.200000 0.000000
-0.040000 0.210000 0.000000
-0.040000 0.220000 0.000000
-0.040000 0.230000 0.000000
-0.040000 0.240000 0.000000
-0.040000 0.250000 0.000000
-0.040000 0.260000 0.000000
-0.040000 0.270000 0.000000
-0.040000 0.280000 0.000000
-0.040000 0.290000 0.000000
-0.040000 0.300000 0.000000
-0.040000 0.310000 0.000000
-0.040000 0.320000 0.000000
-0.040000 0.330000 0.000000
-0.040000 0.340000 0.000000
-0.040000 0.350000 0.000000
-0.040000 0.360000 0.000000
-0.040000 0.370000 0.000000
-0.040000 0.380000 0.000000
-0.040000 0.390000 0.000000
-0.040000 0.400000 0.000000
0.010000 -0.030000 0.000000
0.010000 -0.020000 0.000000
0.010000 -0.010000 0.000000
0.010000 0.000000 0.000000
0.010000 0.010000 0.000000
0.010000 0.020000 0.000000
0.010000 0.030000 0.000000
0.010000 0.040000 0.000000
0.010000 0.050000 0.000000
0.010000 0.060000 0.000000
0.010000 0.070000 0.000000
0.010000 0.080000 0.000000
0.010000 0.090000 0.000000
0.010000 0.100000 0.000000
0.010000 0.110000 0.000000
0.010000 0.120000 0.000000
0.010000 0.130000 0.000000
0.010000 0.140000 0.000000
0.010000 0.150000 0.000000
0.010000 0.160000 0.000000
0.010000 0.170000 0.000000
0.010000 0.180000 0.000000
0.010000 0.190000 0.000000
0.010000 0.200000 0.000000
0.010000 0.210000 0.000000
0.010000 0.220000 0.000000
0.010000 0.230000 0.000000
0.010000 0.240000 0.000000
0.010000 0.250000 0.000000
0.010000 0.260000 0.000000
0.010000 0.270000 0.000000
0.010000 0.280000 0.000000
0.010000 0.290000 0.000000
0.010000 0.300000 0.000000
0.010000 0.310000 0.000000
0.010000 0.320000 0.000000
0.010000 0.330000 0.000000
0.010000 0.340000 0.000000
0.010000 0.350000 0.000000
0.010000 0.360000 0.000000
0.010000 0.370000 0.000000
0.010000 0.380000 0.000000
0.010000 0.390000 0.000000
0.010000 0.400000 0.000000
0.350000 0.410000 0.000000
0.350000 0.420000 0.000000
0.350000 0.430000 0.000000
0.350000 0.440000 0.000000
0.060000 -0.030000 0.000000
0.060000 -0.020000 0.000000
0.060000 -0.010000 0.000000
0.060000 0.000000 0.000000
0.060000 0.010000 0.000000
0.060000 0.020000 0.000000
0.060000 0.030000 0.000000
0.060000 0.040000 0.000000
0.060000 0.050000 0.000000
0.060000 0.060000 0.000000
0.060000 0.070000 0.000000
0.060000 0.080000 0.000000
0.060000 0.090000 0.000000
0.060000 0.100000 0.000000
0.060000 0.110000 0.000000
0.060000 0.120000 0.000000
0.060000 0.130000 0.000000
0.060000 0.140000 0.000000
0.060000 0.150000 0.000000
0.060000 0.160000 0.000000
0.060000 0.170000 0.000000
0.060000 0.180000 0.000000
0.060000 0.190000 0.000000
0.060000 0.200000 0.000000
0.060000 0.210000 0.000000
0.060000 0.220000 0.000000
0.060000 0.230000 0.000000
0.060000 0.240000 0.000000
0.060000 0.250000 0.000000
0.060000 0.260000 0.000000
0.060000 0.270000 0.000000
0.060000 0.280000 0.000000
0.060000 0.290000 0.000000
0.060000 0.300000 0.000000
0.060000 0.310000 0.000000
0.060000 0.320000 0.000000
0.060000 0.330000 0.000000
0.060000 0.340000 0.000000
0.060000 0.350000 0.000000
0.060000 0.360000 0.000000
0.060000 0.370000 0.000000
0.060000 0.380000 0.000000
0.060000 0.390000 0.000000
0.060000 0.400000 0.000000
0.400000 0.410000 0.000000
0.400000 0.420000 0.000000
0.400000 0.430000 0.000000
0.400000 0.440000 0.000000
0.110000 -0.030000 0.000000
0.110000 -0.020000 0.000000
0.110000 -0.010000 0.000000
0.110000 0.000000 0.000000
0.110000 0.010000 0.000000
0.110000 0.020000 0.000000
0.110000 0.030000 0.000000
0.110000 0.040000 0.000000
0.110000 0.050000 0.000000
0.110000 0.060000 0.000000
0.110000 0.070000 0.000000
0.110000 0.080000 0.000000
0.110000 0.090000 0.000000
0.110000 0.100000 0.000000
0.110000 0.110000 0.000000
0.110000 0.120000 0.000000
0.110000 0.130000 0.000000
0.110000 0.140000 0.000000
0.110000 0.150000 0.000000
0.110000 0.160000 0.000000
0.110000 0.170000 0.000000
0.110000 0.180000 0.000000
0.110000 0.190000 0.000000
0.110000 0.200000 0.000000
0.110000 0.210000 0.000000
0.110000 0.220000 0.000000
0.110000 0.230000 0.000000
0.110000 0.240000 0.000000
0.110000 0.250000 0.000000
0.110000 0.260000 0.000000
0.110000 0.270000 0.000000
0.110000 0.280000 0.000000
0.110000 0.290000 0.000000
0.110000 0.300000 0.000000
0.110000 0.310000 0.000000
0.110000 0.320000 0.000000
0.110000 0.330000 0.000000
0.110000 0.340000 0.000000
0.110000 0.350000 0.000000
0.110000 0.360000 0.000000
0.110000 0.370000 0.000000
0.110000 0.380000 0.000000
0.110000 0.390000 0.000000
0.110000 0.400000 0.000000
0.450000 0.410000 0.000000
0.450000 0.420000 0.000000
0.450000 0.430000 0.000000
0.450000 0.440000 0.000000
0.160000 -0.030000 0.000000
0.160000 -0.020000 0.000000
0.160000 -0.010000 0.000000
0.160000 0.000000 0.000000
0.160000 0.010000 0.000000
0.160000 0.020000 0.000000
0.160000 0.030000 0.000000
0.160000 0.040000 0.000000
0.160000 0.050000 0.000000
0.160000 0.060000 0.000000
0.160000 0.070000 0.000000
0.160000 0.080000 0.000000
0.160000 0.090000 0.000000
0.160000 0.100000 0.000000
0.160000 0.110000 0.000000
0.160000 0.120000 0.000000
0.160000 0.130000 0.000000
0.160000 0.140000 0.000000
0.160000 0.150000 0.000000
0.160000 0.160000 0.000000
0.160000 0.170000 0.000000
0.160000 0.180000 0.000000
0.160000 0.190000 0.000000
0.160000 0.200000 0.000000
0.160000 0.210000 0.000000
0.160000 0.220000 0.000000
0.160000 0.230000 0.000000
0.160000 0.240000 0.000000
0.160000 0.250000 0.000000
0.160000 0.260000 0.000000
0.160000 0.270000 0.000000
0.160000 0.280000 0.000000
0.160000 0.290000 0.000000
0.160000 0.300000 0.000000
0.160000 0.310000 0.000000
0.160000 0.320000 0.000000
0.160000 0.330000 0.000000
0.160000 0.340000 0.000000
0.160000 0.350000 0.000000
0.160000 0.360000 0.000000
0.160000 0.370000 0.000000
0.160000 0.380000 0.000000
0.160000 0.390000 0.000000
0.160000 0.400000 0.000000
0.500000 0.410000 0.000000
0.500000 0.420000 0.000000
0.500000 0.430000 0.000000
0.500000 0.440000 0.000000
0.210000 -0.030000 0.000000
0.210000 -0.020000 0.000000
0.210000 -0.010000 0.000000
0.210000 0.000000 0.000000
0.210000 0.010000 0.000000
0.210000 0.020000 0.000000
0.210000 0.030000 0.000000
0.210000 0.040000 0.000000
0.210000 0.050000 0.000000
0.210000 0.060000 0.000000
0.210000 0.070000 0.000000
0.210000 0.080000 0.000000
0.210000 0.090000 0.000000
0.210000 0.100000 0.000000
0.210000 0.110000 0.000000
0.210000 0.120000 0.000000
0.210000 0.130000 0.000000
0.210000 0.140000 0.000000
0.210000 0.150000 0.000000
0.210000 0.160000 0.000000
0.210000 0.170000 0.000000
0.210000 0.180000 0.000000
0.210000 0.190000 0.000000
0.210000 0.200000 0.000000
0.210000 0.210000 0.000000
0.210000 0.220000 0.000000
0.210000 0.230000 0.000000
0.210000 0.240000 0.000000
0.210000 0.250000 0.000000
0.210000 0.260000 0.000000
0.210000 0.270000 0.000000
0.210000 0.280000 0.000000
0.210000 0.290000 0.000000
0.210000 0.300000 0.000000
0.210000 0.310000 0.000000
0.210000 0.320000 0.000000
0.210000 0.330000 0.000000
0.210000 0.340000 0.000000
0.210000 0.350000 0.000000
0.210000 0.360000 0.000000
0.210000 0.370000 0.000000
0.210000 0.380000 0.000000
0.210000 0.390000 0.000000
0.210000 0.400000 0.000000
0.550000 0.410000 0.000000
0.550000 0.420000 0.000000
0.550000 0.430000 0.000000
0.550000 0.440000 0.000000
0.260000 -0.030000 0.000000
0.260000 -0.020000 0.000000
0.260000 -0.010000 0.000000
0.260000 0.000000 0.000000
0.260000 0.010000 0.000000
0.260000 0.020000 0.000000
0.260000 0.030000 0.000000
0.260000 0.040000 0.000000
0.260000 0.050000 0.000000
0.260000 0.060000 0.000000
0.260000 0.070000 0.000000
0.260000 0.080000 0.000000
0.260000 0.090000 0.000000
0.260000 0.100000 0.000000
0.260000 0.110000 0.000000
0.260000 0.120000 0.000000
0.260000 0.130000 0.000000
0.260000 0.140000 0.000000
0.260000 0.150000 0.000000
0.260000 0.160000 0.000000
0.260000 0.170000 0.000000
0.260000 0.180000 0.000000
0.260000 0.190000 0.000000
0.260000 0.200000 0.000000
0.260000 0.210000 0.000000
0.260000 0.220000 0.000000
0.260000 0.230000 0.000000
0.260000 0.240000 0.000000
0.260000 0.250000 0.000000
0.260000 0.260000 0.000000
0.260000 0.270000 0.000000
0.260000 0.280000 0.000000
0.260000 0.290000 0.000000
0.260000 0.300000 0.000000
0.260000 0.310000 0.000000
0.260000 0.320000 0.000000
0.260000 0.330000 0.000000
0.260000 0.340000 0.000000
0.260000 0.350000 0.000000
0.260000 0.360000 0.000000
0.260000 0.370000 0.000000
0.260000 0.380000 0.000000
0.260000 0.390000 0.000000
0.260000 0.400000 0.000000
0.600000 0.410000 0.000000
0.600000 0.420000 0.000000
0.600000 0.430000 0.000000
0.600000 0.440000 0.000000
0.310000 -0.030000 0.000000
0.310000 -0.020000 0.000000
0.310000 -0.010000 0.000000
0.310000 0.000000 0.000000
0.310000 0.010000 0.000000
0.310000 0.020000 0.000000
0.310000 0.030000 0.000000
0.310000 0.040000 0.000000
0.310000 0.050000 0.000000
0.310000 0.060000 0.000000
0.310000 0.070000 0.000000
0.310000 0.080000 0.000000
0.310000 0.090000 0.000000
0.310000 0.100000 0.000000
0.310000 0.110000 0.000000
0.310000 0.120000 0.000000
0.310000 0.130000 0.000000
0.310000 0.140000 0.000000
0.310000 0.150000 0.000000
0.310000 0.160000 0.000000
0.310000 0.170000 0.000000
0.310000 0.180000 0.000000
0.310000 0.190000 0.000000
0.310000 0.200000 0.000000
0.310000 0.210000 0.000000
[...]
<PointData>
<DataArray NumberOfComponents='1' type='Int32' Name='ParticleType' format='ascii'>
4
4
4
4
4
4
4
4
4
4
4
4
4
4
4
4
4
4
4
4
4
4
4
4
4
4
4
4
4
4
4
4
4
4
4
4
4
4
4
4
4
4
4
4
4
4
3
3
2
2
2
2
2
2
2
2
2
2
2
2
2
2
2
2
2
2
2
2
2
2
2
2
2
2
2
2
2
2
2
2
2
2
2
2
2
2
2
2
5
5
5
5
4
4
3
3
2
2
2
2
2
2
2
2
2
2
2
2
2
2
2
2
2
2
2
2
2
2
2
2
2
2
2
2
2
2
2
2
2
2
2
2
2
2
2
2
5
5
5
5
4
4
3
3
2
2
2
2
2
2
2
2
2
2
2
2
2
2
2
2
2
2
2
2
2
2
2
2
2
2
2
2
2
2
2
2
2
2
2
2
2
2
2
2
5
5
5
5
4
4
3
3
2
2
2
2
2
2
2
2
2
2
2
2
2
2
2
2
2
2
2
2
2
2
2
2
2
2
2
2
2
2
2
2
2
2
2
2
2
2
2
2
5
5
5
5
4
4
3
3
2
2
2
2
2
2
2
2
2
2
2
2
2
2
2
2
2
2
2
2
2
2
2
2
2
2
2
2
2
2
2
2
2
2
2
2
2
2
2
2
5
5
5
5
4
4
3
3
2
2
2
2
2
2
2
2
2
2
2
2
2
2
2
2
2
2
2
2
2
2
2
2
2
2
2
2
2
2
2
2
2
2
2
2
2
2
2
2
5
5
5
5
4
4
3
3
2
2
2
2
2
2
2
2
2
2
2
2
2
2
2
2
2
2
2
2
2
2
2
2
2
2
2
2
2
2
2
2
2
2
2
2
2
2
2
2
5
5
5
5
4
4
3
3
2
2
2
2
2
2
2
2
2
2
2
2
2
2
2
2
2
2
2
2
2
2
2
2
2
2
2
2
2
2
2
2
2
2
2
2
2
2
2
2
5
5
5
5
4
4
3
3
2
2
2
2
2
2
2
2
2
2
2
2
2
2
2
2
2
2
2
2
2
2
2
2
2
2
2
2
2
2
2
2
2
2
2
2
2
2
2
2
5
5
5
5
4
4
3
3
2
2
2
2
2
2
2
2
2
2
2
2
2
2
2
2
2
2
2
2
2
2
2
2
2
2
2
2
2
2
2
2
2
2
2
2
2
2
2
2
5
5
5
5
4
4
3
3
2
2
2
2
2
2
2
2
2
2
2
2
2
2
2
2
2
2
2
2
2
2
2
2
2
2
2
2
2
2
2
2
2
2
2
2
2
2
2
2
4
4
3
3
2
2
2
2
2
2
2
2
2
2
2
2
2
2
2
2
2
2
2
2
2
2
2
2
2
2
2
2
2
2
2
2
2
2
2
2
2
2
2
2
4
4
3
3
2
2
2
2
2
2
2
2
2
2
2
2
2
2
2
2
2
2
2
2
2
2
2
2
2
2
2
2
2
2
2
2
2
2
2
2
2
2
2
2
4
4
3
3
2
2
2
2
2
2
2
2
2
2
2
2
2
2
2
2
2
2
2
2
2
2
2
2
2
2
2
2
2
2
2
2
2
2
2
2
2
2
2
2
4
4
3
3
2
2
2
2
2
2
2
2
2
2
2
2
2
2
2
2
2
2
2
2
2
2
2
2
2
2
2
2
2
2
2
2
2
2
2
2
2
2
2
2
4
4
3
3
2
2
2
2
2
2
2
2
2
2
2
2
2
2
2
2
2
2
2
2
2
2
2
2
2
2
2
2
2
2
2
2
2
2
2
2
2
2
2
2
4
4
3
3
2
2
2
2
2
2
2
2
2
2
2
2
2
2
2
2
2
2
2
2
2
2
2
2
2
2
2
2
2
2
2
2
2
2
2
2
2
2
2
2
4
4
3
3
2
2
2
2
2
2
2
2
2
2
2
2
2
2
2
2
2
2
2
2
2
2
2
2
2
2
2
2
2
2
2
2
2
2
2
2
2
2
2
2
4
4
3
3
2
2
2
2
2
2
2
2
2
2
2
2
2
2
2
2
2
2
2
2
2
2
2
2
2
2
2
2
2
2
2
2
2
2
2
2
2
2
2
2
4
4
3
3
2
2
2
2
2
2
2
2
2
2
2
2
2
2
2
2
2
2
2
2
2
2
2
2
2
2
2
2
2
2
2
2
2
2
2
2
2
2
2
2
4
4
3
3
2
2
2
2
2
2
2
2
2
2
2
2
2
2
2
2
2
2
2
2
2
2
2
2
2
2
2
2
2
2
2
2
2
2
2
2
2
2
2
2
4
4
3
3
2
2
2
2
2
2
2
2
2
2
2
2
2
2
2
2
2
2
2
2
2
2
2
2
2
2
2
2
2
2
2
2
2
2
2
2
2
2
2
2
4
4
3
3
2
2
2
2
2
2
2
2
2
2
2
2
2
2
2
2
2
2
2
2
2
2
2
2
2
2
2
2
2
2
2
2
2
2
2
2
2
2
2
2
4
4
3
3
2
2
2
2
2
2
2
2
2
2
2
2
2
2
2
2
2
2
2
2
2
2
2
2
2
2
2
2
2
2
2
2
2
2
2
2
2
2
2
2
4
4
3
3
2
2
2
2
2
2
2
2
2
2
2
2
2
2
2
2
2
2
2
2
2
2
2
2
2
2
2
2
2
2
2
2
2
2
2
2
2
2
2
2
4
4
3
3
2
2
2
2
2
2
2
2
2
2
2
2
2
2
2
2
2
2
2
2
2
2
2
2
2
2
2
2
2
2
2
2
2
2
2
2
2
2
2
2
4
4
3
3
2
2
2
2
2
2
2
2
2
2
2
2
2
2
2
2
2
2
2
2
2
2
2
2
2
2
2
2
2
2
2
2
2
2
2
2
2
2
2
2
4
4
3
3
2
2
2
2
2
2
2
2
2
2
2
2
2
2
2
2
2
2
2
2
2
2
2
2
2
2
2
2
2
2
2
2
2
2
2
2
2
2
2
2
4
4
3
3
2
2
2
2
2
2
2
2
2
2
2
2
2
2
2
2
2
2
2
2
2
2
2
2
2
2
2
2
2
2
2
2
2
2
2
2
2
2
2
2
4
4
3
3
2
2
2
2
2
2
2
2
2
2
2
2
2
2
2
2
2
2
2
2
2
2
2
2
2
2
2
2
2
2
2
2
2
2
2
2
2
2
2
2
4
4
3
3
2
2
2
2
2
2
2
2
2
2
2
2
2
2
2
2
2
2
2
2
2
2
2
2
2
2
2
2
2
2
2
2
2
2
2
2
2
2
2
2
4
4
3
3
2
2
2
2
2
2
2
2
2
2
2
2
2
2
2
2
2
2
2
2
2
2
2
2
2
2
2
2
2
2
2
2
2
2
2
2
2
2
2
2
4
4
3
3
2
2
2
2
2
2
2
2
2
2
2
2
2
2
2
2
2
2
2
2
2
2
2
2
2
2
2
2
2
2
2
2
2
2
2
2
2
2
2
2
4
4
3
3
2
2
2
2
2
2
2
2
2
2
2
2
2
2
2
2
2
2
2
2
2
2
2
2
2
2
2
2
2
2
2
2
2
2
2
2
2
2
2
2
4
4
3
3
2
2
2
2
2
2
2
2
2
2
2
2
2
2
2
2
2
2
2
2
2
2
2
2
2
2
2
2
2
2
2
2
2
2
2
2
2
2
2
2
4
4
3
3
2
2
2
2
2
2
2
2
2
2
2
2
2
2
2
2
2
2
2
2
2
2
2
2
2
2
2
2
2
2
2
2
2
2
2
2
2
2
2
2
4
4
3
3
2
2
2
2
2
2
2
2
2
2
2
2
2
2
2
2
2
2
2
2
2
2
2
2
2
2
2
2
2
2
2
2
2
2
2
2
2
2
2
2
4
4
3
3
2
2
2
2
2
2
2
2
2
2
2
2
2
2
2
2
2
2
2
2
2
2
2
2
2
2
2
2
2
2
2
2
2
2
2
2
2
2
2
2
4
4
3
3
2
2
2
2
2
2
2
2
2
2
2
2
2
2
2
2
2
2
2
2
2
2
2
2
2
2
2
2
2
2
2
2
2
2
2
2
2
2
2
2
4
4
3
3
2
2
2
2
2
2
2
2
2
2
2
2
2
2
2
2
2
2
2
2
2
2
2
2
2
2
2
2
2
2
2
2
2
2
2
2
2
2
2
2
4
4
3
3
3
3
3
3
3
3
3
3
3
3
3
3
3
3
3
3
3
3
3
3
3
3
3
3
3
3
3
3
3
3
3
3
3
3
3
3
3
3
3
3
</DataArray>
<DataArray NumberOfComponents='1' type='Float32' Name='Temperature' format='ascii'>
0.000000
0.000000
0.000000
0.000000
0.000000
0.000000
0.000000
0.000000
0.000000
0.000000
0.000000
0.000000
0.000000
0.000000
0.000000
0.000000
0.000000
0.000000
0.000000
0.000000
0.000000
0.000000
0.000000
0.000000
0.000000
0.000000
0.000000
0.000000
0.000000
0.000000
0.000000
0.000000
0.000000
0.000000
0.000000
0.000000
0.000000
0.000000
0.000000
0.000000
0.000000
0.000000
0.000000
0.000000
0.000000
0.000000
0.000000
0.000000
-0.261716
-0.472335
-0.688277
-0.901165
-1.111206
-1.317671
-1.519959
-1.717499
-1.909763
-2.096269
-2.276585
-2.450331
-2.617182
-2.776866
-2.929169
-3.073930
-3.211045
-3.340458
-3.462166
-3.576213
-3.682685
-3.781710
-3.873447
-3.958092
-4.035861
-4.106996
-4.171751
-4.230393
-4.283195
-4.330429
-4.372365
-4.409262
-4.441369
-4.468916
-4.492113
-4.511145
-4.526174
-4.537327
-4.544657
-4.549222
-3.000000
-3.000000
-3.000000
-3.000000
0.000000
0.000000
0.000000
0.000000
-0.257365
-0.464418
-0.676597
-0.885613
-1.091623
-1.293868
-1.491713
-1.684559
-1.871853
-2.053089
-2.227819
-2.395647
-2.556240
-2.709323
-2.854684
-2.992169
-3.121688
-3.243207
-3.356748
-3.462389
-3.560255
-3.650519
-3.733395
-3.809130
-3.878006
-3.940328
-3.996418
-4.046616
-4.091265
-4.130710
-4.165292
-4.195342
-4.221173
-4.243078
-4.261324
-4.276149
-4.287756
-4.296310
-4.301904
-4.305373
-3.000000
-3.000000
-3.000000
-3.000000
0.000000
0.000000
0.000000
0.000000
-0.255104
-0.460286
-0.670460
-0.877370
-1.081133
-1.280957
-1.476178
-1.666168
-1.850344
-2.028177
-2.199194
-2.362981
-2.519189
-2.667531
-2.807786
-2.939801
-3.063488
-3.178823
-3.285846
-3.384658
-3.475415
-3.558327
-3.633653
-3.701692
-3.762783
-3.817294
-3.865618
-3.908165
-3.945354
-3.977609
-4.005347
-4.028975
-4.048881
-4.065430
-4.078952
-4.089744
-4.098061
-4.104109
-4.108024
-4.110432
-3.000000
-3.000000
-3.000000
-3.000000
0.000000
0.000000
0.000000
0.000000
-0.254068
-0.458377
-0.667589
-0.873450
-1.076045
-1.274552
-1.468278
-1.656563
-1.838795
-2.014414
-2.182916
-2.343860
-2.496867
-2.641627
-2.777898
-2.905508
-3.024357
-3.134418
-3.235729
-3.328402
-3.412612
-3.488595
-3.556649
-3.617121
-3.670408
-3.716946
-3.757205
-3.791681
-3.820884
-3.845335
-3.865553
-3.882047
-3.895305
-3.905789
-3.913922
-3.920083
-3.924601
-3.927744
-3.929708
-3.930880
-3.000000
-3.000000
-3.000000
-3.000000
0.000000
0.000000
0.000000
0.000000
-0.253774
-0.457826
-0.666739
-0.872250
-1.074423
-1.272418
-1.465516
-1.653033
-1.834326
-2.008805
-2.175931
-2.335224
-2.486267
-2.628707
-2.762259
-2.886712
-3.001926
-3.107835
-3.204450
-3.291857
-3.370219
-3.439773
-3.500825
-3.553755
-3.599003
-3.637070
-3.668506
-3.693909
-3.713906
-3.729151
-3.740306
-3.748033
-3.752980
-3.755765
-3.756965
-3.757103
-3.756634
-3.755935
-3.755305
-3.754826
-3.000000
-3.000000
-3.000000
-3.000000
0.000000
0.000000
0.000000
0.000000
-0.253750
-0.457778
-0.666660
-0.872129
-1.074246
-1.272161
-1.465148
-1.652512
-1.833597
-2.007792
-2.174537
-2.333323
-2.483697
-2.625264
-2.757691
-2.880707
-2.994105
-3.097749
-3.191569
-3.275569
-3.349829
-3.414506
-3.469839
-3.516148
-3.553842
-3.583416
-3.605451
-3.620613
-3.629646
-3.633365
-3.632642
-3.628391
-3.621545
-3.613036
-3.603767
-3.594579
-3.586230
-3.579363
-3.574521
-3.571337
-3.000000
-3.000000
-3.000000
-3.000000
0.000000
0.000000
0.000000
0.000000
-0.253750
-0.457778
-0.666660
-0.872129
-1.074245
-1.272159
-1.465146
-1.652508
-1.833589
-2.007778
-2.174513
-2.333282
-2.483629
-2.625152
-2.757509
-2.880415
-2.993643
-3.097025
-3.190450
-3.273862
-3.347261
-3.410694
-3.464259
-3.508101
-3.542409
-3.567421
-3.583430
-3.590793
-3.589952
-3.581465
-3.566037
-3.544570
-3.518207
-3.488370
-3.456775
-3.425417
-3.396478
-3.372180
-3.354714
-3.343005
-3.000000
-3.000000
-3.000000
-3.000000
0.000000
0.000000
0.000000
0.000000
-0.253750
-0.457778
-0.666660
-0.872129
-1.074245
-1.272159
-1.465146
-1.652508
-1.833589
-2.007778
-2.174513
-2.333282
-2.483629
-2.625152
-2.757509
-2.880415
-2.993643
-3.097025
-3.190450
-3.273862
-3.347261
-3.410694
-3.464259
-3.508099
-3.542406
-3.567414
-3.583412
-3.590751
-3.589857
-3.581251
-3.565571
-3.543578
-3.516147
-3.484210
-3.448612
-3.409877
-3.367746
-3.321338
-3.264440
-3.196696
-3.000000
-3.000000
-3.000000
-3.000000
0.000000
0.000000
0.000000
0.000000
-0.253750
-0.457778
-0.666660
-0.872129
-1.074245
-1.272159
-1.465146
-1.652508
-1.833589
-2.007778
-2.174513
-2.333282
-2.483629
-2.625152
-2.757509
-2.880415
-2.993643
-3.097025
-3.190450
-3.273862
-3.347261
-3.410694
-3.464259
-3.508099
-3.542406
-3.567414
-3.583412
-3.590751
-3.589857
-3.581251
-3.565571
-3.543578
-3.516147
-3.484210
-3.448612
-3.409877
-3.367746
-3.321338
-3.264440
-3.196696
-3.000000
-3.000000
-3.000000
-3.000000
0.000000
0.000000
0.000000
0.000000
-0.253750
-0.457778
-0.666660
-0.872129
-1.074245
-1.272159
-1.465146
-1.652508
-1.833589
-2.007778
-2.174513
-2.333282
-2.483629
-2.625152
-2.757509
-2.880415
-2.993643
-3.097025
-3.190450
-3.273862
-3.347261
-3.410694
-3.464259
-3.508099
-3.542406
-3.567414
-3.583412
-3.590751
-3.589857
-3.581251
-3.565571
-3.543578
-3.516147
-3.484210
-3.448612
-3.409877
-3.367746
-3.321338
-3.264440
-3.196696
-3.000000
-3.000000
-3.000000
-3.000000
0.000000
0.000000
0.000000
0.000000
-0.256157
-0.462135
-0.673035
-0.880522
-1.084665
-1.284615
-1.479644
-1.669052
-1.852179
-2.028407
-2.197166
-2.357935
-2.510246
-2.653684
-2.787892
-2.912567
-3.027465
-3.132400
-3.227241
-3.311911
-3.386389
-3.450702
-3.504929
-3.549195
-3.583670
-3.608577
-3.624189
-3.630851
-3.628983
-3.619112
-3.601887
-3.578092
-3.548634
-3.514479
-3.476508
-3.435263
-3.390455
-3.341138
-3.280711
-3.208789
0.000000
0.000000
0.000000
0.000000
-0.260118
-0.469316
-0.683575
-0.894456
-1.102053
-1.305524
-1.504147
-1.697224
-1.884093
-2.064129
-2.236752
-2.401423
-2.557653
-2.705002
-2.843080
-2.971550
-3.090127
-3.198579
-3.296729
-3.384450
-3.461669
-3.528360
-3.584548
-3.630305
-3.665754
-3.691070
-3.706489
-3.712322
-3.708974
-3.696969
-3.676973
-3.649809
-3.616447
-3.577927
-3.535203
-3.488852
-3.438528
-3.383150
-3.315292
-3.234516
0.000000
0.000000
0.000000
0.000000
-0.263397
-0.475287
-0.692394
-0.906214
-1.116879
-1.323570
-1.525586
-1.722245
-1.912894
-2.096915
-2.273723
-2.442771
-2.603552
-2.755601
-2.898492
-3.031847
-3.155329
-3.268648
-3.371558
-3.463861
-3.545401
-3.616070
-3.675805
-3.724588
-3.762453
-3.789491
-3.805861
-3.811806
-3.807684
-3.793990
-3.771394
-3.740753
-3.703101
-3.659570
-3.611203
-3.558624
-3.501410
-3.438310
-3.360821
-3.268452
0.000000
0.000000
0.000000
0.000000
-0.265518
-0.479183
-0.698220
-0.914111
-1.127038
-1.336223
-1.541006
-1.740741
-1.934809
-2.122616
-2.303600
-2.477226
-2.642990
-2.800418
-2.949066
-3.088520
-3.218396
-3.338338
-3.448020
-3.547147
-3.635450
-3.712694
-3.778674
-3.833222
-3.876214
-3.907578
-3.927319
-3.935536
-3.932461
-3.918501
-3.894275
-3.860643
-3.818694
-3.769653
-3.714666
-3.654413
-3.588361
-3.515026
-3.424406
-3.315980
0.000000
0.000000
0.000000
0.000000
-0.266329
-0.480698
-0.700548
-0.917380
-1.131423
-1.341947
-1.548344
-1.750023
-1.946424
-2.137015
-2.321295
-2.498791
-2.669057
-2.831670
-2.986228
-3.132345
-3.269644
-3.397757
-3.516314
-3.624944
-3.723268
-3.810898
-3.887438
-3.952488
-4.005654
-4.046567
-4.074910
-4.090460
-4.093136
-4.083069
-4.060663
-4.026640
-3.982042
-3.928128
-3.866110
-3.796686
-3.719117
-3.631540
-3.521677
-3.389042
0.000000
0.000000
0.000000
0.000000
-0.266417
-0.480870
-0.700830
-0.917808
-1.132051
-1.342853
-1.549631
-1.751834
-1.948946
-2.140494
-2.326049
-2.505228
-2.677690
-2.843135
-3.001304
-3.151967
-3.294917
-3.429958
-3.556890
-3.675488
-3.785488
-3.886555
-3.978273
-4.060116
-4.131447
-4.191516
-4.239489
-4.274492
-4.295695
-4.302416
-4.294243
-4.271145
-4.233525
-4.182139
-4.117797
-4.040765
-3.949556
-3.841353
-3.699594
-3.524089
0.000000
0.000000
0.000000
0.000000
-0.266417
-0.480870
-0.700831
-0.917810
-1.132056
-1.342860
-1.549644
-1.751857
-1.948985
-2.140561
-2.326162
-2.505416
-2.678000
-2.843640
-3.002118
-3.153261
-3.296952
-3.433115
-3.561726
-3.682798
-3.796389
-3.902587
-4.001515
-4.093321
-4.178176
-4.256261
-4.327759
-4.392839
-4.451615
-4.504091
-4.550050
-4.588859
-4.619142
-4.638259
-4.641521
-4.621165
-4.564691
-4.456710
-4.258659
-3.968971
0.000000
0.000000
0.000000
0.000000
-0.266417
-0.480870
-0.700831
-0.917810
-1.132056
-1.342860
-1.549644
-1.751857
-1.948985
-2.140561
-2.326162
-2.505416
-2.678000
-2.843640
-3.002118
-3.153261
-3.296952
-3.433115
-3.561726
-3.682799
-3.796389
-3.902588
-4.001518
-4.093330
-4.178198
-4.256314
-4.327885
-4.393127
-4.452263
-4.505515
-4.553104
-4.595243
-4.632135
-4.663968
-4.690914
-4.713125
-4.730733
-4.743842
-4.752478
-4.757866
0.000000
0.000000
0.000000
0.000000
-0.266417
-0.480870
-0.700831
-0.917810
-1.132056
-1.342860
-1.549644
-1.751857
-1.948985
-2.140561
-2.326162
-2.505416
-2.678000
-2.843640
-3.002118
-3.153261
-3.296952
-3.433115
-3.561726
-3.682799
-3.796389
-3.902588
-4.001518
-4.093330
-4.178198
-4.256314
-4.327885
-4.393127
-4.452263
-4.505515
-4.553104
-4.595243
-4.632135
-4.663968
-4.690914
-4.713125
-4.730733
-4.743842
-4.752478
-4.757866
0.000000
0.000000
0.000000
0.000000
-0.266417
-0.480870
-0.700831
-0.917810
-1.132056
-1.342860
-1.549644
-1.751857
-1.948985
-2.140561
-2.326162
-2.505416
-2.678000
-2.843640
-3.002118
-3.153261
-3.296952
-3.433115
-3.561726
-3.682799
-3.796389
-3.902588
-4.001518
-4.093330
-4.178198
-4.256314
-4.327885
-4.393127
-4.452263
-4.505515
-4.553104
-4.595243
-4.632135
-4.663968
-4.690914
-4.713125
-4.730733
-4.743842
-4.752478
-4.757866
0.000000
0.000000
0.000000
0.000000
-0.266417
-0.480870
-0.700831
-0.917810
-1.132056
-1.342860
-1.549644
-1.751857
-1.948985
-2.140561
-2.326162
-2.505416
-2.678000
-2.843640
-3.002118
-3.153261
-3.296952
-3.433115
-3.561726
-3.682799
-3.796389
-3.902588
-4.001518
-4.093330
-4.178198
-4.256314
-4.327885
-4.393127
-4.452263
-4.505515
-4.553104
-4.595243
-4.632135
-4.663968
-4.690914
-4.713125
-4.730733
-4.743842
-4.752478
-4.757866
0.000000
0.000000
0.000000
0.000000
-0.266417
-0.480870
-0.700831
-0.917810
-1.132056
-1.342860
-1.549644
-1.751857
-1.948985
-2.140561
-2.326162
-2.505416
-2.678000
-2.843640
-3.002118
-3.153261
-3.296952
-3.433115
-3.561726
-3.682799
-3.796389
-3.902588
-4.001518
-4.093330
-4.178198
-4.256314
-4.327885
-4.393127
-4.452263
-4.505515
-4.553104
-4.595243
-4.632135
-4.663968
-4.690914
-4.713125
-4.730733
-4.743842
-4.752478
-4.757866
0.000000
0.000000
0.000000
0.000000
-0.266417
-0.480870
-0.700831
-0.917810
-1.132056
-1.342860
-1.549644
-1.751857
-1.948985
-2.140561
-2.326162
-2.505416
-2.678000
-2.843640
-3.002118
-3.153261
-3.296952
-3.433115
-3.561726
-3.682799
-3.796389
-3.902588
-4.001518
-4.093330
-4.178198
-4.256314
-4.327885
-4.393127
-4.452263
-4.505515
-4.553104
-4.595243
-4.632135
-4.663968
-4.690914
-4.713125
-4.730733
-4.743842
-4.752478
-4.757866
0.000000
0.000000
0.000000
0.000000
-0.266417
-0.480870
-0.700831
-0.917810
-1.132056
-1.342860
-1.549644
-1.751857
-1.948985
-2.140561
-2.326162
-2.505416
-2.678000
-2.843640
-3.002118
-3.153261
-3.296952
-3.433115
-3.561726
-3.682799
-3.796389
-3.902588
-4.001518
-4.093330
-4.178198
-4.256314
-4.327885
-4.393127
-4.452263
-4.505515
-4.553104
-4.595243
-4.632135
-4.663968
-4.690914
-4.713125
-4.730733
-4.743842
-4.752478
-4.757866
0.000000
0.000000
0.000000
0.000000
-0.266417
-0.480870
-0.700831
-0.917810
-1.132056
-1.342860
-1.549644
-1.751857
-1.948985
-2.140561
-2.326162
-2.505416
-2.678000
-2.843640
-3.002118
-3.153261
-3.296952
-3.433115
-3.561726
-3.682799
-3.796389
-3.902588
-4.001518
-4.093330
-4.178198
-4.256314
-4.327885
-4.393127
-4.452263
-4.505515
-4.553104
-4.595243
-4.632135
-4.663968
-4.690914
-4.713125
-4.730733
-4.743842
-4.752478
-4.757866
0.000000
0.000000
0.000000
0.000000
-0.266417
-0.480870
-0.700831
-0.917810
-1.132056
-1.342860
-1.549644
-1.751857
-1.948985
-2.140561
-2.326162
-2.505416
-2.678000
-2.843640
-3.002118
-3.153261
-3.296952
-3.433115
-3.561726
-3.682799
-3.796389
-3.902588
-4.001518
-4.093330
-4.178198
-4.256314
-4.327885
-4.393127
-4.452263
-4.505515
-4.553104
-4.595243
-4.632135
-4.663968
-4.690914
-4.713125
-4.730733
-4.743842
-4.752478
-4.757866
0.000000
0.000000
0.000000
0.000000
-0.266417
-0.480870
-0.700831
-0.917810
-1.132056
-1.342860
-1.549644
-1.751857
-1.948985
-2.140561
-2.326162
-2.505416
-2.678000
-2.843640
-3.002118
-3.153261
-3.296952
-3.433115
-3.561726
-3.682799
-3.796389
-3.902588
-4.001518
-4.093330
-4.178198
-4.256314
-4.327885
-4.393127
-4.452263
-4.505515
-4.553104
-4.595243
-4.632135
-4.663968
-4.690914
-4.713125
-4.730733
-4.743842
-4.752478
-4.757866
0.000000
0.000000
0.000000
0.000000
-0.266417
-0.480870
-0.700831
-0.917810
-1.132056
-1.342860
-1.549644
-1.751857
-1.948985
-2.140561
-2.326162
-2.505416
-2.678000
-2.843640
-3.002118
-3.153261
-3.296952
-3.433115
-3.561726
-3.682799
-3.796389
-3.902588
-4.001518
-4.093330
-4.178198
-4.256314
-4.327885
-4.393127
-4.452263
-4.505515
-4.553104
-4.595243
-4.632135
-4.663968
-4.690914
-4.713125
-4.730733
-4.743842
-4.752478
-4.757866
0.000000
0.000000
0.000000
0.000000
-0.266417
-0.480870
-0.700831
-0.917810
-1.132056
-1.342860
-1.549644
-1.751857
-1.948985
-2.140561
-2.326162
-2.505416
-2.678000
-2.843640
-3.002118
-3.153261
-3.296952
-3.433115
-3.561726
-3.682799
-3.796389
-3.902588
-4.001518
-4.093330
-4.178198
-4.256314
-4.327885
-4.393127
-4.452263
-4.505515
-4.553104
-4.595243
-4.632135
-4.663968
-4.690914
-4.713125
-4.730733
-4.743842
-4.752478
-4.757866
0.000000
0.000000
0.000000
0.000000
-0.266417
-0.480870
-0.700831
-0.917810
-1.132056
-1.342860
-1.549644
-1.751857
-1.948985
-2.140561
-2.326162
-2.505416
-2.678000
-2.843640
-3.002118
-3.153261
-3.296952
-3.433115
-3.561726
-3.682799
-3.796389
-3.902588
-4.001518
-4.093330
-4.178198
-4.256314
-4.327885
-4.393127
-4.452263
-4.505515
-4.553104
-4.595243
-4.632135
-4.663968
-4.690914
-4.713125
-4.730733
-4.743842
-4.752478
-4.757866
0.000000
0.000000
0.000000
0.000000
-0.266417
-0.480870
-0.700831
-0.917810
-1.132056
-1.342860
-1.549644
-1.751857
-1.948985
-2.140561
-2.326162
-2.505416
-2.678000
-2.843640
-3.002118
-3.153261
-3.296952
-3.433115
-3.561726
-3.682799
-3.796389
-3.902588
-4.001518
-4.093330
-4.178198
-4.256314
-4.327885
-4.393127
-4.452263
-4.505515
-4.553104
-4.595243
-4.632135
-4.663968
-4.690914
-4.713125
-4.730733
-4.743842
-4.752478
-4.757866
0.000000
0.000000
0.000000
0.000000
-0.266417
-0.480870
-0.700831
-0.917810
-1.132056
-1.342860
-1.549644
-1.751857
-1.948985
-2.140561
-2.326162
-2.505416
-2.678000
-2.843640
-3.002118
-3.153261
-3.296952
-3.433115
-3.561726
-3.682799
-3.796389
-3.902588
-4.001518
-4.093330
-4.178198
-4.256314
-4.327885
-4.393127
-4.452263
-4.505515
-4.553104
-4.595243
-4.632135
-4.663968
-4.690914
-4.713125
-4.730733
-4.743842
-4.752478
-4.757866
0.000000
0.000000
0.000000
0.000000
-0.266417
-0.480870
-0.700831
-0.917810
-1.132056
-1.342860
-1.549644
-1.751857
-1.948985
-2.140561
-2.326162
-2.505416
-2.678000
-2.843640
-3.002118
-3.153261
-3.296952
-3.433115
-3.561726
-3.682799
-3.796389
-3.902588
-4.001518
-4.093330
-4.178198
-4.256314
-4.327885
-4.393127
-4.452263
-4.505515
-4.553104
-4.595243
-4.632135
-4.663968
-4.690914
-4.713125
-4.730733
-4.743842
-4.752478
-4.757866
0.000000
0.000000
0.000000
0.000000
-0.266417
-0.480870
-0.700831
-0.917810
-1.132056
-1.342860
-1.549644
-1.751857
-1.948985
-2.140561
-2.326162
-2.505416
-2.678000
-2.843640
-3.002118
-3.153261
-3.296952
-3.433115
-3.561726
-3.682799
-3.796389
-3.902588
-4.001518
-4.093330
-4.178198
-4.256314
-4.327885
-4.393127
-4.452263
-4.505515
-4.553104
-4.595243
-4.632135
-4.663968
-4.690914
-4.713125
-4.730733
-4.743842
-4.752478
-4.757866
0.000000
0.000000
0.000000
0.000000
-0.266417
-0.480870
-0.700831
-0.917810
-1.132056
-1.342860
-1.549644
-1.751857
-1.948985
-2.140561
-2.326162
-2.505416
-2.678000
-2.843640
-3.002118
-3.153261
-3.296952
-3.433115
-3.561726
-3.682799
-3.796389
-3.902588
-4.001518
-4.093330
-4.178198
-4.256314
-4.327885
-4.393127
-4.452263
-4.505515
-4.553104
-4.595243
-4.632135
-4.663968
-4.690914
-4.713125
-4.730733