<?xml version='1.0' encoding='UTF-8'?>
<VTKFile xmlns='VTK' byte_order='LittleEndian' version='0.1' type='UnstructuredGrid'>
<UnstructuredGrid>
<Piece NumberOfCells='1888' NumberOfPoints='1888'>
<Points>
<DataArray NumberOfComponents='3' type='Float32' Name='Position' format='ascii'>
-0.040000 -0.030000 0.000000
-0.040000 -0.020000 0.000000
-0.040000 -0.010000 0.000000
-0.040000 0.000000 0.000000
-0.040000 0.010000 0.000000
-0.040000 0.020000 0.000000
-0.040000 0.030000 0.000000
-0.040000 0.040000 0.000000
-0.040000 0.050000 0.000000
-0.040000 0.060000 0.000000
-0.040000 0.070000 0.000000
-0.040000 0.080000 0.000000
-0.040000 0.090000 0.000000
-0.040000 0.100000 0.000000
-0.040000 0.110000 0.000000
-0.040000 0.120000 0.000000
-0.040000 0.130000 0.000000
-0.040000 0.140000 0.000000
-0.040000 0.150000 0.000000
-0.040000 0.160000 0.000000
-0.040000 0.170000 0.000000
-0.040000 0.180000 0.000000
-0.040000 0.190000 0.000000
-0.040000 0.200000 0.000000
-0.040000 0.210000 0.000000
-0.040000 0.220000 0.000000
-0.040000 0.230000 0.000000
-0.040000 0.240000 0.000000
-0.040000 0.250000 0.000000
-0.040000 0.260000 0.000000
-0.040000 0.270000 0.000000
-0.040000 0.280000 0.000000
-0.040000 0.290000 0.000000
-0.040000 0.300000 0.000000
-0.040000 0.310000 0.000000
-0.040000 0.320000 0.000000
-0.040000 0.330000 0.000000
-0.040000 0.340000 0.000000
-0.040000 0.350000 0.000000
-0.040000 0.360000 0.000000
-0.040000 0.370000 0.000000
-0.040000 0.380000 0.000000
-0.040000 0.390000 0.000000
-0.040000 0.400000 0.000000
0.010000 -0.030000 0.000000
0.010000 -0.020000 0.000000
0.010000 -0.010000 0.000000
0.010000 0.000000 0.000000
0.010000 0.010000 0.000000
0.010000 0.020000 0.000000
0.010000 0.030000 0.000000
0.010000 0.040000 0.000000
0.010000 0.050000 0.000000
0.010000 0.060000 0.000000
0.010000 0.070000 0.000000
0.010000 0.080000 0.000000
0.010000 0.090000 0.000000
0.010000 0.100000 0.000000
0.010000 0.110000 0.000000
0.010000 0.120000 0.000000
0.010000 0.130000 0.000000
0.010000 0.140000 0.000000
0.010000 0.150000 0.000000
0.010000 0.160000 0.000000
0.010000 0.170000 0.000000
0.010000 0.180000 0.000000
0.010000 0.190000 0.000000
0.010000 0.200000 0.000000
0.010000 0.210000 0.000000
0.010000 0.220000 0.000000
0.010000 0.230000 0.000000
0.010000 0.240000 0.000000
0.010000 0.250000 0.000000
0.010000 0.260000 0.000000
0.010000 0.270000 0.000000
0.010000 0.280000 0.000000
0.010000 0.290000 0.000000
0.010000 0.300000 0.000000
0.010000 0.310000 0.000000
0.010000 0.320000 0.000000
0.010000 0.330000 0.000000
0.010000 0.340000 0.000000
0.010000 0.350000 0.000000
0.010000 0.360000 0.000000
0.010000 0.370000 0.000000
0.010000 0.380000 0.000000
0.010000 0.390000 0.000000
0.010000 0.400000 0.000000
0.392000 0.410000 0.000000
0.392000 0.420000 0.000000
0.392000 0.430000 0.000000
0.392000 0.440000 0.000000
0.060000 -0.030000 0.000000
0.060000 -0.020000 0.000000
0.060000 -0.010000 0.000000
0.060000 0.000000 0.000000
0.060000 0.010000 0.000000
0.060000 0.020000 0.000000
0.060000 0.030000 0.000000
0.060000 0.040000 0.000000
0.060000 0.050000 0.000000
0.060000 0.060000 0.000000
0.060000 0.070000 0.000000
0.060000 0.080000 0.000000
0.060000 0.090000 0.000000
0.060000 0.100000 0.000000
0.060000 0.110000 0.000000
0.060000 0.120000 0.000000
0.060000 0.130000 0.000000
0.060000 0.140000 0.000000
0.060000 0.150000 0.000000
0.060000 0.160000 0.000000
0.060000 0.170000 0.000000
0.060000 0.180000 0.000000
0.060000 0.190000 0.000000
0.060000 0.200000 0.000000
0.060000 0.210000 0.000000
0.060000 0.220000 0.000000
0.060000 0.230000 0.000000
0.060000 0.240000 0.000000
0.060000 0.250000 0.000000
0.060000 0.260000 0.000000
0.060000 0.270000 0.000000
0.060000 0.280000 0.000000
0.060000 0.290000 0.000000
0.060000 0.300000 0.000000
0.060000 0.310000 0.000000
0.060000 0.320000 0.000000
0.060000 0.330000 0.000000
0.060000 0.340000 0.000000
0.060000 0.350000 0.000000
0.060000 0.360000 0.000000
0.060000 0.370000 0.000000
0.060000 0.380000 0.000000
0.060000 0.390000 0.000000
0.060000 0.400000 0.000000
0.442000 0.410000 0.000000
0.442000 0.420000 0.000000
0.442000 0.430000 0.000000
0.442000 0.440000 0.000000
0.110000 -0.030000 0.000000
0.110000 -0.020000 0.000000
0.110000 -0.010000 0.000000
0.110000 0.000000 0.000000
0.110000 0.010000 0.000000
0.110000 0.020000 0.000000
0.110000 0.030000 0.000000
0.110000 0.040000 0.000000
0.110000 0.050000 0.000000
0.110000 0.060000 0.000000
0.110000 0.070000 0.000000
0.110000 0.080000 0.000000
0.110000 0.090000 0.000000
0.110000 0.100000 0.000000
0.110000 0.110000 0.000000
0.110000 0.120000 0.000000
0.110000 0.130000 0.000000
0.110000 0.140000 0.000000
0.110000 0.150000 0.000000
0.110000 0.160000 0.000000
0.110000 0.170000 0.000000
0.110000 0.180000 0.000000
0.110000 0.190000 0.000000
0.110000 0.200000 0.000000
0.110000 0.210000 0.000000
0.110000 0.220000 0.000000
0.110000 0.230000 0.000000
0.110000 0.240000 0.000000
0.110000 0.250000 0.000000
0.110000 0.260000 0.000000
0.110000 0.270000 0.000000
0.110000 0.280000 0.000000
0.110000 0.290000 0.000000
0.110000 0.300000 0.000000
0.110000 0.310000 0.000000
0.110000 0.320000 0.000000
0.110000 0.330000 0.000000
0.110000 0.340000 0.000000
0.110000 0.350000 0.000000
0.110000 0.360000 0.000000
0.110000 0.370000 0.000000
0.110000 0.380000 0.000000
0.110000 0.390000 0.000000
0.110000 0.400000 0.000000
0.492000 0.410000 0.000000
0.492000 0.420000 0.000000
0.492000 0.430000 0.000000
0.492000 0.440000 0.000000
0.160000 -0.030000 0.000000
0.160000 -0.020000 0.000000
0.160000 -0.010000 0.000000
0.160000 0.000000 0.000000
0.160000 0.010000 0.000000
0.160000 0.020000 0.000000
0.160000 0.030000 0.000000
0.160000 0.040000 0.000000
0.160000 0.050000 0.000000
0.160000 0.060000 0.000000
0.160000 0.070000 0.000000
0.160000 0.080000 0.000000
0.160000 0.090000 0.000000
0.160000 0.100000 0.000000
0.160000 0.110000 0.000000
0.160000 0.120000 0.000000
0.160000 0.130000 0.000000
0.160000 0.140000 0.000000
0.160000 0.150000 0.000000
0.160000 0.160000 0.000000
0.160000 0.170000 0.000000
0.160000 0.180000 0.000000
0.160000 0.190000 0.000000
0.160000 0.200000 0.000000
0.160000 0.210000 0.000000
0.160000 0.220000 0.000000
0.160000 0.230000 0.000000
0.160000 0.240000 0.000000
0.160000 0.250000 0.000000
0.160000 0.260000 0.000000
0.160000 0.270000 0.000000
0.160000 0.280000 0.000000
0.160000 0.290000 0.000000
0.160000 0.300000 0.000000
0.160000 0.310000 0.000000
0.160000 0.320000 0.000000
0.160000 0.330000 0.000000
0.160000 0.340000 0.000000
0.160000 0.350000 0.000000
0.160000 0.360000 0.000000
0.160000 0.370000 0.000000
0.160000 0.380000 0.000000
0.160000 0.390000 0.000000
0.160000 0.400000 0.000000
0.542000 0.410000 0.000000
0.542000 0.420000 0.000000
0.542000 0.430000 0.000000
0.542000 0.440000 0.000000
0.210000 -0.030000 0.000000
0.210000 -0.020000 0.000000
0.210000 -0.010000 0.000000
0.210000 0.000000 0.000000
0.210000 0.010000 0.000000
0.210000 0.020000 0.000000
0.210000 0.030000 0.000000
0.210000 0.040000 0.000000
0.210000 0.050000 0.000000
0.210000 0.060000 0.000000
0.210000 0.070000 0.000000
0.210000 0.080000 0.000000
0.210000 0.090000 0.000000
0.210000 0.100000 0.000000
0.210000 0.110000 0.000000
0.210000 0.120000 0.000000
0.210000 0.130000 0.000000
0.210000 0.140000 0.000000
0.210000 0.150000 0.000000
0.210000 0.160000 0.000000
0.210000 0.170000 0.000000
0.210000 0.180000 0.000000
0.210000 0.190000 0.000000
0.210000 0.200000 0.000000
0.210000 0.210000 0.000000
0.210000 0.220000 0.000000
0.210000 0.230000 0.000000
0.210000 0.240000 0.000000
0.210000 0.250000 0.000000
0.210000 0.260000 0.000000
0.210000 0.270000 0.000000
0.210000 0.280000 0.000000
0.210000 0.290000 0.000000
0.210000 0.300000 0.000000
0.210000 0.310000 0.000000
0.210000 0.320000 0.000000
0.210000 0.330000 0.000000
0.210000 0.340000 0.000000
0.210000 0.350000 0.000000
0.210000 0.360000 0.000000
0.210000 0.370000 0.000000
0.210000 0.380000 0.000000
0.210000 0.390000 0.000000
0.210000 0.400000 0.000000
0.592000 0.410000 0.000000
0.592000 0.420000 0.000000
0.592000 0.430000 0.000000
0.592000 0.440000 0.000000
0.260000 -0.030000 0.000000
0.260000 -0.020000 0.000000
0.260000 -0.010000 0.000000
0.260000 0.000000 0.000000
0.260000 0.010000 0.000000
0.260000 0.020000 0.000000
0.260000 0.030000 0.000000
0.260000 0.040000 0.000000
0.260000 0.050000 0.000000
0.260000 0.060000 0.000000
0.260000 0.070000 0.000000
0.260000 0.080000 0.000000
0.260000 0.090000 0.000000
0.260000 0.100000 0.000000
0.260000 0.110000 0.000000
0.260000 0.120000 0.000000
0.260000 0.130000 0.000000
0.260000 0.140000 0.000000
0.260000 0.150000 0.000000
0.260000 0.160000 0.000000
0.260000 0.170000 0.000000
0.260000 0.180000 0.000000
0.260000 0.190000 0.000000
0.260000 0.200000 0.000000
0.260000 0.210000 0.000000
0.260000 0.220000 0.000000
0.260000 0.230000 0.000000
0.260000 0.240000 0.000000
0.260000 0.250000 0.000000
0.260000 0.260000 0.000000
0.260000 0.270000 0.000000
0.260000 0.280000 0.000000
0.260000 0.290000 0.000000
0.260000 0.300000 0.000000
0.260000 0.310000 0.000000
0.260000 0.320000 0.000000
0.260000 0.330000 0.000000
0.260000 0.340000 0.000000
0.260000 0.350000 0.000000
0.260000 0.360000 0.000000
0.260000 0.370000 0.000000
0.260000 0.380000 0.000000
0.260000 0.390000 0.000000
0.260000 0.400000 0.000000
0.642000 0.410000 0.000000
0.642000 0.420000 0.000000
0.642000 0.430000 0.000000
0.642000 0.440000 0.000000
0.310000 -0.030000 0.000000
0.310000 -0.020000 0.000000
0.310000 -0.010000 0.000000
0.310000 0.000000 0.000000
0.310000 0.010000 0.000000
0.310000 0.020000 0.000000
0.310000 0.030000 0.000000
0.310000 0.040000 0.000000
0.310000 0.050000 0.000000
0.310000 0.060000 0.000000
0.310000 0.070000 0.000000
0.310000 0.080000 0.000000
0.310000 0.090000 0.000000
0.310000 0.100000 0.000000
0.310000 0.110000 0.000000
0.310000 0.120000 0.000000
0.310000 0.130000 0.000000
0.310000 0.140000 0.000000
0.310000 0.150000 0.000000
0.310000 0.160000 0.000000
0.310000 0.170000 0.000000
0.310000 0.180000 0.000000
0.310000 0.190000 0.000000
0.310000 0.200000 0.000000
0.310000 0.210000 0.000000
[...]
<PointData>
<DataArray NumberOfComponents='1' type='Int32' Name='ParticleType' format='ascii'>
4
4
4
4
4
4
4
4
4
4
4
4
4
4
4
4
4
4
4
4
4
4
4
4
4
4
4
4
4
4
4
4
4
4
4
4
4
4
4
4
4
4
4
4
4
4
3
3
2
2
2
2
2
2
2
2
2
2
2
2
2
2
2
2
2
2
2
2
2
2
2
2
2
2
2
2
2
2
2
2
2
2
2
2
2
2
2
2
5
5
5
5
4
4
3
3
2
2
2
2
2
2
2
2
2
2
2
2
2
2
2
2
2
2
2
2
2
2
2
2
2
2
2
2
2
2
2
2
2
2
2
2
2
2
2
2
5
5
5
5
4
4
3
3
2
2
2
2
2
2
2
2
2
2
2
2
2
2
2
2
2
2
2
2
2
2
2
2
2
2
2
2
2
2
2
2
2
2
2
2
2
2
2
2
5
5
5
5
4
4
3
3
2
2
2
2
2
2
2
2
2
2
2
2
2
2
2
2
2
2
2
2
2
2
2
2
2
2
2
2
2
2
2
2
2
2
2
2
2
2
2
2
5
5
5
5
4
4
3
3
2
2
2
2
2
2
2
2
2
2
2
2
2
2
2
2
2
2
2
2
2
2
2
2
2
2
2
2
2
2
2
2
2
2
2
2
2
2
2
2
5
5
5
5
4
4
3
3
2
2
2
2
2
2
2
2
2
2
2
2
2
2
2
2
2
2
2
2
2
2
2
2
2
2
2
2
2
2
2
2
2
2
2
2
2
2
2
2
5
5
5
5
4
4
3
3
2
2
2
2
2
2
2
2
2
2
2
2
2
2
2
2
2
2
2
2
2
2
2
2
2
2
2
2
2
2
2
2
2
2
2
2
2
2
2
2
5
5
5
5
4
4
3
3
2
2
2
2
2
2
2
2
2
2
2
2
2
2
2
2
2
2
2
2
2
2
2
2
2
2
2
2
2
2
2
2
2
2
2
2
2
2
2
2
5
5
5
5
4
4
3
3
2
2
2
2
2
2
2
2
2
2
2
2
2
2
2
2
2
2
2
2
2
2
2
2
2
2
2
2
2
2
2
2
2
2
2
2
2
2
2
2
5
5
5
5
4
4
3
3
2
2
2
2
2
2
2
2
2
2
2
2
2
2
2
2
2
2
2
2
2
2
2
2
2
2
2
2
2
2
2
2
2
2
2
2
2
2
2
2
5
5
5
5
4
4
3
3
2
2
2
2
2
2
2
2
2
2
2
2
2
2
2
2
2
2
2
2
2
2
2
2
2
2
2
2
2
2
2
2
2
2
2
2
2
2
2
2
4
4
3
3
2
2
2
2
2
2
2
2
2
2
2
2
2
2
2
2
2
2
2
2
2
2
2
2
2
2
2
2
2
2
2
2
2
2
2
2
2
2
2
2
4
4
3
3
2
2
2
2
2
2
2
2
2
2
2
2
2
2
2
2
2
2
2
2
2
2
2
2
2
2
2
2
2
2
2
2
2
2
2
2
2
2
2
2
4
4
3
3
2
2
2
2
2
2
2
2
2
2
2
2
2
2
2
2
2
2
2
2
2
2
2
2
2
2
2
2
2
2
2
2
2
2
2
2
2
2
2
2
4
4
3
3
2
2
2
2
2
2
2
2
2
2
2
2
2
2
2
2
2
2
2
2
2
2
2
2
2
2
2
2
2
2
2
2
2
2
2
2
2
2
2
2
4
4
3
3
2
2
2
2
2
2
2
2
2
2
2
2
2
2
2
2
2
2
2
2
2
2
2
2
2
2
2
2
2
2
2
2
2
2
2
2
2
2
2
2
4
4
3
3
2
2
2
2
2
2
2
2
2
2
2
2
2
2
2
2
2
2
2
2
2
2
2
2
2
2
2
2
2
2
2
2
2
2
2
2
2
2
2
2
4
4
3
3
2
2
2
2
2
2
2
2
2
2
2
2
2
2
2
2
2
2
2
2
2
2
2
2
2
2
2
2
2
2
2
2
2
2
2
2
2
2
2
2
4
4
3
3
2
2
2
2
2
2
2
2
2
2
2
2
2
2
2
2
2
2
2
2
2
2
2
2
2
2
2
2
2
2
2
2
2
2
2
2
2
2
2
2
4
4
3
3
2
2
2
2
2
2
2
2
2
2
2
2
2
2
2
2
2
2
2
2
2
2
2
2
2
2
2
2
2
2
2
2
2
2
2
2
2
2
2
2
4
4
3
3
2
2
2
2
2
2
2
2
2
2
2
2
2
2
2
2
2
2
2
2
2
2
2
2
2
2
2
2
2
2
2
2
2
2
2
2
2
2
2
2
4
4
3
3
2
2
2
2
2
2
2
2
2
2
2
2
2
2
2
2
2
2
2
2
2
2
2
2
2
2
2
2
2
2
2
2
2
2
2
2
2
2
2
2
4
4
3
3
2
2
2
2
2
2
2
2
2
2
2
2
2
2
2
2
2
2
2
2
2
2
2
2
2
2
2
2
2
2
2
2
2
2
2
2
2
2
2
2
4
4
3
3
2
2
2
2
2
2
2
2
2
2
2
2
2
2
2
2
2
2
2
2
2
2
2
2
2
2
2
2
2
2
2
2
2
2
2
2
2
2
2
2
4
4
3
3
2
2
2
2
2
2
2
2
2
2
2
2
2
2
2
2
2
2
2
2
2
2
2
2
2
2
2
2
2
2
2
2
2
2
2
2
2
2
2
2
4
4
3
3
2
2
2
2
2
2
2
2
2
2
2
2
2
2
2
2
2
2
2
2
2
2
2
2
2
2
2
2
2
2
2
2
2
2
2
2
2
2
2
2
4
4
3
3
2
2
2
2
2
2
2
2
2
2
2
2
2
2
2
2
2
2
2
2
2
2
2
2
2
2
2
2
2
2
2
2
2
2
2
2
2
2
2
2
4
4
3
3
2
2
2
2
2
2
2
2
2
2
2
2
2
2
2
2
2
2
2
2
2
2
2
2
2
2
2
2
2
2
2
2
2
2
2
2
2
2
2
2
4
4
3
3
2
2
2
2
2
2
2
2
2
2
2
2
2
2
2
2
2
2
2
2
2
2
2
2
2
2
2
2
2
2
2
2
2
2
2
2
2
2
2
2
4
4
3
3
2
2
2
2
2
2
2
2
2
2
2
2
2
2
2
2
2
2
2
2
2
2
2
2
2
2
2
2
2
2
2
2
2
2
2
2
2
2
2
2
4
4
3
3
2
2
2
2
2
2
2
2
2
2
2
2
2
2
2
2
2
2
2
2
2
2
2
2
2
2
2
2
2
2
2
2
2
2
2
2
2
2
2
2
4
4
3
3
2
2
2
2
2
2
2
2
2
2
2
2
2
2
2
2
2
2
2
2
2
2
2
2
2
2
2
2
2
2
2
2
2
2
2
2
2
2
2
2
4
4
3
3
2
2
2
2
2
2
2
2
2
2
2
2
2
2
2
2
2
2
2
2
2
2
2
2
2
2
2
2
2
2
2
2
2
2
2
2
2
2
2
2
4
4
3
3
2
2
2
2
2
2
2
2
2
2
2
2
2
2
2
2
2
2
2
2
2
2
2
2
2
2
2
2
2
2
2
2
2
2
2
2
2
2
2
2
4
4
3
3
2
2
2
2
2
2
2
2
2
2
2
2
2
2
2
2
2
2
2
2
2
2
2
2
2
2
2
2
2
2
2
2
2
2
2
2
2
2
2
2
4
4
3
3
2
2
2
2
2
2
2
2
2
2
2
2
2
2
2
2
2
2
2
2
2
2
2
2
2
2
2
2
2
2
2
2
2
2
2
2
2
2
2
2
4
4
3
3
2
2
2
2
2
2
2
2
2
2
2
2
2
2
2
2
2
2
2
2
2
2
2
2
2
2
2
2
2
2
2
2
2
2
2
2
2
2
2
2
4
4
3
3
2
2
2
2
2
2
2
2
2
2
2
2
2
2
2
2
2
2
2
2
2
2
2
2
2
2
2
2
2
2
2
2
2
2
2
2
2
2
2
2
4
4
3
3
2
2
2
2
2
2
2
2
2
2
2
2
2
2
2
2
2
2
2
2
2
2
2
2
2
2
2
2
2
2
2
2
2
2
2
2
2
2
2
2
4
4
3
3
2
2
2
2
2
2
2
2
2
2
2
2
2
2
2
2
2
2
2
2
2
2
2
2
2
2
2
2
2
2
2
2
2
2
2
2
2
2
2
2
4
4
3
3
3
3
3
3
3
3
3
3
3
3
3
3
3
3
3
3
3
3
3
3
3
3
3
3
3
3
3
3
3
3
3
3
3
3
3
3
3
3
3
3
</DataArray>
<DataArray NumberOfComponents='1' type='Float32' Name='Temperature' format='ascii'>
0.000000
0.000000
0.000000
0.000000
0.000000
0.000000
0.000000
0.000000
0.000000
0.000000
0.000000
0.000000
0.000000
0.000000
0.000000
0.000000
0.000000
0.000000
0.000000
0.000000
0.000000
0.000000
0.000000
0.000000
0.000000
0.000000
0.000000
0.000000
0.000000
0.000000
0.000000
0.000000
0.000000
0.000000
0.000000
0.000000
0.000000
0.000000
0.000000
0.000000
0.000000
0.000000
0.000000
0.000000
0.000000
0.000000
0.000000
0.000000
-0.246030
-0.444118
-0.647370
-0.847979
-1.046205
-1.241421
-1.433117
-1.620800
-1.804014
-1.982334
-2.155376
-2.322794
-2.484285
-2.639587
-2.788481
-2.930792
-3.066388
-3.195176
-3.317105
-3.432160
-3.540364
-3.641769
-3.736459
-3.824545
-3.906157
-3.981448
-4.050582
-4.113738
-4.171099
-4.222853
-4.269187
-4.310282
-4.346316
-4.377451
-4.403838
-4.425612
-4.442887
-4.455757
-4.464240
-4.469535
-3.000000
-3.000000
-3.000000
-3.000000
0.000000
0.000000
0.000000
0.000000
-0.240858
-0.434729
-0.633562
-0.829673
-1.023278
-1.213728
-1.400487
-1.583043
-1.760922
-1.933685
-2.100935
-2.262322
-2.417538
-2.566323
-2.708466
-2.843801
-2.972212
-3.093627
-3.208019
-3.315406
-3.415842
-3.509420
-3.596267
-3.676537
-3.750412
-3.818093
-3.879801
-3.935766
-3.986227
-4.031426
-4.071603
-4.106991
-4.137814
-4.164283
-4.186589
-4.204902
-4.219369
-4.230111
-4.237172
-4.241571
-3.000000
-3.000000
-3.000000
-3.000000
0.000000
0.000000
0.000000
0.000000
-0.237835
-0.429225
-0.625434
-0.818838
-1.009617
-1.197095
-1.380713
-1.559937
-1.734271
-1.903261
-2.066494
-2.223609
-2.374290
-2.518274
-2.655350
-2.785357
-2.908188
-3.023787
-3.132146
-3.233305
-3.327351
-3.414409
-3.494645
-3.568255
-3.635470
-3.696539
-3.751735
-3.801344
-3.845660
-3.884980
-3.919599
-3.949807
-3.975879
-3.998072
-4.016623
-4.031743
-4.043613
-4.052381
-4.058123
-4.061689
-3.000000
-3.000000
-3.000000
-3.000000
0.000000
0.000000
0.000000
0.000000
-0.236113
-0.426074
-0.620747
-0.812531
-1.001571
-1.187165
-1.368728
-1.545701
-1.717564
-1.883840
-2.044098
-2.197955
-2.345084
-2.485208
-2.618109
-2.743624
-2.861647
-2.972127
-3.075072
-3.170539
-3.258638
-3.339529
-3.413411
-3.480528
-3.541157
-3.595603
-3.644198
-3.687291
-3.725240
-3.758413
-3.787172
-3.811872
-3.832856
-3.850444
-3.864929
-3.876576
-3.885609
-3.892215
-3.896509
-3.899160
-3.000000
-3.000000
-3.000000
-3.000000
0.000000
0.000000
0.000000
0.000000
-0.235347
-0.424659
-0.618614
-0.809607
-0.997758
-1.182340
-1.362743
-1.538382
-1.708709
-1.873220
-2.031458
-2.183013
-2.327533
-2.464716
-2.594324
-2.716176
-2.830152
-2.936193
-3.034305
-3.124550
-3.207052
-3.281991
-3.349598
-3.410158
-3.463995
-3.511477
-3.553003
-3.588996
-3.619899
-3.646167
-3.668255
-3.686612
-3.701671
-3.713845
-3.723511
-3.731011
-3.736640
-3.740639
-3.743182
-3.744721
-3.000000
-3.000000
-3.000000
-3.000000
0.000000
0.000000
0.000000
0.000000
-0.235157
-0.424302
-0.618058
-0.808816
-0.996678
-1.180903
-1.360863
-1.535950
-1.705594
-1.869264
-2.026472
-2.176779
-2.319793
-2.455179
-2.582657
-2.702006
-2.813070
-2.915753
-3.010027
-3.095928
-3.173563
-3.243103
-3.304783
-3.358906
-3.405831
-3.445977
-3.479812
-3.507846
-3.530628
-3.548729
-3.562738
-3.573245
-3.580833
-3.586061
-3.589454
-3.591489
-3.592583
-3.593083
-3.593260
-3.593293
-3.000000
-3.000000
-3.000000
-3.000000
0.000000
0.000000
0.000000
0.000000
-0.235145
-0.424279
-0.618021
-0.808758
-0.996591
-1.180775
-1.360674
-1.535676
-1.705201
-1.868706
-2.025686
-2.175682
-2.318275
-2.453100
-2.579836
-2.698217
-2.808029
-2.909117
-3.001379
-3.084776
-3.159334
-3.225142
-3.282361
-3.331223
-3.372038
-3.405197
-3.431169
-3.450506
-3.463839
-3.471872
-3.475373
-3.475161
-3.472084
-3.467002
-3.460758
-3.454150
-3.447898
-3.442622
-3.438841
-3.436325
-3.000000
-3.000000
-3.000000
-3.000000
0.000000
0.000000
0.000000
0.000000
-0.235145
-0.424279
-0.618021
-0.808758
-0.996591
-1.180774
-1.360674
-1.535675
-1.705200
-1.868703
-2.025680
-2.175671
-2.318257
-2.453067
-2.579780
-2.698122
-2.807872
-2.908857
-3.000956
-3.084099
-3.158264
-3.223474
-3.279797
-3.327345
-3.366262
-3.396729
-3.418962
-3.433209
-3.439763
-3.438975
-3.431288
-3.417268
-3.397672
-3.373506
-3.346102
-3.317179
-3.288865
-3.263653
-3.244500
-3.230705
-3.000000
-3.000000
-3.000000
-3.000000
0.000000
0.000000
0.000000
0.000000
-0.235145
-0.424279
-0.618021
-0.808758
-0.996591
-1.180774
-1.360674
-1.535675
-1.705200
-1.868703
-2.025680
-2.175671
-2.318257
-2.453067
-2.579780
-2.698122
-2.807872
-2.908857
-3.000956
-3.084099
-3.158264
-3.223474
-3.279797
-3.327345
-3.366262
-3.396729
-3.418962
-3.433208
-3.439761
-3.438970
-3.431273
-3.417230
-3.397572
-3.373253
-3.345480
-3.315692
-3.285403
-3.255988
-3.227323
-3.195241
-3.000000
-3.000000
-3.000000
-3.000000
0.000000
0.000000
0.000000
0.000000
-0.235145
-0.424279
-0.618021
-0.808758
-0.996591
-1.180774
-1.360674
-1.535675
-1.705200
-1.868703
-2.025680
-2.175671
-2.318257
-2.453067
-2.579780
-2.698122
-2.807872
-2.908857
-3.000956
-3.084099
-3.158264
-3.223474
-3.279797
-3.327345
-3.366262
-3.396729
-3.418962
-3.433208
-3.439761
-3.438970
-3.431273
-3.417230
-3.397572
-3.373253
-3.345480
-3.315692
-3.285403
-3.255988
-3.227323
-3.195241
-3.000000
-3.000000
-3.000000
-3.000000
0.000000
0.000000
0.000000
0.000000
-0.237562
-0.428646
-0.624398
-0.817132
-1.006954
-1.193115
-1.374975
-1.551915
-1.723351
-1.888730
-2.047541
-2.199312
-2.343615
-2.480069
-2.608338
-2.728138
-2.839232
-2.941434
-3.034609
-3.118673
-3.193589
-3.259367
-3.316064
-3.363777
-3.402642
-3.432828
-3.454541
-3.468024
-3.473564
-3.471513
-3.462312
-3.446537
-3.424946
-3.398532
-3.368562
-3.336549
-3.304089
-3.272630
-3.242028
-3.207829
0.000000
0.000000
0.000000
0.000000
-0.241758
-0.436240
-0.635510
-0.831762
-1.025118
-1.214826
-1.400245
-1.580752
-1.755753
-1.924687
-2.087026
-2.242283
-2.390010
-2.529801
-2.661295
-2.784179
-2.898185
-3.003094
-3.098738
-3.184996
-3.261796
-3.329115
-3.386974
-3.435436
-3.474607
-3.504627
-3.525676
-3.537975
-3.541796
-3.537484
-3.525487
-3.506407
-3.481053
-3.450503
-3.416146
-3.379651
-3.342786
-3.307154
-3.272572
-3.234000
0.000000
0.000000
0.000000
0.000000
-0.245640
-0.443283
-0.645855
-0.845452
-1.042223
-1.235425
-1.424426
-1.608606
-1.787370
-1.960151
-2.126413
-2.285651
-2.437396
-2.581217
-2.716720
-2.843553
-2.961407
-3.070018
-3.169165
-3.258677
-3.338425
-3.408330
-3.468355
-3.518509
-3.558841
-3.589438
-3.610433
-3.622003
-3.624385
-3.617904
-3.603006
-3.580313
-3.550695
-3.515333
-3.475769
-3.433872
-3.391631
-3.350855
-3.311315
-3.267241
0.000000
0.000000
0.000000
0.000000
-0.248752
-0.448955
-0.654245
-0.856660
-1.056388
-1.252715
-1.445029
-1.632731
-1.815238
-1.991991
-2.162453
-2.326113
-2.482485
-2.631113
-2.771571
-2.903463
-3.026430
-3.140144
-3.244318
-3.338701
-3.423082
-3.497292
-3.561201
-3.614721
-3.657802
-3.690438
-3.712667
-3.724581
-3.726343
-3.718221
-3.700633
-3.674212
-3.639887
-3.598965
-3.553183
-3.504677
-3.455733
-3.408437
-3.362517
-3.311260
0.000000
0.000000
0.000000
0.000000
-0.250634
-0.452418
-0.659440
-0.863729
-1.065525
-1.264157
-1.459056
-1.649661
-1.835427
-2.015827
-2.190348
-2.358499
-2.519802
-2.673799
-2.820050
-2.958131
-3.087637
-3.208181
-3.319394
-3.420932
-3.512468
-3.593701
-3.664355
-3.724180
-3.772955
-3.810493
-3.836651
-3.851342
-3.854565
-3.846446
-3.827303
-3.797727
-3.758683
-3.711618
-3.658519
-3.601885
-3.544419
-3.488609
-3.434135
-3.373024
0.000000
0.000000
0.000000
0.000000
-0.251257
-0.453588
-0.661249
-0.866291
-1.068997
-1.268741
-1.465003
-1.657278
-1.845081
-2.027947
-2.205432
-2.377112
-2.542578
-2.701436
-2.853301
-2.997795
-3.134539
-3.263151
-3.383242
-3.494408
-3.596229
-3.688265
-3.770056
-3.841118
-3.900950
-3.949041
-3.984886
-4.008012
-4.018024
-4.014674
-3.997954
-3.968218
-3.926329
-3.873807
-3.812920
-3.746649
-3.678307
-3.611003
-3.544367
-3.468612
0.000000
0.000000
0.000000
0.000000
-0.251305
-0.453682
-0.661406
-0.866535
-1.069364
-1.269281
-1.465790
-1.658412
-1.846699
-2.030234
-2.208635
-2.381553
-2.548677
-2.709730
-2.864465
-3.012665
-3.154136
-3.288696
-3.416162
-3.536338
-3.648991
-3.753824
-3.850454
-3.938374
-4.016926
-4.085281
-4.142433
-4.187211
-4.218340
-4.234548
-4.234728
-4.218166
-4.184820
-4.135612
-4.072643
-3.999221
-3.919375
-3.837112
-3.751853
-3.650817
0.000000
0.000000
0.000000
0.000000
-0.251305
-0.453682
-0.661407
-0.866536
-1.069365
-1.269283
-1.465794
-1.658418
-1.846710
-2.030254
-2.208669
-2.381614
-2.548784
-2.709912
-2.864774
-3.013183
-3.154992
-3.290093
-3.418412
-3.539911
-3.654585
-3.762458
-3.863582
-3.958031
-4.045903
-4.127311
-4.202381
-4.271251
-4.334060
-4.390947
-4.442027
-4.487365
-4.526908
-4.560327
-4.586710
-4.603934
-4.607364
-4.588611
-4.526830
-4.392657
0.000000
0.000000
0.000000
0.000000
-0.251305
-0.453682
-0.661407
-0.866536
-1.069365
-1.269283
-1.465794
-1.658418
-1.846710
-2.030254
-2.208669
-2.381614
-2.548784
-2.709912
-2.864774
-3.013183
-3.154992
-3.290093
-3.418412
-3.539911
-3.654585
-3.762458
-3.863582
-3.958032
-4.045904
-4.127311
-4.202383
-4.271257
-4.334078
-4.390997
-4.442161
-4.487720
-4.527813
-4.562575
-4.592126
-4.616576
-4.636020
-4.650532
-4.660110
-4.666095
0.000000
0.000000
0.000000
0.000000
-0.251305
-0.453682
-0.661407
-0.866536
-1.069365
-1.269283
-1.465794
-1.658418
-1.846710
-2.030254
-2.208669
-2.381614
-2.548784
-2.709912
-2.864774
-3.013183
-3.154992
-3.290093
-3.418412
-3.539911
-3.654585
-3.762458
-3.863582
-3.958032
-4.045904
-4.127311
-4.202383
-4.271257
-4.334078
-4.390997
-4.442161
-4.487720
-4.527813
-4.562575
-4.592126
-4.616576
-4.636020
-4.650532
-4.660110
-4.666095
0.000000
0.000000
0.000000
0.000000
-0.251305
-0.453682
-0.661407
-0.866536
-1.069365
-1.269283
-1.465794
-1.658418
-1.846710
-2.030254
-2.208669
-2.381614
-2.548784
-2.709912
-2.864774
-3.013183
-3.154992
-3.290093
-3.418412
-3.539911
-3.654585
-3.762458
-3.863582
-3.958032
-4.045904
-4.127311
-4.202383
-4.271257
-4.334078
-4.390997
-4.442161
-4.487720
-4.527813
-4.562575
-4.592126
-4.616576
-4.636020
-4.650532
-4.660110
-4.666095
0.000000
0.000000
0.000000
0.000000
-0.251305
-0.453682
-0.661407
-0.866536
-1.069365
-1.269283
-1.465794
-1.658418
-1.846710
-2.030254
-2.208669
-2.381614
-2.548784
-2.709912
-2.864774
-3.013183
-3.154992
-3.290093
-3.418412
-3.539911
-3.654585
-3.762458
-3.863582
-3.958032
-4.045904
-4.127311
-4.202383
-4.271257
-4.334078
-4.390997
-4.442161
-4.487720
-4.527813
-4.562575
-4.592126
-4.616576
-4.636020
-4.650532
-4.660110
-4.666095
0.000000
0.000000
0.000000
0.000000
-0.251305
-0.453682
-0.661407
-0.866536
-1.069365
-1.269283
-1.465794
-1.658418
-1.846710
-2.030254
-2.208669
-2.381614
-2.548784
-2.709912
-2.864774
-3.013183
-3.154992
-3.290093
-3.418412
-3.539911
-3.654585
-3.762458
-3.863582
-3.958032
-4.045904
-4.127311
-4.202383
-4.271257
-4.334078
-4.390997
-4.442161
-4.487720
-4.527813
-4.562575
-4.592126
-4.616576
-4.636020
-4.650532
-4.660110
-4.666095
0.000000
0.000000
0.000000
0.000000
-0.251305
-0.453682
-0.661407
-0.866536
-1.069365
-1.269283
-1.465794
-1.658418
-1.846710
-2.030254
-2.208669
-2.381614
-2.548784
-2.709912
-2.864774
-3.013183
-3.154992
-3.290093
-3.418412
-3.539911
-3.654585
-3.762458
-3.863582
-3.958032
-4.045904
-4.127311
-4.202383
-4.271257
-4.334078
-4.390997
-4.442161
-4.487720
-4.527813
-4.562575
-4.592126
-4.616576
-4.636020
-4.650532
-4.660110
-4.666095
0.000000
0.000000
0.000000
0.000000
-0.251305
-0.453682
-0.661407
-0.866536
-1.069365
-1.269283
-1.465794
-1.658418
-1.846710
-2.030254
-2.208669
-2.381614
-2.548784
-2.709912
-2.864774
-3.013183
-3.154992
-3.290093
-3.418412
-3.539911
-3.654585
-3.762458
-3.863582
-3.958032
-4.045904
-4.127311
-4.202383
-4.271257
-4.334078
-4.390997
-4.442161
-4.487720
-4.527813
-4.562575
-4.592126
-4.616576
-4.636020
-4.650532
-4.660110
-4.666095
0.000000
0.000000
0.000000
0.000000
-0.251305
-0.453682
-0.661407
-0.866536
-1.069365
-1.269283
-1.465794
-1.658418
-1.846710
-2.030254
-2.208669
-2.381614
-2.548784
-2.709912
-2.864774
-3.013183
-3.154992
-3.290093
-3.418412
-3.539911
-3.654585
-3.762458
-3.863582
-3.958032
-4.045904
-4.127311
-4.202383
-4.271257
-4.334078
-4.390997
-4.442161
-4.487720
-4.527813
-4.562575
-4.592126
-4.616576
-4.636020
-4.650532
-4.660110
-4.666095
0.000000
0.000000
0.000000
0.000000
-0.251305
-0.453682
-0.661407
-0.866536
-1.069365
-1.269283
-1.465794
-1.658418
-1.846710
-2.030254
-2.208669
-2.381614
-2.548784
-2.709912
-2.864774
-3.013183
-3.154992
-3.290093
-3.418412
-3.539911
-3.654585
-3.762458
-3.863582
-3.958032
-4.045904
-4.127311
-4.202383
-4.271257
-4.334078
-4.390997
-4.442161
-4.487720
-4.527813
-4.562575
-4.592126
-4.616576
-4.636020
-4.650532
-4.660110
-4.666095
0.000000
0.000000
0.000000
0.000000
-0.251305
-0.453682
-0.661407
-0.866536
-1.069365
-1.269283
-1.465794
-1.658418
-1.846710
-2.030254
-2.208669
-2.381614
-2.548784
-2.709912
-2.864774
-3.013183
-3.154992
-3.290093
-3.418412
-3.539911
-3.654585
-3.762458
-3.863582
-3.958032
-4.045904
-4.127311
-4.202383
-4.271257
-4.334078
-4.390997
-4.442161
-4.487720
-4.527813
-4.562575
-4.592126
-4.616576
-4.636020
-4.650532
-4.660110
-4.666095
0.000000
0.000000
0.000000
0.000000
-0.251305
-0.453682
-0.661407
-0.866536
-1.069365
-1.269283
-1.465794
-1.658418
-1.846710
-2.030254
-2.208669
-2.381614
-2.548784
-2.709912
-2.864774
-3.013183
-3.154992
-3.290093
-3.418412
-3.539911
-3.654585
-3.762458
-3.863582
-3.958032
-4.045904
-4.127311
-4.202383
-4.271257
-4.334078
-4.390997
-4.442161
-4.487720
-4.527813
-4.562575
-4.592126
-4.616576
-4.636020
-4.650532
-4.660110
-4.666095
0.000000
0.000000
0.000000
0.000000
-0.251305
-0.453682
-0.661407
-0.866536
-1.069365
-1.269283
-1.465794
-1.658418
-1.846710
-2.030254
-2.208669
-2.381614
-2.548784
-2.709912
-2.864774
-3.013183
-3.154992
-3.290093
-3.418412
-3.539911
-3.654585
-3.762458
-3.863582
-3.958032
-4.045904
-4.127311
-4.202383
-4.271257
-4.334078
-4.390997
-4.442161
-4.487720
-4.527813
-4.562575
-4.592126
-4.616576
-4.636020
-4.650532
-4.660110
-4.666095
0.000000
0.000000
0.000000
0.000000
-0.251305
-0.453682
-0.661407
-0.866536
-1.069365
-1.269283
-1.465794
-1.658418
-1.846710
-2.030254
-2.208669
-2.381614
-2.548784
-2.709912
-2.864774
-3.013183
-3.154992
-3.290093
-3.418412
-3.539911
-3.654585
-3.762458
-3.863582
-3.958032
-4.045904
-4.127311
-4.202383
-4.271257
-4.334078
-4.390997
-4.442161
-4.487720
-4.527813
-4.562575
-4.592126
-4.616576
-4.636020
-4.650532
-4.660110
-4.666095
0.000000
0.000000
0.000000
0.000000
-0.251305
-0.453682
-0.661407
-0.866536
-1.069365
-1.269283
-1.465794
-1.658418
-1.846710
-2.030254
-2.208669
-2.381614
-2.548784
-2.709912
-2.864774
-3.013183
-3.154992
-3.290093
-3.418412
-3.539911
-3.654585
-3.762458
-3.863582
-3.958032
-4.045904
-4.127311
-4.202383
-4.271257
-4.334078
-4.390997
-4.442161
-4.487720
-4.527813
-4.562575
-4.592126
-4.616576
-4.636020
-4.650532
-4.660110
-4.666095
0.000000
0.000000
0.000000
0.000000
-0.251305
-0.453682
-0.661407
-0.866536
-1.069365
-1.269283
-1.465794
-1.658418
-1.846710
-2.030254
-2.208669
-2.381614
-2.548784
-2.709912
-2.864774
-3.013183
-3.154992
-3.290093
-3.418412
-3.539911
-3.654585
-3.762458
-3.863582
-3.958032
-4.045904
-4.127311
-4.202383
-4.271257
-4.334078
-4.390997
-4.442161
-4.487720
-4.527813
-4.562575
-4.592126
-4.616576
-4.636020
-4.650532
-4.660110
-4.666095
0.000000
0.000000
0.000000
0.000000
-0.251305
-0.453682
-0.661407
-0.866536
-1.069365
-1.269283
-1.465794
-1.658418
-1.846710
-2.030254
-2.208669
-2.381614
-2.548784
-2.709912
-2.864774
-3.013183
-3.154992
-3.290093
-3.418412
-3.539911
-3.654585
-3.762458
-3.863582
-3.958032
-4.045904
-4.127311
-4.202383
-4.271257
-4.334078
-4.390997
-4.442161
-4.487720
-4.527813
-4.562575
-4.592126
-4.616576
-4.636020
-4.650532
-4.660110
-4.666095
0.000000
0.000000
0.000000
0.000000
-0.251305
-0.453682
-0.661407
-0.866536
-1.069365
-1.269283
-1.465794
-1.658418
-1.846710
-2.030254
-2.208669
-2.381614
-2.548784
-2.709912
-2.864774
-3.013183
-3.154992
-3.290093
-3.418412
-3.539911
-3.654585
-3.762458
-3.863582
-3.958032
-4.045904
-4.127311
-4.202383
-4.271257
-4.334078
-4.390997
-4.442161
-4.487720
-4.527813
-4.562575
-4.592126
-4.616576
-4.636020