<?xml version='1.0' encoding='UTF-8'?>
<VTKFile xmlns='VTK' byte_order='LittleEndian' version='0.1' type='UnstructuredGrid'>
<UnstructuredGrid>
<Piece NumberOfCells='1816' NumberOfPoints='1816'>
<Points>
<DataArray NumberOfComponents='3' type='Float32' Name='Position' format='ascii'>
2.370000 0.400000 0.000000
2.370000 0.412500 0.000000
2.370000 0.425000 0.000000
2.370000 0.437500 0.000000
2.370000 0.450000 0.000000
2.370000 0.462500 0.000000
2.370000 0.475000 0.000000
2.370000 0.487500 0.000000
2.407500 0.400000 0.000000
2.407500 0.412500 0.000000
2.407500 0.425000 0.000000
2.407500 0.437500 0.000000
2.407500 0.450000 0.000000
2.407500 0.462500 0.000000
2.407500 0.475000 0.000000
2.407500 0.487500 0.000000
0.025000 0.000000 0.000000
0.025000 0.012500 0.000000
0.025000 0.025000 0.000000
0.025000 0.037500 0.000000
0.025000 0.050000 0.000000
0.025000 0.062500 0.000000
0.025000 0.075000 0.000000
0.025000 0.087500 0.000000
0.025000 0.100000 0.000000
0.025000 0.112500 0.000000
0.025000 0.125000 0.000000
0.025000 0.137500 0.000000
0.025000 0.150000 0.000000
0.025000 0.162500 0.000000
0.025000 0.175000 0.000000
0.025000 0.187500 0.000000
0.025000 0.200000 0.000000
0.025000 0.212500 0.000000
0.025000 0.225000 0.000000
0.025000 0.237500 0.000000
0.025000 0.250000 0.000000
0.025000 0.262500 0.000000
0.025000 0.275000 0.000000
0.025000 0.287500 0.000000
0.025000 0.300000 0.000000
0.025000 0.312500 0.000000
0.025000 0.325000 0.000000
0.025000 0.337500 0.000000
0.025000 0.350000 0.000000
0.025000 0.362500 0.000000
0.025000 0.375000 0.000000
0.025000 0.387500 0.000000
2.445000 0.400000 0.000000
2.445000 0.412500 0.000000
2.445000 0.425000 0.000000
2.445000 0.437500 0.000000
2.445000 0.450000 0.000000
2.445000 0.462500 0.000000
2.445000 0.475000 0.000000
2.445000 0.487500 0.000000
0.062500 0.000000 0.000000
0.062500 0.012500 0.000000
0.062500 0.025000 0.000000
0.062500 0.037500 0.000000
0.062500 0.050000 0.000000
0.062500 0.062500 0.000000
0.062500 0.075000 0.000000
0.062500 0.087500 0.000000
0.062500 0.100000 0.000000
0.062500 0.112500 0.000000
0.062500 0.125000 0.000000
0.062500 0.137500 0.000000
0.062500 0.150000 0.000000
0.062500 0.162500 0.000000
0.062500 0.175000 0.000000
0.062500 0.187500 0.000000
0.062500 0.200000 0.000000
0.062500 0.212500 0.000000
0.062500 0.225000 0.000000
0.062500 0.237500 0.000000
0.062500 0.250000 0.000000
0.062500 0.262500 0.000000
0.062500 0.275000 0.000000
0.062500 0.287500 0.000000
0.062500 0.300000 0.000000
0.062500 0.312500 0.000000
0.062500 0.325000 0.000000
0.062500 0.337500 0.000000
0.062500 0.350000 0.000000
0.062500 0.362500 0.000000
0.062500 0.375000 0.000000
0.062500 0.387500 0.000000
2.482500 0.400000 0.000000
2.482500 0.412500 0.000000
2.482500 0.425000 0.000000
2.482500 0.437500 0.000000
2.482500 0.450000 0.000000
2.482500 0.462500 0.000000
2.482500 0.475000 0.000000
2.482500 0.487500 0.000000
0.100000 0.000000 0.000000
0.100000 0.012500 0.000000
0.100000 0.025000 0.000000
0.100000 0.037500 0.000000
0.100000 0.050000 0.000000
0.100000 0.062500 0.000000
0.100000 0.075000 0.000000
0.100000 0.087500 0.000000
0.100000 0.100000 0.000000
0.100000 0.112500 0.000000
0.100000 0.125000 0.000000
0.100000 0.137500 0.000000
0.100000 0.150000 0.000000
0.100000 0.162500 0.000000
0.100000 0.175000 0.000000
0.100000 0.187500 0.000000
0.100000 0.200000 0.000000
0.100000 0.212500 0.000000
0.100000 0.225000 0.000000
0.100000 0.237500 0.000000
0.100000 0.250000 0.000000
0.100000 0.262500 0.000000
0.100000 0.275000 0.000000
0.100000 0.287500 0.000000
0.100000 0.300000 0.000000
0.100000 0.312500 0.000000
0.100000 0.325000 0.000000
0.100000 0.337500 0.000000
0.100000 0.350000 0.000000
0.100000 0.362500 0.000000
0.100000 0.375000 0.000000
0.100000 0.387500 0.000000
2.520000 0.400000 0.000000
2.520000 0.412500 0.000000
2.520000 0.425000 0.000000
2.520000 0.437500 0.000000
2.520000 0.450000 0.000000
2.520000 0.462500 0.000000
2.520000 0.475000 0.000000
2.520000 0.487500 0.000000
0.137500 0.000000 0.000000
0.137500 0.012500 0.000000
0.137500 0.025000 0.000000
0.137500 0.037500 0.000000
0.137500 0.050000 0.000000
0.137500 0.062500 0.000000
0.137500 0.075000 0.000000
0.137500 0.087500 0.000000
0.137500 0.100000 0.000000
0.137500 0.112500 0.000000
0.137500 0.125000 0.000000
0.137500 0.137500 0.000000
0.137500 0.150000 0.000000
0.137500 0.162500 0.000000
0.137500 0.175000 0.000000
0.137500 0.187500 0.000000
0.137500 0.200000 0.000000
0.137500 0.212500 0.000000
0.137500 0.225000 0.000000
0.137500 0.237500 0.000000
0.137500 0.250000 0.000000
0.137500 0.262500 0.000000
0.137500 0.275000 0.000000
0.137500 0.287500 0.000000
0.137500 0.300000 0.000000
0.137500 0.312500 0.000000
0.137500 0.325000 0.000000
0.137500 0.337500 0.000000
0.137500 0.350000 0.000000
0.137500 0.362500 0.000000
0.137500 0.375000 0.000000
0.137500 0.387500 0.000000
2.557500 0.400000 0.000000
2.557500 0.412500 0.000000
2.557500 0.425000 0.000000
2.557500 0.437500 0.000000
2.557500 0.450000 0.000000
2.557500 0.462500 0.000000
2.557500 0.475000 0.000000
2.557500 0.487500 0.000000
0.175000 0.000000 0.000000
0.175000 0.012500 0.000000
0.175000 0.025000 0.000000
0.175000 0.037500 0.000000
0.175000 0.050000 0.000000
0.175000 0.062500 0.000000
0.175000 0.075000 0.000000
0.175000 0.087500 0.000000
0.175000 0.100000 0.000000
0.175000 0.112500 0.000000
0.175000 0.125000 0.000000
0.175000 0.137500 0.000000
0.175000 0.150000 0.000000
0.175000 0.162500 0.000000
0.175000 0.175000 0.000000
0.175000 0.187500 0.000000
0.175000 0.200000 0.000000
0.175000 0.212500 0.000000
0.175000 0.225000 0.000000
0.175000 0.237500 0.000000
0.175000 0.250000 0.000000
0.175000 0.262500 0.000000
0.175000 0.275000 0.000000
0.175000 0.287500 0.000000
0.175000 0.300000 0.000000
0.175000 0.312500 0.000000
0.175000 0.325000 0.000000
0.175000 0.337500 0.000000
0.175000 0.350000 0.000000
0.175000 0.362500 0.000000
0.175000 0.375000 0.000000
0.175000 0.387500 0.000000
2.595000 0.400000 0.000000
2.595000 0.412500 0.000000
2.595000 0.425000 0.000000
2.595000 0.437500 0.000000
2.595000 0.450000 0.000000
2.595000 0.462500 0.000000
2.595000 0.475000 0.000000
2.595000 0.487500 0.000000
0.212500 0.000000 0.000000
0.212500 0.012500 0.000000
0.212500 0.025000 0.000000
0.212500 0.037500 0.000000
0.212500 0.050000 0.000000
0.212500 0.062500 0.000000
0.212500 0.075000 0.000000
0.212500 0.087500 0.000000
0.212500 0.100000 0.000000
0.212500 0.112500 0.000000
0.212500 0.125000 0.000000
0.212500 0.137500 0.000000
0.212500 0.150000 0.000000
0.212500 0.162500 0.000000
0.212500 0.175000 0.000000
0.212500 0.187500 0.000000
0.212500 0.200000 0.000000
0.212500 0.212500 0.000000
0.212500 0.225000 0.000000
0.212500 0.237500 0.000000
0.212500 0.250000 0.000000
0.212500 0.262500 0.000000
0.212500 0.275000 0.000000
0.212500 0.287500 0.000000
0.212500 0.300000 0.000000
0.212500 0.312500 0.000000
0.212500 0.325000 0.000000
0.212500 0.337500 0.000000
0.212500 0.350000 0.000000
0.212500 0.362500 0.000000
0.212500 0.375000 0.000000
0.212500 0.387500 0.000000
2.632500 0.400000 0.000000
2.632500 0.412500 0.000000
2.632500 0.425000 0.000000
2.632500 0.437500 0.000000
2.632500 0.450000 0.000000
2.632500 0.462500 0.000000
2.632500 0.475000 0.000000
2.632500 0.487500 0.000000
0.250000 0.000000 0.000000
0.250000 0.012500 0.000000
0.250000 0.025000 0.000000
0.250000 0.037500 0.000000
0.250000 0.050000 0.000000
0.250000 0.062500 0.000000
0.250000 0.075000 0.000000
0.250000 0.087500 0.000000
0.250000 0.100000 0.000000
0.250000 0.112500 0.000000
0.250000 0.125000 0.000000
0.250000 0.137500 0.000000
0.250000 0.150000 0.000000
0.250000 0.162500 0.000000
0.250000 0.175000 0.000000
0.250000 0.187500 0.000000
0.250000 0.200000 0.000000
0.250000 0.212500 0.000000
0.250000 0.225000 0.000000
0.250000 0.237500 0.000000
0.250000 0.250000 0.000000
0.250000 0.262500 0.000000
0.250000 0.275000 0.000000
0.250000 0.287500 0.000000
0.250000 0.300000 0.000000
0.250000 0.312500 0.000000
0.250000 0.325000 0.000000
0.250000 0.337500 0.000000
0.250000 0.350000 0.000000
0.250000 0.362500 0.000000
0.250000 0.375000 0.000000
0.250000 0.387500 0.000000
2.670000 0.400000 0.000000
2.670000 0.412500 0.000000
2.670000 0.425000 0.000000
2.670000 0.437500 0.000000
2.670000 0.450000 0.000000
2.670000 0.462500 0.000000
2.670000 0.475000 0.000000
2.670000 0.487500 0.000000
0.287500 0.000000 0.000000
0.287500 0.012500 0.000000
0.287500 0.025000 0.000000
0.287500 0.037500 0.000000
0.287500 0.050000 0.000000
0.287500 0.062500 0.000000
0.287500 0.075000 0.000000
0.287500 0.087500 0.000000
0.287500 0.100000 0.000000
0.287500 0.112500 0.000000
0.287500 0.125000 0.000000
0.287500 0.137500 0.000000
0.287500 0.150000 0.000000
0.287500 0.162500 0.000000
0.287500 0.175000 0.000000
0.287500 0.187500 0.000000
0.287500 0.200000 0.000000
0.287500 0.212500 0.000000
0.287500 0.225000 0.000000
0.287500 0.237500 0.000000
0.287500 0.250000 0.000000
0.287500 0.262500 0.000000
0.287500 0.275000 0.000000
0.287500 0.287500 0.000000
0.287500 0.300000 0.000000
0.287500 0.312500 0.000000
0.287500 0.325000 0.000000
0.287500 0.337500 0.000000
0.287500 0.350000 0.000000
0.287500 0.362500 0.000000
0.287500 0.375000 0.000000
0.287500 0.387500 0.000000
2.707500 0.400000 0.000000
2.707500 0.412500 0.000000
2.707500 0.425000 0.000000
2.707500 0.437500 0.000000
2.707500 0.450000 0.000000
2.707500 0.462500 0.000000
2.707500 0.475000 0.000000
2.707500 0.487500 0.000000
0.325000 0.000000 0.000000
0.325000 0.012500 0.000000
0.325000 0.025000 0.000000
0.325000 0.037500 0.000000
0.325000 0.050000 0.000000
0.325000 0.062500 0.000000
0.325000 0.075000 0.000000
0.325000 0.087500 0.000000
0.325000 0.100000 0.000000
0.325000 0.112500 0.000000
0.325000 0.125000 0.000000
0.325000 0.137500 0.000000
0.325000 0.150000 0.000000
0.325000 0.162500 0.000000
0.325000 0.175000 0.000000
0.325000 0.187500 0.000000
0.325000 0.200000 0.000000
0.325000 0.212500 0.000000
0.325000 0.225000 0.000000
0.325000 0.237500 0.000000
0.325000 0.250000 0.000000
0.325000 0.262500 0.000000
0.325000 0.275000 0.000000
[...]
<PointData>
<DataArray NumberOfComponents='1' type='Int32' Name='ParticleType' format='ascii'>
5
5
5
5
5
5
5
5
5
5
5
5
5
5
5
5
2
2
2
2
2
2
2
2
2
2
2
2
2
2
2
2
2
2
2
2
2
2
2
2
1
1
0
0
0
0
0
0
5
5
5
5
5
5
5
5
2
2
2
2
2
2
2
2
2
2
2
2
2
2
2
2
2
2
2
2
2
2
2
1
1
0
0
0
0
0
0
0
5
5
5
5
5
5
5
5
2
2
2
2
2
2
2
2
2
2
2
2
2
2
2
2
2
2
2
2
2
2
2
1
1
0
0
0
0
0
0
0
5
5
5
5
5
5
5
5
2
2
2
2
2
2
2
2
2
2
2
2
2
2
2
2
2
2
2
2
2
2
1
1
0
0
0
0
0
0
0
0
5
5
5
5
5
5
5
5
2
2
2
2
2
2
2
2
2
2
2
2
2
2
2
2
2
2
2
2
2
2
1
1
0
0
0
0
0
0
0
0
5
5
5
5
5
5
5
5
2
2
2
2
2
2
2
2
2
2
2
2
2
2
2
2
2
2
2
2
2
2
1
1
0
0
0
0
0
0
0
0
5
5
5
5
5
5
5
5
2
2
2
2
2
2
2
2
2
2
2
2
2
2
2
2
2
2
2
2
2
2
1
1
0
0
0
0
0
0
0
0
5
5
5
5
5
5
5
5
2
2
2
2
2
2
2
2
2
2
2
2
2
2
2
2
2
2
2
2
2
2
1
1
0
0
0
0
0
0
0
0
5
5
5
5
5
5
5
5
2
2
2
2
2
2
2
2
2
2
2
2
2
2
2
2
2
2
2
2
2
2
1
0
0
0
0
0
0
0
0
0
5
5
5
5
5
5
5
5
2
2
2
2
2
2
2
2
2
2
2
2
2
2
2
2
2
2
2
2
2
2
1
0
0
0
0
0
0
0
0
0
5
5
5
5
5
5
5
5
2
2
2
2
2
2
2
2
2
2
2
2
2
2
2
2
2
2
2
2
2
1
1
0
0
0
0
0
0
0
0
0
5
5
5
5
5
5
5
5
2
2
2
2
2
2
2
2
2
2
2
2
2
2
2
2
2
2
2
2
2
1
1
0
0
0
0
0
0
0
0
0
5
5
5
5
5
5
5
5
2
2
2
2
2
2
2
2
2
2
2
2
2
2
2
2
2
2
2
2
2
1
1
0
0
0
0
0
0
0
0
0
5
5
5
5
5
5
5
5
2
2
2
2
2
2
2
2
2
2
2
2
2
2
2
2
2
2
2
2
2
1
1
0
0
0
0
0
0
0
0
0
2
2
2
2
2
2
2
2
2
2
2
2
2
2
2
2
2
2
2
2
2
1
1
0
0
0
0
0
0
0
0
0
2
2
2
2
2
2
2
2
2
2
2
2
2
2
2
2
2
2
2
2
2
1
1
0
0
0
0
0
0
0
0
0
2
2
2
2
2
2
2
2
2
2
2
2
2
2
2
2
2
2
2
2
2
1
1
0
0
0
0
0
0
0
0
0
2
2
2
2
2
2
2
2
2
2
2
2
2
2
2
2
2
2
2
2
2
1
1
0
0
0
0
0
0
0
0
0
2
2
2
2
2
2
2
2
2
2
2
2
2
2
2
2
2
2
2
2
2
1
1
0
0
0
0
0
0
0
0
0
2
2
2
2
2
2
2
2
2
2
2
2
2
2
2
2
2
2
2
2
2
1
1
0
0
0
0
0
0
0
0
0
2
2
2
2
2
2
2
2
2
2
2
2
2
2
2
2
2
2
2
2
2
1
1
0
0
0
0
0
0
0
0
0
2
2
2
2
2
2
2
2
2
2
2
2
2
2
2
2
2
2
2
2
2
2
1
1
0
0
0
0
0
0
0
0
2
2
2
2
2
2
2
2
2
2
2
2
2
2
2
2
2
2
2
2
2
2
1
0
0
0
0
0
0
0
0
0
2
2
2
2
2
2
2
2
2
2
2
2
2
2
2
2
2
2
2
2
2
2
1
1
0
0
0
0
0
0
0
0
2
2
2
2
2
2
2
2
2
2
2
2
2
2
2
2
2
2
2
2
2
2
1
1
0
0
0
0
0
0
0
0
2
2
2
2
2
2
2
2
2
2
2
2
2
2
2
2
2
2
2
2
2
2
1
1
0
0
0
0
0
0
0
0
2
2
2
2
2
2
2
2
2
2
2
2
2
2
2
2
2
2
2
2
2
2
1
1
0
0
0
0
0
0
0
0
2
2
2
2
2
2
2
2
2
2
2
2
2
2
2
2
2
2
2
2
2
2
1
1
0
0
0
0
0
0
0
0
2
2
2
2
2
2
2
2
2
2
2
2
2
2
2
2
2
2
2
2
2
2
1
1
0
0
0
0
0
0
0
0
2
2
2
2
2
2
2
2
2
2
2
2
2
2
2
2
2
2
2
2
2
2
1
1
0
0
0
0
0
0
0
0
2
2
2
2
2
2
2
2
2
2
2
2
2
2
2
2
2
2
2
2
2
2
1
1
0
0
0
0
0
0
0
0
2
2
2
2
2
2
2
2
2
2
2
2
2
2
2
2
2
2
2
2
2
2
1
1
0
0
0
0
0
0
0
0
2
2
2
2
2
2
2
2
2
2
2
2
2
2
2
2
2
2
2
2
2
2
2
1
0
0
0
0
0
0
0
0
2
2
2
2
2
2
2
2
2
2
2
2
2
2
2
2
2
2
2
2
2
2
1
1
0
0
0
0
0
0
0
0
2
2
2
2
2
2
2
2
2
2
2
2
2
2
2
2
2
2
2
2
2
2
2
1
1
0
0
0
0
0
0
0
2
2
2
2
2
2
2
2
2
2
2
2
2
2
2
2
2
2
2
2
2
2
1
1
0
0
0
0
0
0
0
0
2
2
2
2
2
2
2
2
2
2
2
2
2
2
2
2
2
2
2
2
2
2
2
1
1
0
0
0
0
0
0
0
2
2
2
2
2
2
2
2
2
2
2
2
2
2
2
2
2
2
2
2
2
2
2
1
1
0
0
0
0
0
0
0
2
2
2
2
2
2
2
2
2
2
2
2
2
2
2
2
2
2
2
2
2
2
2
1
1
0
0
0
0
0
0
0
2
2
2
2
2
2
2
2
2
2
2
2
2
2
2
2
2
2
2
2
2
2
2
1
1
0
0
0
0
0
0
0
2
2
2
2
2
2
2
2
2
2
2
2
2
2
2
2
2
2
2
2
2
2
2
1
1
0
0
0
0
0
0
0
2
2
2
2
2
2
2
2
2
2
2
2
2
2
2
2
2
2
2
2
2
2
2
1
1
0
0
0
0
0
0
0
2
2
2
2
2
2
2
2
2
2
2
2
2
2
2
2
2
2
2
2
2
2
2
1
1
0
0
0
0
0
0
0
2
2
2
2
2
2
2
2
2
2
2
2
2
2
2
2
2
2
2
2
2
2
2
1
1
0
0
0
0
0
0
0
2
2
2
2
2
2
2
2
2
2
2
2
2
2
2
2
2
2
2
2
2
2
2
1
1
0
0
0
0
0
0
0
2
2
2
2
2
2
2
2
2
2
2
2
2
2
2
2
2
2
2
2
2
2
2
1
1
0
0
0
0
0
0
0
2
2
2
2
2
2
2
2
2
2
2
2
2
2
2
2
2
2
2
2
2
2
2
2
1
0
0
0
0
0
0
0
2
2
2
2
2
2
2
2
2
2
2
2
2
2
2
2
2
2
2
2
2
2
2
2
1
1
0
0
0
0
0
0
2
2
2
2
2
2
2
2
2
2
2
2
2
2
2
2
2
2
2
2
2
2
2
2
1
1
0
0
0
0
0
0
2
2
2
2
2
2
2
2
2
2
2
2
2
2
2
2
2
2
2
2
2
2
2
2
1
1
0
0
0
0
0
0
2
2
2
2
2
2
2
2
2
2
2
2
2
2
2
2
2
2
2
2
2
2
2
2
1
1
0
0
0
0
0
0
2
2
2
2
2
2
2
2
2
2
2
2
2
2
2
2
2
2
2
2
2
2
2
2
1
1
0
0
0
0
0
0
2
2
2
2
2
2
2
2
2
2
2
2
2
2
2
2
2
2
2
2
2
2
2
2
1
1
0
0
0
0
0
0
</DataArray>
<DataArray NumberOfComponents='1' type='Float32' Name='Temperature' format='ascii'>
-3.000000
-3.000000
-3.000000
-3.000000
-3.000000
-3.000000
-3.000000
-3.000000
-3.000000
-3.000000
-3.000000
-3.000000
-3.000000
-3.000000
-3.000000
-3.000000
-4.762640
-4.749080
-4.727355
-4.694130
-4.648933
-4.590984
-4.519339
-4.432924
-4.330558
-4.210996
-4.072964
-3.915207
-3.736552
-3.535963
-3.312618
-3.065988
-2.795917
-2.502716
-2.187237
-1.850948
-1.496017
-1.124909
-0.744066
-0.336544
-0.004369
0.007405
13.510212
25.756397
39.129042
51.869671
61.963540
69.312885
-3.000000
-3.000000
-3.000000
-3.000000
-3.000000
-3.000000
-3.000000
-3.000000
-4.754292
-4.740182
-4.717569
-4.682979
-4.635913
-4.575549
-4.500891
-4.410800
-4.304017
-4.179195
-4.034926
-3.869775
-3.682323
-3.471207
-3.235182
-2.973201
-2.684518
-2.368823
-2.026393
-1.658289
-1.266176
-0.855113
-0.414497
-0.005888
0.004359
11.792254
25.517969
42.500426
61.056198
78.839308
92.934311
103.207716
-3.000000
-3.000000
-3.000000
-3.000000
-3.000000
-3.000000
-3.000000
-3.000000
-4.748728
-4.734255
-4.711061
-4.675577
-4.627284
-4.565332
-4.488687
-4.396168
-4.286474
-4.158214
-4.009951
-3.840245
-3.647709
-3.431070
-3.189250
-2.921451
-2.627261
-2.306774
-1.960715
-1.590632
-1.198490
-0.791635
-0.346741
-0.003330
0.005426
16.787020
34.603148
56.494089
80.413890
103.442412
121.760463
135.152686
-3.000000
-3.000000
-3.000000
-3.000000
-3.000000
-3.000000
-3.000000
-3.000000
-4.741719
-4.726703
-4.702629
-4.665785
-4.615617
-4.551225
-4.471519
-4.375261
-4.261100
-4.127609
-3.973335
-3.796847
-3.596769
-3.371802
-3.120708
-2.842234
-2.535000
-2.197397
-1.827667
-1.424288
-0.987724
-0.518718
-0.008890
-0.003047
8.115174
25.273655
47.240250
73.721927
102.467768
130.152425
152.227704
168.419852
-3.000000
-3.000000
-3.000000
-3.000000
-3.000000
-3.000000
-3.000000
-3.000000
-4.736826
-4.721408
-4.696681
-4.658826
-4.607260
-4.541034
-4.458999
-4.359839
-4.242099
-4.104216
-3.944557
-3.761464
-3.553300
-3.318516
-3.055738
-2.763885
-2.442313
-2.091005
-1.710818
-1.303246
-0.874532
-0.406947
-0.005722
0.002907
15.201413
33.928098
58.934674
89.225070
122.414617
154.567468
180.311568
199.261002
-3.000000
-3.000000
-3.000000
-3.000000
-3.000000
-3.000000
-3.000000
-3.000000
-4.735345
-4.719836
-4.694967
-4.656894
-4.605031
-4.538429
-4.455937
-4.356242
-4.237894
-4.099342
-3.938973
-3.755150
-3.546262
-3.310784
-3.047356
-2.754901
-2.432773
-2.080941
-1.700255
-1.292129
-0.863251
-0.391881
-0.005235
0.004586
16.753189
38.259619
67.024790
101.952627
140.290512
177.498766
207.333445
229.322719
-3.000000
-3.000000
-3.000000
-3.000000
-3.000000
-3.000000
-3.000000
-3.000000
-4.733229
-4.717600
-4.692538
-4.654171
-4.601912
-4.534803
-4.451686
-4.351234
-4.231981
-4.092359
-3.930735
-3.745461
-3.534924
-3.297618
-3.032237
-2.737791
-2.413752
-2.060221
-1.678174
-1.268980
-0.840209
-0.363010
-0.003959
0.004713
19.484011
43.553540
75.806583
114.996861
158.061658
199.893287
233.464174
258.234234
-3.000000
-3.000000
-3.000000
-3.000000
-3.000000
-3.000000
-3.000000
-3.000000
-4.730869
-4.715075
-4.689745
-4.650964
-4.598130
-4.530265
-4.446182
-4.344521
-4.223779
-4.082347
-3.918564
-3.730767
-3.517365
-3.276924
-3.008272
-2.710618
-2.383692
-2.027881
-1.644442
-1.234796
-0.807810
-0.325104
-0.007035
0.006723
22.998862
49.524397
85.043672
128.282844
175.961075
222.391037
259.721781
287.314708
-3.000000
-3.000000
-3.000000
-3.000000
-3.000000
-3.000000
-3.000000
-3.000000
-4.728657
-4.712634
-4.686926
-4.647544
-4.593849
-4.524815
-4.439194
-4.335560
-4.212343
-4.067878
-3.900473
-3.708475
-3.490365
-3.244855
-2.971001
-2.668321
-2.336907
-1.977519
-1.591723
-1.180692
-0.753403
-0.241700
-0.001682
1.086515
27.660614
56.566596
94.765211
141.310229
192.970552
243.553266
284.375919
314.641511
-3.000000
-3.000000
-3.000000
-3.000000
-3.000000
-3.000000
-3.000000
-3.000000
-4.726674
-4.710506
-4.684568
-4.644843
-4.590700
-4.521120
-4.434870
-4.330539
-4.206583
-4.061364
-3.893220
-3.700527
-3.481785
-3.235712
-2.961347
-2.658159
-2.326164
-1.966028
-1.579232
-1.166798
-0.738088
-0.216345
-0.003738
1.264963
29.632520
61.201770
102.889200
153.574230
209.762058
264.810676
309.296289
342.337440
-3.000000
-3.000000
-3.000000
-3.000000
-3.000000
-3.000000
-3.000000
-3.000000
-4.724461
-4.708089
-4.681823
-4.641591
-4.586751
-4.516269
-4.428892
-4.323195
-4.197612
-4.050483
-3.880097
-3.684729
-3.462663
-3.212174
-2.931488
-2.618720
-2.271876
-1.889075
-1.468933
-1.013292
-0.516820
-0.008117
0.000792
11.196173
34.440530
67.470951
111.622021
165.682765
225.833634
284.957909
332.865275
368.539711
-3.000000
-3.000000
-3.000000
-3.000000
-3.000000
-3.000000
-3.000000
-3.000000
-4.722975
-4.706493
-4.680048
-4.639536
-4.584302
-4.513298
-4.425253
-4.318725
-4.192132
-4.043805
-3.872034
-3.675114
-3.451369
-3.199155
-2.916822
-2.602670
-2.254941
-1.872035
-1.452810
-0.999531
-0.505119
-0.008952
0.000730
11.834921
37.090640
72.173404
119.004312
176.555111
240.911309
304.435649
356.064113
394.610284
-3.000000
-3.000000
-3.000000
-3.000000
-3.000000
-3.000000
-3.000000
-3.000000
-4.717864
-4.701204
-4.674480
-4.633557
-4.577790
-4.506135
-4.417324
-4.309900
-4.182244
-4.032607
-3.859137
-3.659909
-3.432961
-3.176339
-2.888180
-2.566867
-2.211261
-1.821100
-1.396976
-0.944690
-0.446596
-0.008131
0.000203
16.036702
40.603886
77.012055
126.308670
187.299081
255.625532
323.151875
378.104744
419.204274
-3.000000
-3.000000
-3.000000
-3.000000
-3.000000
-3.000000
-3.000000
-3.000000
-4.714335
-4.697507
-4.670512
-4.629167
-4.572814
-4.500391
-4.410603
-4.301963
-4.172811
-4.021354
-3.845695
-3.643880
-3.413945
-3.153997
-2.862335
-2.537625
-2.179138
-1.787108
-1.362482
-0.912201
-0.411895
-0.004455
0.002888
18.537760
44.631885
82.787858
134.297144
198.155586
269.901273
340.983686
398.940858
442.368724
-4.725086
-4.708662
-4.682306
-4.641925
-4.586857
-4.516038
-4.428171
-4.321761
-4.195137
-4.046486
-3.873876
-3.675292
-3.448669
-3.191948
-2.903171
-2.580642
-2.223174
-1.830493
-1.403190
-0.947338
-0.443647
-0.007356
0.003950
16.752495
42.206709
80.230015
132.164873
196.984697
270.172658
343.001593
402.598772
447.421130
-4.744197
-4.728436
-4.703128
-4.664319
-4.611334
-4.543101
-4.458316
-4.355479
-4.232926
-4.088871
-3.921440
-3.728707
-3.508711
-3.259445
-2.978811
-2.664570
-2.314368
-1.925999
-1.497861
-1.031996
-0.522583
-0.004026
-0.001762
11.871621
36.962903
74.542613
126.579202
192.135058
266.755226
341.517834
403.017994
449.498311
-4.754460
-4.738874
-4.713825
-4.675373
-4.622806
-4.555007
-4.470614
-4.368064
-4.245627
-4.101451
-3.933609
-3.740141
-3.519081
-3.268454
-2.986242
-2.670323
-2.318485
-1.928655
-1.499273
-1.032447
-0.520914
-0.005641
-0.001006
12.384283
38.693074
76.739612
129.070143
195.038448
270.437721
346.339551
409.040780
456.639699
-4.770858
-4.755744
-4.731423
-4.694037
-4.642830
-4.576633
-4.494021
-4.393355
-4.272826
-4.130500
-3.964390
-3.772519
-3.552983
-3.303992
-3.023836
-2.710752
-2.362682
-1.977029
-1.550691
-1.081851
-0.568836
-0.004648
-0.002384
9.570443
36.641105
73.995663
125.694821
191.614278
267.877984
345.423395
409.950418
459.252060
-4.781300
-4.766529
-4.742749
-4.706172
-4.656038
-4.591169
-4.510129
-4.411258
-4.292711
-4.152499
-3.988539
-3.798706
-3.580869
-3.332891
-3.052581
-2.737590
-2.385322
-1.993039
-1.558262
-1.081435
-0.559098
-0.006974
-0.002826
10.988838
36.144779
73.389929
125.670477
192.694290
270.401852
349.615998
415.720339
466.415192
-4.797222
-4.782996
-4.760065
-4.724742
-4.676225
-4.613296
-4.534457
-4.437979
-4.321928
-4.184224
-4.022702
-3.835196
-3.619640
-3.374175
-3.097259
-2.787733
-2.444725
-2.067137
-1.652355
-1.191794
-0.683155
-0.004496
-0.003825
5.220000
33.626774
70.349689
122.005761
188.956856
267.590396
348.606332
416.736659
469.345908
-4.806897
-4.793011
-4.770618
-4.736104
-4.688666
-4.627083
-4.549855
-4.455245
-4.341301
-4.205913
-4.046861
-3.861892
-3.648804
-3.405519
-3.130123
-2.820787
-2.475437
-2.091053
-1.662785
-1.183050
-0.651438
-0.007161
-0.004594
7.222475
32.812850
69.527475
121.857576
189.964224
270.078576
352.837318
422.657976
476.805709
-4.822011
-4.808704
-4.787217
-4.754042
-4.708341
-4.648852
-4.574018
-4.482027
-4.370835
-4.238216
-4.081820
-3.899253
-3.688178
-3.446438
-3.172209
-2.864159
-2.521625
-2.144763
-1.734803
-1.293028
-0.831155
-0.293086
-0.004951
0.009948
30.857588
66.618888
118.033111
185.952410
267.023258
351.740204
423.802127
480.103306
-4.830898
-4.817923
-4.796958
-4.764572
-4.719924
-4.661755
-4.588514
-4.498389
-4.389336
-4.259116
-4.105350
-3.925585
-3.717386
-3.478451
-3.206752
-2.900703
-2.559320
-2.182289
-1.769759
-1.319610
-0.834943
-0.191056
-0.006001
2.726757
29.558102
65.554426
117.774871
186.892748
269.468122
355.999731
429.876819
487.887747
-4.845142
-4.832777
-4.812769
-4.781803
-4.739008
-4.683086
-4.612434
-4.525169
-4.419153
-4.292031
-4.141280
-3.964283
-3.758417
-3.521181
-3.250353
-2.944177
-2.601577
-2.222375
-1.807584
-1.358564
-0.886062
-0.341734
-0.005780
0.008328
28.178010
62.727188
113.740799
182.566565
266.135924
354.798246
431.158262
491.599524
-4.853266
-4.841221
-4.821718
-4.791512
-4.749733
-4.695088
-4.625980
-4.540538
-4.436637
-4.311931
-4.163898
-3.989897
-3.787242
-3.553310
-3.285680
-2.982308
-2.641756
-2.263432
-1.847943
-1.396404
-0.918743
-0.371655
-0.006904
0.009326
26.473113
61.475182
113.397382
183.445813
268.526645
359.072434
437.386487
499.741264
-4.866598
-4.855193
-4.836695
-4.807988
-4.768174
-4.715929
-4.649611
-4.567282
-4.466729
-4.345490
-4.200896
-4.030125
-3.830287
-3.598525
-3.332174
-3.028959
-2.687243
-2.306306
-1.886721
-1.429757
-0.945152
-0.393403
-0.006584
0.006508
25.274226
58.590615
109.110010
178.767774
264.882306
357.746793
438.814551
503.921860
-4.874156
-4.863073
-4.845083
-4.817142
-4.778351
-4.727392
-4.662633
-4.582158
-4.483780
-4.365076
-4.223420
-4.056028
-3.860015
-3.632469
-3.370561
-3.071698
-2.733754
-2.355361
-1.936353
-1.477425
-0.986992
-0.431991
-0.007576
0.007809
23.015890
57.087781
108.650911
179.571063
267.199629
362.017347
445.195617
512.460809
-4.887577
-4.877249
-4.860456
-4.834319
-4.797933
-4.749978
-4.688818
-4.612519
-4.518874
-4.405424
-4.269490
-4.108215
-3.918598
-3.697547
-3.441937
-3.148715
-2.815084
-2.438805
-2.018709
-1.554760
-1.053546
-0.492522
-0.008519
0.004685
19.399978
51.929964
102.637722
173.768378
262.918498
360.468899
446.779920
517.194306
-4.896938
-4.887089
-4.871050
-4.846038
-4.811130
-4.764985
-4.705940
-4.632028
-4.541004
-4.430377
-4.297462
-4.139436
-3.953407
-3.736471
-3.485759
-3.198441
-2.871706
-2.502765
-2.089065
-1.628586
-1.123597
-0.563489
-0.007496
0.000252
14.718941
49.394356
100.338587
171.888895
262.217250
362.055940
451.162820
524.554991
-4.902223
-4.892600
-4.876913
-4.852425
-4.818205
-4.772904
-4.714848
-4.642054
-4.552258
-4.442943
-4.311387
-4.154719
-3.969976
-3.754161
-3.504271
-3.217298
-2.890213
-2.519988
-2.103851
-1.639625
-1.129648
-0.562604
-0.001584
0.000932
15.205182
49.422709
100.598768
172.809034
264.397090
366.255169
457.771762
533.819896
-4.912872
-4.903941
-4.889358
-4.866543
-4.834567
-4.792091
-4.737443
-4.668633
-4.583371
-4.479095
-4.353014
-4.202170
-4.023522
-3.814050
-3.570877
-3.291388
-2.973281
-2.614438
-2.212380
-1.763216
-1.259389
-0.699741
-0.009282
-0.003179
7.635700
43.557630
93.823767
166.109383
259.273931
364.244262
459.472119
539.410647
-4.918422
-4.909750
-4.895568
-4.873343
-4.842130
-4.800566
-4.746950
-4.679253
-4.595133
-4.491960
-4.366842
-4.216673
-4.038169
-3.827905
-3.582334
-3.297790
-2.970505
-2.596738
-2.173199
-1.697591
-1.172531
-0.588772
-0.002304
0.000333
14.946920
46.063071
95.713521
167.955643
261.898486
368.658601
466.341912
549.249000
-4.928143
-4.920170
-4.907104
-4.886578
-4.857654
-4.818988
-4.768894
-4.705351
-4.626012
-4.528224
-4.409062
-4.265380
-4.093885
-3.891242
-3.654212
-3.379819
-3.065567
-2.709682
-2.311376
-1.871271
-1.390222
-0.882049
-0.264304
-0.001635
0.958795
39.181940
88.263229
160.710554
256.325079
366.441198
468.226718
555.592269
-4.933112
-4.925397
-4.912733
-4.892798
-4.864640
-4.826893
-4.777844
-4.715434
-4.637273
-4.540653
-4.422582
-4.279837
-4.109021
-3.906643
-3.669176
-3.393067
-3.074625
-2.709741
-2.293528
-1.820272
-1.285117
-0.687325
-0.002501
-0.001641
10.469350
41.126647
89.888334
162.375382
258.722738
370.693552
475.186430
566.022247
-4.941726
-4.934702
-4.923142
-4.904896
-4.879026
-4.844196
-4.798721
-4.740565
-4.667347
-4.576349
-4.464542
-4.328623
-4.165079
-3.970275
-3.740582
-3.472548
-3.163123
-2.809932
-2.411584
-1.968126
-1.480145
-0.960352
-0.347483
-0.002530
0.008188
34.868797
82.380809
154.705126
252.688875
368.234807
477.255192
573.229760
-4.946113
-4.939343
-4.928181
-4.910522
-4.885414
-4.851501
-4.807069
-4.750048
-4.678010
-4.588180
-4.477463
-4.342482
-4.179643
-3.985231
-3.755538
-3.487026
-3.176499
-2.821193
-2.418475
-1.964623
-1.448959
-0.866856
-0.002635
-0.003305
5.308805
36.147181
83.793653
156.232249
254.837937
372.274707
484.280087
584.344498
-4.953625
-4.947527
-4.937447
-4.921446
-4.898601
-4.867594
-4.826753
-4.774045
-4.707072
-4.623075
-4.518947
-4.391265
-4.236331
-4.050245
-3.829003
-3.568650
-3.265491
-2.916386
-2.519127
-2.072983
-1.578148
-1.045181
-0.426061
-0.003340
0.005800
30.121184
76.056790
148.053852
248.276216
369.516277
486.519351
592.546450
-4.957453
-4.951606
-4.941917
-4.926497
-4.904407
-4.874312
-4.834513
-4.782943
-4.717155
-4.634329
-4.531289
-4.404525
-4.250251
-4.064473
-3.843102
-3.582115
-3.277775
-2.926938
-2.527432
-2.078609
-1.580741
-1.044877
-0.420379
-0.004419
0.009809
31.274702
77.468513
149.485731
250.141206
373.276491
493.571120
604.460044
-4.963882
-4.958681
-4.950035
-4.936225
-4.916347
-4.889116
-4.852889
-4.805648
-4.744997
-4.668149
-4.571945
-4.452867
-4.307084
-4.130495
-3.918807
-3.667630
-3.372623
-3.029743
-2.635622
-2.188212
-1.686799
-1.139344
-0.513333
-0.004009
0.003165
24.857578
69.319185
140.739125
242.987199
370.149153
495.954999
613.812867
-4.967173
-4.962216
-4.953953
-4.940712
-4.921576
-4.895245
-4.860050
-4.813937
-4.754457
-4.678758
-4.583592
-4.465337
-4.320034
-4.143444
-3.931131
-3.678579
-3.381376
-3.035503
-2.637745
-2.186352
-1.680941
-1.130315
-0.498555
-0.001370
0.008144
26.240410
70.859846
142.103101
244.524782
373.546936
502.978774
626.667270
-4.972522
-4.968167
-4.960881
-4.949154
-4.932113
-4.908510
-4.876730
-4.834764
-4.780176
-4.710080
-4.621123
-4.509475
-4.370843
-4.200514
-3.993448
-3.744441
-3.448413
-3.100821
-2.698239
-2.239138
-1.723850
-1.162138
-0.520803
-0.008036
0.003136
25.626934
65.192240
134.209473
237.256537
370.168839
505.542191
637.396926
-4.975073
-4.970913
-4.963932
-4.952654
-4.936193
-4.913284
-4.882290
-4.841181
-4.787505
-4.718384
-4.630514
-4.520192
-4.383357
-4.215664
-4.012551
-3.769333
-3.481284
-3.143759
-2.752418
-2.303752
-1.795496
-1.232263
-0.594825
-0.000449
0.003574
20.188548
63.984675
134.229701
238.038026
373.019640
512.459497
651.385614
-4.978360
-4.974555
-4.968144
-4.957740
-4.942467
-4.921074
-4.891935
-4.853016
-4.801853
-4.735533
-4.650703
-4.543592
-4.410070
-4.245732
-4.045998
-3.806211
-3.521719
-3.187910
-2.800263
-2.354620
-1.847569
-1.281042
-0.642040
-0.005494
0.005622
17.513610
61.554859
130.979017
235.047158
372.872377
517.684142
665.500859
-4.981596
-4.978187
-4.972420
-4.963017
-4.949132
-4.929555
-4.902702
-4.866581
-4.818759
-4.756339
-4.675957
-4.573806
-4.445682
-4.287082
-4.093320
-3.859660
-3.581418
-3.253964
-2.872587
-2.432290
-1.927796
-1.356194
-0.711958
-0.006884
-0.001929
13.899934
57.366892
126.003559
230.517104
371.385537
521.753997
679.007926
-4.984527
-4.981498
-4.976350
-4.967909
-4.955358
-4.937525
-4.912862
-4.879408
-4.834743
-4.775961
-4.699656
-4.601934
-4.478463
-4.324567
-4.135368
-3.905975
-3.631669
-3.308024
-2.930785
-2.495317
-1.995696
-1.423824
-0.777407
-0.001267
0.004782
10.538266
54.575884
122.062671
226.557953
370.328315
526.653899
694.750486
-4.987113
-4.984448
-4.979895
-4.972387
-4.961146
-4.945050
-4.922609
-4.891918
-4.850612
-4.795821
-4.724155
-4.631698
-4.514048
-4.366401
-4.183685
-3.960770
-3.692726
-3.375120
-3.004238
-2.576922
-2.089472
-1.531453
-0.900811
-0.007067
-0.004243
6.390489
50.308748
116.764062
221.361238
368.105199
530.457760
710.034174
-4.989397
-4.987073
-4.983080
-4.976454
-4.966453