<?xml version='1.0' encoding='UTF-8'?>
<VTKFile xmlns='VTK' byte_order='LittleEndian' version='0.1' type='UnstructuredGrid'>
<UnstructuredGrid>
<Piece NumberOfCells='1888' NumberOfPoints='1888'>
<Points>
<DataArray NumberOfComponents='3' type='Float32' Name='Position' format='ascii'>
-0.040000 -0.030000 0.000000
-0.040000 -0.020000 0.000000
-0.040000 -0.010000 0.000000
-0.040000 0.000000 0.000000
-0.040000 0.010000 0.000000
-0.040000 0.020000 0.000000
-0.040000 0.030000 0.000000
-0.040000 0.040000 0.000000
-0.040000 0.050000 0.000000
-0.040000 0.060000 0.000000
-0.040000 0.070000 0.000000
-0.040000 0.080000 0.000000
-0.040000 0.090000 0.000000
-0.040000 0.100000 0.000000
-0.040000 0.110000 0.000000
-0.040000 0.120000 0.000000
-0.040000 0.130000 0.000000
-0.040000 0.140000 0.000000
-0.040000 0.150000 0.000000
-0.040000 0.160000 0.000000
-0.040000 0.170000 0.000000
-0.040000 0.180000 0.000000
-0.040000 0.190000 0.000000
-0.040000 0.200000 0.000000
-0.040000 0.210000 0.000000
-0.040000 0.220000 0.000000
-0.040000 0.230000 0.000000
-0.040000 0.240000 0.000000
-0.040000 0.250000 0.000000
-0.040000 0.260000 0.000000
-0.040000 0.270000 0.000000
-0.040000 0.280000 0.000000
-0.040000 0.290000 0.000000
-0.040000 0.300000 0.000000
-0.040000 0.310000 0.000000
-0.040000 0.320000 0.000000
-0.040000 0.330000 0.000000
-0.040000 0.340000 0.000000
-0.040000 0.350000 0.000000
-0.040000 0.360000 0.000000
-0.040000 0.370000 0.000000
-0.040000 0.380000 0.000000
-0.040000 0.390000 0.000000
-0.040000 0.400000 0.000000
0.010000 -0.030000 0.000000
0.010000 -0.020000 0.000000
0.010000 -0.010000 0.000000
0.010000 0.000000 0.000000
0.010000 0.010000 0.000000
0.010000 0.020000 0.000000
0.010000 0.030000 0.000000
0.010000 0.040000 0.000000
0.010000 0.050000 0.000000
0.010000 0.060000 0.000000
0.010000 0.070000 0.000000
0.010000 0.080000 0.000000
0.010000 0.090000 0.000000
0.010000 0.100000 0.000000
0.010000 0.110000 0.000000
0.010000 0.120000 0.000000
0.010000 0.130000 0.000000
0.010000 0.140000 0.000000
0.010000 0.150000 0.000000
0.010000 0.160000 0.000000
0.010000 0.170000 0.000000
0.010000 0.180000 0.000000
0.010000 0.190000 0.000000
0.010000 0.200000 0.000000
0.010000 0.210000 0.000000
0.010000 0.220000 0.000000
0.010000 0.230000 0.000000
0.010000 0.240000 0.000000
0.010000 0.250000 0.000000
0.010000 0.260000 0.000000
0.010000 0.270000 0.000000
0.010000 0.280000 0.000000
0.010000 0.290000 0.000000
0.010000 0.300000 0.000000
0.010000 0.310000 0.000000
0.010000 0.320000 0.000000
0.010000 0.330000 0.000000
0.010000 0.340000 0.000000
0.010000 0.350000 0.000000
0.010000 0.360000 0.000000
0.010000 0.370000 0.000000
0.010000 0.380000 0.000000
0.010000 0.390000 0.000000
0.010000 0.400000 0.000000
0.372000 0.410000 0.000000
0.372000 0.420000 0.000000
0.372000 0.430000 0.000000
0.372000 0.440000 0.000000
0.060000 -0.030000 0.000000
0.060000 -0.020000 0.000000
0.060000 -0.010000 0.000000
0.060000 0.000000 0.000000
0.060000 0.010000 0.000000
0.060000 0.020000 0.000000
0.060000 0.030000 0.000000
0.060000 0.040000 0.000000
0.060000 0.050000 0.000000
0.060000 0.060000 0.000000
0.060000 0.070000 0.000000
0.060000 0.080000 0.000000
0.060000 0.090000 0.000000
0.060000 0.100000 0.000000
0.060000 0.110000 0.000000
0.060000 0.120000 0.000000
0.060000 0.130000 0.000000
0.060000 0.140000 0.000000
0.060000 0.150000 0.000000
0.060000 0.160000 0.000000
0.060000 0.170000 0.000000
0.060000 0.180000 0.000000
0.060000 0.190000 0.000000
0.060000 0.200000 0.000000
0.060000 0.210000 0.000000
0.060000 0.220000 0.000000
0.060000 0.230000 0.000000
0.060000 0.240000 0.000000
0.060000 0.250000 0.000000
0.060000 0.260000 0.000000
0.060000 0.270000 0.000000
0.060000 0.280000 0.000000
0.060000 0.290000 0.000000
0.060000 0.300000 0.000000
0.060000 0.310000 0.000000
0.060000 0.320000 0.000000
0.060000 0.330000 0.000000
0.060000 0.340000 0.000000
0.060000 0.350000 0.000000
0.060000 0.360000 0.000000
0.060000 0.370000 0.000000
0.060000 0.380000 0.000000
0.060000 0.390000 0.000000
0.060000 0.400000 0.000000
0.422000 0.410000 0.000000
0.422000 0.420000 0.000000
0.422000 0.430000 0.000000
0.422000 0.440000 0.000000
0.110000 -0.030000 0.000000
0.110000 -0.020000 0.000000
0.110000 -0.010000 0.000000
0.110000 0.000000 0.000000
0.110000 0.010000 0.000000
0.110000 0.020000 0.000000
0.110000 0.030000 0.000000
0.110000 0.040000 0.000000
0.110000 0.050000 0.000000
0.110000 0.060000 0.000000
0.110000 0.070000 0.000000
0.110000 0.080000 0.000000
0.110000 0.090000 0.000000
0.110000 0.100000 0.000000
0.110000 0.110000 0.000000
0.110000 0.120000 0.000000
0.110000 0.130000 0.000000
0.110000 0.140000 0.000000
0.110000 0.150000 0.000000
0.110000 0.160000 0.000000
0.110000 0.170000 0.000000
0.110000 0.180000 0.000000
0.110000 0.190000 0.000000
0.110000 0.200000 0.000000
0.110000 0.210000 0.000000
0.110000 0.220000 0.000000
0.110000 0.230000 0.000000
0.110000 0.240000 0.000000
0.110000 0.250000 0.000000
0.110000 0.260000 0.000000
0.110000 0.270000 0.000000
0.110000 0.280000 0.000000
0.110000 0.290000 0.000000
0.110000 0.300000 0.000000
0.110000 0.310000 0.000000
0.110000 0.320000 0.000000
0.110000 0.330000 0.000000
0.110000 0.340000 0.000000
0.110000 0.350000 0.000000
0.110000 0.360000 0.000000
0.110000 0.370000 0.000000
0.110000 0.380000 0.000000
0.110000 0.390000 0.000000
0.110000 0.400000 0.000000
0.472000 0.410000 0.000000
0.472000 0.420000 0.000000
0.472000 0.430000 0.000000
0.472000 0.440000 0.000000
0.160000 -0.030000 0.000000
0.160000 -0.020000 0.000000
0.160000 -0.010000 0.000000
0.160000 0.000000 0.000000
0.160000 0.010000 0.000000
0.160000 0.020000 0.000000
0.160000 0.030000 0.000000
0.160000 0.040000 0.000000
0.160000 0.050000 0.000000
0.160000 0.060000 0.000000
0.160000 0.070000 0.000000
0.160000 0.080000 0.000000
0.160000 0.090000 0.000000
0.160000 0.100000 0.000000
0.160000 0.110000 0.000000
0.160000 0.120000 0.000000
0.160000 0.130000 0.000000
0.160000 0.140000 0.000000
0.160000 0.150000 0.000000
0.160000 0.160000 0.000000
0.160000 0.170000 0.000000
0.160000 0.180000 0.000000
0.160000 0.190000 0.000000
0.160000 0.200000 0.000000
0.160000 0.210000 0.000000
0.160000 0.220000 0.000000
0.160000 0.230000 0.000000
0.160000 0.240000 0.000000
0.160000 0.250000 0.000000
0.160000 0.260000 0.000000
0.160000 0.270000 0.000000
0.160000 0.280000 0.000000
0.160000 0.290000 0.000000
0.160000 0.300000 0.000000
0.160000 0.310000 0.000000
0.160000 0.320000 0.000000
0.160000 0.330000 0.000000
0.160000 0.340000 0.000000
0.160000 0.350000 0.000000
0.160000 0.360000 0.000000
0.160000 0.370000 0.000000
0.160000 0.380000 0.000000
0.160000 0.390000 0.000000
0.160000 0.400000 0.000000
0.522000 0.410000 0.000000
0.522000 0.420000 0.000000
0.522000 0.430000 0.000000
0.522000 0.440000 0.000000
0.210000 -0.030000 0.000000
0.210000 -0.020000 0.000000
0.210000 -0.010000 0.000000
0.210000 0.000000 0.000000
0.210000 0.010000 0.000000
0.210000 0.020000 0.000000
0.210000 0.030000 0.000000
0.210000 0.040000 0.000000
0.210000 0.050000 0.000000
0.210000 0.060000 0.000000
0.210000 0.070000 0.000000
0.210000 0.080000 0.000000
0.210000 0.090000 0.000000
0.210000 0.100000 0.000000
0.210000 0.110000 0.000000
0.210000 0.120000 0.000000
0.210000 0.130000 0.000000
0.210000 0.140000 0.000000
0.210000 0.150000 0.000000
0.210000 0.160000 0.000000
0.210000 0.170000 0.000000
0.210000 0.180000 0.000000
0.210000 0.190000 0.000000
0.210000 0.200000 0.000000
0.210000 0.210000 0.000000
0.210000 0.220000 0.000000
0.210000 0.230000 0.000000
0.210000 0.240000 0.000000
0.210000 0.250000 0.000000
0.210000 0.260000 0.000000
0.210000 0.270000 0.000000
0.210000 0.280000 0.000000
0.210000 0.290000 0.000000
0.210000 0.300000 0.000000
0.210000 0.310000 0.000000
0.210000 0.320000 0.000000
0.210000 0.330000 0.000000
0.210000 0.340000 0.000000
0.210000 0.350000 0.000000
0.210000 0.360000 0.000000
0.210000 0.370000 0.000000
0.210000 0.380000 0.000000
0.210000 0.390000 0.000000
0.210000 0.400000 0.000000
0.572000 0.410000 0.000000
0.572000 0.420000 0.000000
0.572000 0.430000 0.000000
0.572000 0.440000 0.000000
0.260000 -0.030000 0.000000
0.260000 -0.020000 0.000000
0.260000 -0.010000 0.000000
0.260000 0.000000 0.000000
0.260000 0.010000 0.000000
0.260000 0.020000 0.000000
0.260000 0.030000 0.000000
0.260000 0.040000 0.000000
0.260000 0.050000 0.000000
0.260000 0.060000 0.000000
0.260000 0.070000 0.000000
0.260000 0.080000 0.000000
0.260000 0.090000 0.000000
0.260000 0.100000 0.000000
0.260000 0.110000 0.000000
0.260000 0.120000 0.000000
0.260000 0.130000 0.000000
0.260000 0.140000 0.000000
0.260000 0.150000 0.000000
0.260000 0.160000 0.000000
0.260000 0.170000 0.000000
0.260000 0.180000 0.000000
0.260000 0.190000 0.000000
0.260000 0.200000 0.000000
0.260000 0.210000 0.000000
0.260000 0.220000 0.000000
0.260000 0.230000 0.000000
0.260000 0.240000 0.000000
0.260000 0.250000 0.000000
0.260000 0.260000 0.000000
0.260000 0.270000 0.000000
0.260000 0.280000 0.000000
0.260000 0.290000 0.000000
0.260000 0.300000 0.000000
0.260000 0.310000 0.000000
0.260000 0.320000 0.000000
0.260000 0.330000 0.000000
0.260000 0.340000 0.000000
0.260000 0.350000 0.000000
0.260000 0.360000 0.000000
0.260000 0.370000 0.000000
0.260000 0.380000 0.000000
0.260000 0.390000 0.000000
0.260000 0.400000 0.000000
0.622000 0.410000 0.000000
0.622000 0.420000 0.000000
0.622000 0.430000 0.000000
0.622000 0.440000 0.000000
0.310000 -0.030000 0.000000
0.310000 -0.020000 0.000000
0.310000 -0.010000 0.000000
0.310000 0.000000 0.000000
0.310000 0.010000 0.000000
0.310000 0.020000 0.000000
0.310000 0.030000 0.000000
0.310000 0.040000 0.000000
0.310000 0.050000 0.000000
0.310000 0.060000 0.000000
0.310000 0.070000 0.000000
0.310000 0.080000 0.000000
0.310000 0.090000 0.000000
0.310000 0.100000 0.000000
0.310000 0.110000 0.000000
0.310000 0.120000 0.000000
0.310000 0.130000 0.000000
0.310000 0.140000 0.000000
0.310000 0.150000 0.000000
0.310000 0.160000 0.000000
0.310000 0.170000 0.000000
0.310000 0.180000 0.000000
0.310000 0.190000 0.000000
0.310000 0.200000 0.000000
0.310000 0.210000 0.000000
[...]
<PointData>
<DataArray NumberOfComponents='1' type='Int32' Name='ParticleType' format='ascii'>
4
4
4
4
4
4
4
4
4
4
4
4
4
4
4
4
4
4
4
4
4
4
4
4
4
4
4
4
4
4
4
4
4
4
4
4
4
4
4
4
4
4
4
4
4
4
3
3
2
2
2
2
2
2
2
2
2
2
2
2
2
2
2
2
2
2
2
2
2
2
2
2
2
2
2
2
2
2
2
2
2
2
2
2
2
2
2
2
5
5
5
5
4
4
3
3
2
2
2
2
2
2
2
2
2
2
2
2
2
2
2
2
2
2
2
2
2
2
2
2
2
2
2
2
2
2
2
2
2
2
2
2
2
2
2
2
5
5
5
5
4
4
3
3
2
2
2
2
2
2
2
2
2
2
2
2
2
2
2
2
2
2
2
2
2
2
2
2
2
2
2
2
2
2
2
2
2
2
2
2
2
2
2
2
5
5
5
5
4
4
3
3
2
2
2
2
2
2
2
2
2
2
2
2
2
2
2
2
2
2
2
2
2
2
2
2
2
2
2
2
2
2
2
2
2
2
2
2
2
2
2
2
5
5
5
5
4
4
3
3
2
2
2
2
2
2
2
2
2
2
2
2
2
2
2
2
2
2
2
2
2
2
2
2
2
2
2
2
2
2
2
2
2
2
2
2
2
2
2
2
5
5
5
5
4
4
3
3
2
2
2
2
2
2
2
2
2
2
2
2
2
2
2
2
2
2
2
2
2
2
2
2
2
2
2
2
2
2
2
2
2
2
2
2
2
2
2
2
5
5
5
5
4
4
3
3
2
2
2
2
2
2
2
2
2
2
2
2
2
2
2
2
2
2
2
2
2
2
2
2
2
2
2
2
2
2
2
2
2
2
2
2
2
2
2
2
5
5
5
5
4
4
3
3
2
2
2
2
2
2
2
2
2
2
2
2
2
2
2
2
2
2
2
2
2
2
2
2
2
2
2
2
2
2
2
2
2
2
2
2
2
2
2
2
5
5
5
5
4
4
3
3
2
2
2
2
2
2
2
2
2
2
2
2
2
2
2
2
2
2
2
2
2
2
2
2
2
2
2
2
2
2
2
2
2
2
2
2
2
2
2
2
5
5
5
5
4
4
3
3
2
2
2
2
2
2
2
2
2
2
2
2
2
2
2
2
2
2
2
2
2
2
2
2
2
2
2
2
2
2
2
2
2
2
2
2
2
2
2
2
5
5
5
5
4
4
3
3
2
2
2
2
2
2
2
2
2
2
2
2
2
2
2
2
2
2
2
2
2
2
2
2
2
2
2
2
2
2
2
2
2
2
2
2
2
2
2
2
4
4
3
3
2
2
2
2
2
2
2
2
2
2
2
2
2
2
2
2
2
2
2
2
2
2
2
2
2
2
2
2
2
2
2
2
2
2
2
2
2
2
2
2
4
4
3
3
2
2
2
2
2
2
2
2
2
2
2
2
2
2
2
2
2
2
2
2
2
2
2
2
2
2
2
2
2
2
2
2
2
2
2
2
2
2
2
2
4
4
3
3
2
2
2
2
2
2
2
2
2
2
2
2
2
2
2
2
2
2
2
2
2
2
2
2
2
2
2
2
2
2
2
2
2
2
2
2
2
2
2
2
4
4
3
3
2
2
2
2
2
2
2
2
2
2
2
2
2
2
2
2
2
2
2
2
2
2
2
2
2
2
2
2
2
2
2
2
2
2
2
2
2
2
2
2
4
4
3
3
2
2
2
2
2
2
2
2
2
2
2
2
2
2
2
2
2
2
2
2
2
2
2
2
2
2
2
2
2
2
2
2
2
2
2
2
2
2
2
2
4
4
3
3
2
2
2
2
2
2
2
2
2
2
2
2
2
2
2
2
2
2
2
2
2
2
2
2
2
2
2
2
2
2
2
2
2
2
2
2
2
2
2
2
4
4
3
3
2
2
2
2
2
2
2
2
2
2
2
2
2
2
2
2
2
2
2
2
2
2
2
2
2
2
2
2
2
2
2
2
2
2
2
2
2
2
2
2
4
4
3
3
2
2
2
2
2
2
2
2
2
2
2
2
2
2
2
2
2
2
2
2
2
2
2
2
2
2
2
2
2
2
2
2
2
2
2
2
2
2
2
2
4
4
3
3
2
2
2
2
2
2
2
2
2
2
2
2
2
2
2
2
2
2
2
2
2
2
2
2
2
2
2
2
2
2
2
2
2
2
2
2
2
2
2
2
4
4
3
3
2
2
2
2
2
2
2
2
2
2
2
2
2
2
2
2
2
2
2
2
2
2
2
2
2
2
2
2
2
2
2
2
2
2
2
2
2
2
2
2
4
4
3
3
2
2
2
2
2
2
2
2
2
2
2
2
2
2
2
2
2
2
2
2
2
2
2
2
2
2
2
2
2
2
2
2
2
2
2
2
2
2
2
2
4
4
3
3
2
2
2
2
2
2
2
2
2
2
2
2
2
2
2
2
2
2
2
2
2
2
2
2
2
2
2
2
2
2
2
2
2
2
2
2
2
2
2
2
4
4
3
3
2
2
2
2
2
2
2
2
2
2
2
2
2
2
2
2
2
2
2
2
2
2
2
2
2
2
2
2
2
2
2
2
2
2
2
2
2
2
2
2
4
4
3
3
2
2
2
2
2
2
2
2
2
2
2
2
2
2
2
2
2
2
2
2
2
2
2
2
2
2
2
2
2
2
2
2
2
2
2
2
2
2
2
2
4
4
3
3
2
2
2
2
2
2
2
2
2
2
2
2
2
2
2
2
2
2
2
2
2
2
2
2
2
2
2
2
2
2
2
2
2
2
2
2
2
2
2
2
4
4
3
3
2
2
2
2
2
2
2
2
2
2
2
2
2
2
2
2
2
2
2
2
2
2
2
2
2
2
2
2
2
2
2
2
2
2
2
2
2
2
2
2
4
4
3
3
2
2
2
2
2
2
2
2
2
2
2
2
2
2
2
2
2
2
2
2
2
2
2
2
2
2
2
2
2
2
2
2
2
2
2
2
2
2
2
2
4
4
3
3
2
2
2
2
2
2
2
2
2
2
2
2
2
2
2
2
2
2
2
2
2
2
2
2
2
2
2
2
2
2
2
2
2
2
2
2
2
2
2
2
4
4
3
3
2
2
2
2
2
2
2
2
2
2
2
2
2
2
2
2
2
2
2
2
2
2
2
2
2
2
2
2
2
2
2
2
2
2
2
2
2
2
2
2
4
4
3
3
2
2
2
2
2
2
2
2
2
2
2
2
2
2
2
2
2
2
2
2
2
2
2
2
2
2
2
2
2
2
2
2
2
2
2
2
2
2
2
2
4
4
3
3
2
2
2
2
2
2
2
2
2
2
2
2
2
2
2
2
2
2
2
2
2
2
2
2
2
2
2
2
2
2
2
2
2
2
2
2
2
2
2
2
4
4
3
3
2
2
2
2
2
2
2
2
2
2
2
2
2
2
2
2
2
2
2
2
2
2
2
2
2
2
2
2
2
2
2
2
2
2
2
2
2
2
2
2
4
4
3
3
2
2
2
2
2
2
2
2
2
2
2
2
2
2
2
2
2
2
2
2
2
2
2
2
2
2
2
2
2
2
2
2
2
2
2
2
2
2
2
2
4
4
3
3
2
2
2
2
2
2
2
2
2
2
2
2
2
2
2
2
2
2
2
2
2
2
2
2
2
2
2
2
2
2
2
2
2
2
2
2
2
2
2
2
4
4
3
3
2
2
2
2
2
2
2
2
2
2
2
2
2
2
2
2
2
2
2
2
2
2
2
2
2
2
2
2
2
2
2
2
2
2
2
2
2
2
2
2
4
4
3
3
2
2
2
2
2
2
2
2
2
2
2
2
2
2
2
2
2
2
2
2
2
2
2
2
2
2
2
2
2
2
2
2
2
2
2
2
2
2
2
2
4
4
3
3
2
2
2
2
2
2
2
2
2
2
2
2
2
2
2
2
2
2
2
2
2
2
2
2
2
2
2
2
2
2
2
2
2
2
2
2
2
2
2
2
4
4
3
3
2
2
2
2
2
2
2
2
2
2
2
2
2
2
2
2
2
2
2
2
2
2
2
2
2
2
2
2
2
2
2
2
2
2
2
2
2
2
2
2
4
4
3
3
2
2
2
2
2
2
2
2
2
2
2
2
2
2
2
2
2
2
2
2
2
2
2
2
2
2
2
2
2
2
2
2
2
2
2
2
2
2
2
2
4
4
3
3
3
3
3
3
3
3
3
3
3
3
3
3
3
3
3
3
3
3
3
3
3
3
3
3
3
3
3
3
3
3
3
3
3
3
3
3
3
3
3
3
</DataArray>
<DataArray NumberOfComponents='1' type='Float32' Name='Temperature' format='ascii'>
0.000000
0.000000
0.000000
0.000000
0.000000
0.000000
0.000000
0.000000
0.000000
0.000000
0.000000
0.000000
0.000000
0.000000
0.000000
0.000000
0.000000
0.000000
0.000000
0.000000
0.000000
0.000000
0.000000
0.000000
0.000000
0.000000
0.000000
0.000000
0.000000
0.000000
0.000000
0.000000
0.000000
0.000000
0.000000
0.000000
0.000000
0.000000
0.000000
0.000000
0.000000
0.000000
0.000000
0.000000
0.000000
0.000000
0.000000
0.000000
-0.253154
-0.456936
-0.665957
-0.872153
-1.075762
-1.276112
-1.472651
-1.664854
-1.852230
-2.034331
-2.210750
-2.381126
-2.545144
-2.702539
-2.853093
-2.996637
-3.133049
-3.262253
-3.384218
-3.498955
-3.606513
-3.706978
-3.800468
-3.887130
-3.967132
-4.040666
-4.107937
-4.169163
-4.224566
-4.274372
-4.318805
-4.358082
-4.392411
-4.421986
-4.446984
-4.467563
-4.483858
-4.495978
-4.503958
-4.508934
-3.000000
-3.000000
-3.000000
-3.000000
0.000000
0.000000
0.000000
0.000000
-0.248348
-0.448201
-0.653094
-0.855070
-1.054318
-1.250140
-1.441958
-1.629220
-1.811416
-1.988078
-2.158786
-2.323170
-2.480909
-2.631737
-2.775441
-2.911862
-3.040892
-3.162479
-3.276615
-3.383345
-3.482754
-3.574969
-3.660157
-3.738513
-3.810262
-3.875652
-3.934948
-3.988429
-4.036380
-4.079089
-4.116840
-4.149911
-4.178565
-4.203048
-4.223586
-4.240380
-4.253601
-4.263388
-4.269809
-4.273803
-3.000000
-3.000000
-3.000000
-3.000000
0.000000
0.000000
0.000000
0.000000
-0.245673
-0.443323
-0.645874
-0.845414
-1.042097
-1.235193
-1.424099
-1.608236
-1.787071
-1.960116
-2.126931
-2.287132
-2.440388
-2.586425
-2.725027
-2.856038
-2.979358
-3.094947
-3.202817
-3.303036
-3.395722
-3.481037
-3.559187
-3.630418
-3.695005
-3.753251
-3.805483
-3.852040
-3.893273
-3.929533
-3.961170
-3.988525
-4.011922
-4.031665
-4.048034
-4.061275
-4.071602
-4.079189
-4.084138
-4.087201
-3.000000
-3.000000
-3.000000
-3.000000
0.000000
0.000000
0.000000
0.000000
-0.244278
-0.440765
-0.642051
-0.840240
-1.035448
-1.226921
-1.414025
-1.596155
-1.772749
-1.943294
-2.107325
-2.264436
-2.414274
-2.556549
-2.691033
-2.817560
-2.936027
-3.046395
-3.148687
-3.242986
-3.329431
-3.408217
-3.479589
-3.543837
-3.601292
-3.652317
-3.697306
-3.736670
-3.770838
-3.800242
-3.825312
-3.846471
-3.864123
-3.878649
-3.890398
-3.899684
-3.906774
-3.911891
-3.915183
-3.917198
-3.000000
-3.000000
-3.000000
-3.000000
0.000000
0.000000
0.000000
0.000000
-0.243759
-0.439800
-0.640583
-0.838203
-1.032755
-1.223460
-1.409657
-1.590716
-1.766046
-1.935104
-2.097394
-2.252476
-2.399967
-2.539545
-2.670951
-2.793991
-2.908538
-3.014535
-3.111991
-3.200984
-3.281658
-3.354221
-3.418945
-3.476157
-3.526239
-3.569618
-3.606763
-3.638174
-3.664375
-3.685907
-3.703313
-3.717132
-3.727887
-3.736076
-3.742157
-3.746546
-3.749603
-3.751623
-3.752830
-3.753521
-3.000000
-3.000000
-3.000000
-3.000000
0.000000
0.000000
0.000000
0.000000
-0.243674
-0.439637
-0.640324
-0.837825
-1.032223
-1.222727
-1.408663
-1.589384
-1.764277
-1.932774
-2.094352
-2.248537
-2.394907
-2.533097
-2.662801
-2.783775
-2.895839
-2.998880
-3.092854
-3.177790
-3.253787
-3.321022
-3.379742
-3.430271
-3.473006
-3.508412
-3.537022
-3.559426
-3.576265
-3.588223
-3.596009
-3.600350
-3.601967
-3.601564
-3.599810
-3.597315
-3.594621
-3.592180
-3.590360
-3.589117
-3.000000
-3.000000
-3.000000
-3.000000
0.000000
0.000000
0.000000
0.000000
-0.243672
-0.439634
-0.640318
-0.837815
-1.032207
-1.222701
-1.408623
-1.589321
-1.764180
-1.932626
-2.094128
-2.248200
-2.394405
-2.532360
-2.661728
-2.782230
-2.893640
-2.995785
-3.088549
-3.171871
-3.245748
-3.310236
-3.365453
-3.411585
-3.448891
-3.477710
-3.498472
-3.511706
-3.518050
-3.518257
-3.513197
-3.503854
-3.491309
-3.476719
-3.461277
-3.446166
-3.432504
-3.421281
-3.413365
-3.408154
-3.000000
-3.000000
-3.000000
-3.000000
0.000000
0.000000
0.000000
0.000000
-0.243672
-0.439634
-0.640318
-0.837815
-1.032207
-1.222701
-1.408623
-1.589321
-1.764180
-1.932626
-2.094128
-2.248199
-2.394405
-2.532359
-2.661727
-2.782228
-2.893634
-2.995774
-3.088528
-3.171831
-3.245672
-3.310096
-3.365198
-3.411129
-3.448089
-3.476324
-3.496120
-3.507788
-3.511646
-3.507998
-3.497101
-3.479145
-3.454243
-3.422455
-3.383871
-3.338781
-3.287860
-3.232959
-3.174756
-3.117664
-3.000000
-3.000000
-3.000000
-3.000000
0.000000
0.000000
0.000000
0.000000
-0.243672
-0.439634
-0.640318
-0.837815
-1.032207
-1.222701
-1.408623
-1.589321
-1.764180
-1.932626
-2.094128
-2.248199
-2.394405
-2.532359
-2.661727
-2.782228
-2.893634
-2.995774
-3.088528
-3.171831
-3.245672
-3.310096
-3.365198
-3.411129
-3.448089
-3.476324
-3.496120
-3.507788
-3.511646
-3.507998
-3.497101
-3.479145
-3.454243
-3.422455
-3.383871
-3.338781
-3.287860
-3.232959
-3.174756
-3.117664
-3.000000
-3.000000
-3.000000
-3.000000
0.000000
0.000000
0.000000
0.000000
-0.243672
-0.439634
-0.640318
-0.837815
-1.032207
-1.222701
-1.408623
-1.589321
-1.764180
-1.932626
-2.094128
-2.248199
-2.394405
-2.532359
-2.661727
-2.782228
-2.893634
-2.995774
-3.088528
-3.171831
-3.245672
-3.310096
-3.365198
-3.411129
-3.448089
-3.476324
-3.496120
-3.507788
-3.511646
-3.507998
-3.497101
-3.479145
-3.454243
-3.422455
-3.383871
-3.338781
-3.287860
-3.232959
-3.174756
-3.117664
-3.000000
-3.000000
-3.000000
-3.000000
0.000000
0.000000
0.000000
0.000000
-0.246097
-0.444018
-0.646727
-0.846240
-1.042647
-1.235154
-1.423081
-1.605773
-1.782610
-1.953011
-2.116435
-2.272389
-2.420425
-2.560144
-2.691200
-2.813296
-2.926189
-3.029692
-3.123667
-3.208033
-3.282764
-3.347887
-3.403483
-3.449690
-3.486695
-3.514736
-3.534089
-3.545059
-3.547960
-3.543089
-3.530694
-3.510957
-3.483975
-3.449792
-3.408488
-3.360353
-3.306089
-3.247652
-3.185746
-3.125050
0.000000
0.000000
0.000000
0.000000
-0.250213
-0.451475
-0.657651
-0.860647
-1.060572
-1.256634
-1.448154
-1.634476
-1.814973
-1.989055
-2.156169
-2.315805
-2.467493
-2.610810
-2.745380
-2.870875
-2.987016
-3.093577
-3.190382
-3.277307
-3.354283
-3.421297
-3.478390
-3.525660
-3.563261
-3.591401
-3.610329
-3.620328
-3.621690
-3.614693
-3.599563
-3.576451
-3.545423
-3.506486
-3.459692
-3.405338
-3.344186
-3.278410
-3.208782
-3.140544
0.000000
0.000000
0.000000
0.000000
-0.253851
-0.458085
-0.667382
-0.873565
-1.076773
-1.276230
-1.471272
-1.661250
-1.845543
-2.023558
-2.194735
-2.358549
-2.514512
-2.662172
-2.801120
-2.930986
-3.051447
-3.162220
-3.263073
-3.353820
-3.434326
-3.504511
-3.564347
-3.613869
-3.653168
-3.682391
-3.701735
-3.711434
-3.711737
-3.702875
-3.685030
-3.658305
-3.622708
-3.578196
-3.524779
-3.462761
-3.392984
-3.317915
-3.238430
-3.160513
0.000000
0.000000
0.000000
0.000000
-0.256526
-0.462974
-0.674647
-0.883326
-1.089199
-1.291522
-1.489662
-1.682998
-1.870928
-2.052877
-2.228292
-2.396648
-2.557447
-2.710219
-2.854523
-2.989950
-3.116121
-3.232690
-3.339346
-3.435817
-3.521871
-3.597321
-3.662032
-3.715923
-3.758971
-3.791211
-3.812732
-3.823666
-3.824160
-3.814352
-3.794326
-3.764084
-3.723534
-3.672537
-3.611037
-3.539337
-3.458395
-3.371087
-3.278451
-3.187523
0.000000
0.000000
0.000000
0.000000
-0.257878
-0.465476
-0.678435
-0.888545
-1.096044
-1.300238
-1.500541
-1.696380
-1.887203
-2.072479
-2.251698
-2.424370
-2.590028
-2.748218
-2.898508
-3.040475
-3.173714
-3.297830
-3.412441
-3.517177
-3.611687
-3.695641
-3.768736
-3.830704
-3.881322
-3.920410
-3.947836
-3.963504
-3.967336
-3.959239
-3.939064
-3.906582
-3.861470
-3.803379
-3.732101
-3.647907
-3.551913
-3.447610
-3.336328
-3.226711
0.000000
0.000000
0.000000
0.000000
-0.258170
-0.466034
-0.679318
-0.889830
-1.097843
-1.302696
-1.503851
-1.700784
-1.893003
-2.080047
-2.261484
-2.436912
-2.605957
-2.768268
-2.923510
-3.071360
-3.211500
-3.343607
-3.467342
-3.582347
-3.688238
-3.784596
-3.870973
-3.946886
-4.011827
-4.065262
-4.106632
-4.135353
-4.150792
-4.152251
-4.138932
-4.109919
-4.064207
-4.000806
-3.918999
-3.818807
-3.701500
-3.571573
-3.430959
-3.291188
0.000000
0.000000
0.000000
0.000000
-0.258177
-0.466049
-0.679344
-0.889874
-1.097913
-1.302808
-1.504026
-1.701056
-1.893422
-2.080685
-2.262446
-2.438347
-2.608075
-2.771361
-2.927979
-3.077746
-3.220524
-3.356210
-3.484738
-3.606071
-3.720187
-3.827069
-3.926682
-4.018941
-4.103666
-4.180522
-4.248936
-4.307995
-4.356326
-4.391971
-4.412289
-4.413922
-4.392893
-4.344939
-4.266136
-4.153946
-4.008347
-3.835105
-3.637464
-3.434406
0.000000
0.000000
0.000000
0.000000
-0.258177
-0.466049
-0.679344
-0.889874
-1.097913
-1.302808
-1.504026
-1.701056
-1.893422
-2.080685
-2.262446
-2.438348
-2.608077
-2.771365
-2.927987
-3.077764
-3.220558
-3.356277
-3.484867
-3.606312
-3.720635
-3.827887
-3.928152
-4.021538
-4.108175
-4.188212
-4.261811
-4.329145
-4.390396
-4.445743
-4.495370
-4.539453
-4.578161
-4.611653
-4.640072
-4.663548
-4.682192
-4.696092
-4.705259
-4.710983
0.000000
0.000000
0.000000
0.000000
-0.258177
-0.466049
-0.679344
-0.889874
-1.097913
-1.302808
-1.504026
-1.701056
-1.893422
-2.080685
-2.262446
-2.438348
-2.608077
-2.771365
-2.927987
-3.077764
-3.220558
-3.356277
-3.484867
-3.606312
-3.720635
-3.827887
-3.928152
-4.021538
-4.108175
-4.188212
-4.261811
-4.329145
-4.390396
-4.445743
-4.495370
-4.539453
-4.578161
-4.611653
-4.640072
-4.663548
-4.682192
-4.696092
-4.705259
-4.710983
0.000000
0.000000
0.000000
0.000000
-0.258177
-0.466049
-0.679344
-0.889874
-1.097913
-1.302808
-1.504026
-1.701056
-1.893422
-2.080685
-2.262446
-2.438348
-2.608077
-2.771365
-2.927987
-3.077764
-3.220558
-3.356277
-3.484867
-3.606312
-3.720635
-3.827887
-3.928152
-4.021538
-4.108175
-4.188212
-4.261811
-4.329145
-4.390396
-4.445743
-4.495370
-4.539453
-4.578161
-4.611653
-4.640072
-4.663548
-4.682192
-4.696092
-4.705259
-4.710983
0.000000
0.000000
0.000000
0.000000
-0.258177
-0.466049
-0.679344
-0.889874
-1.097913
-1.302808
-1.504026
-1.701056
-1.893422
-2.080685
-2.262446
-2.438348
-2.608077
-2.771365
-2.927987
-3.077764
-3.220558
-3.356277
-3.484867
-3.606312
-3.720635
-3.827887
-3.928152
-4.021538
-4.108175
-4.188212
-4.261811
-4.329145
-4.390396
-4.445743
-4.495370
-4.539453
-4.578161
-4.611653
-4.640072
-4.663548
-4.682192
-4.696092
-4.705259
-4.710983
0.000000
0.000000
0.000000
0.000000
-0.258177
-0.466049
-0.679344
-0.889874
-1.097913
-1.302808
-1.504026
-1.701056
-1.893422
-2.080685
-2.262446
-2.438348
-2.608077
-2.771365
-2.927987
-3.077764
-3.220558
-3.356277
-3.484867
-3.606312
-3.720635
-3.827887
-3.928152
-4.021538
-4.108175
-4.188212
-4.261811
-4.329145
-4.390396
-4.445743
-4.495370
-4.539453
-4.578161
-4.611653
-4.640072
-4.663548
-4.682192
-4.696092
-4.705259
-4.710983
0.000000
0.000000
0.000000
0.000000
-0.258177
-0.466049
-0.679344
-0.889874
-1.097913
-1.302808
-1.504026
-1.701056
-1.893422
-2.080685
-2.262446
-2.438348
-2.608077
-2.771365
-2.927987
-3.077764
-3.220558
-3.356277
-3.484867
-3.606312
-3.720635
-3.827887
-3.928152
-4.021538
-4.108175
-4.188212
-4.261811
-4.329145
-4.390396
-4.445743
-4.495370
-4.539453
-4.578161
-4.611653
-4.640072
-4.663548
-4.682192
-4.696092
-4.705259
-4.710983
0.000000
0.000000
0.000000
0.000000
-0.258177
-0.466049
-0.679344
-0.889874
-1.097913
-1.302808
-1.504026
-1.701056
-1.893422
-2.080685
-2.262446
-2.438348
-2.608077
-2.771365
-2.927987
-3.077764
-3.220558
-3.356277
-3.484867
-3.606312
-3.720635
-3.827887
-3.928152
-4.021538
-4.108175
-4.188212
-4.261811
-4.329145
-4.390396
-4.445743
-4.495370
-4.539453
-4.578161
-4.611653
-4.640072
-4.663548
-4.682192
-4.696092
-4.705259
-4.710983
0.000000
0.000000
0.000000
0.000000
-0.258177
-0.466049
-0.679344
-0.889874
-1.097913
-1.302808
-1.504026
-1.701056
-1.893422
-2.080685
-2.262446
-2.438348
-2.608077
-2.771365
-2.927987
-3.077764
-3.220558
-3.356277
-3.484867
-3.606312
-3.720635
-3.827887
-3.928152
-4.021538
-4.108175
-4.188212
-4.261811
-4.329145
-4.390396
-4.445743
-4.495370
-4.539453
-4.578161
-4.611653
-4.640072
-4.663548
-4.682192
-4.696092
-4.705259
-4.710983
0.000000
0.000000
0.000000
0.000000
-0.258177
-0.466049
-0.679344
-0.889874
-1.097913
-1.302808
-1.504026
-1.701056
-1.893422
-2.080685
-2.262446
-2.438348
-2.608077
-2.771365
-2.927987
-3.077764
-3.220558
-3.356277
-3.484867
-3.606312
-3.720635
-3.827887
-3.928152
-4.021538
-4.108175
-4.188212
-4.261811
-4.329145
-4.390396
-4.445743
-4.495370
-4.539453
-4.578161
-4.611653
-4.640072
-4.663548
-4.682192
-4.696092
-4.705259
-4.710983
0.000000
0.000000
0.000000
0.000000
-0.258177
-0.466049
-0.679344
-0.889874
-1.097913
-1.302808
-1.504026
-1.701056
-1.893422
-2.080685
-2.262446
-2.438348
-2.608077
-2.771365
-2.927987
-3.077764
-3.220558
-3.356277
-3.484867
-3.606312
-3.720635
-3.827887
-3.928152
-4.021538
-4.108175
-4.188212
-4.261811
-4.329145
-4.390396
-4.445743
-4.495370
-4.539453
-4.578161
-4.611653
-4.640072
-4.663548
-4.682192
-4.696092
-4.705259
-4.710983
0.000000
0.000000
0.000000
0.000000
-0.258177
-0.466049
-0.679344
-0.889874
-1.097913
-1.302808
-1.504026
-1.701056
-1.893422
-2.080685
-2.262446
-2.438348
-2.608077
-2.771365
-2.927987
-3.077764
-3.220558
-3.356277
-3.484867
-3.606312
-3.720635
-3.827887
-3.928152
-4.021538
-4.108175
-4.188212
-4.261811
-4.329145
-4.390396
-4.445743
-4.495370
-4.539453
-4.578161
-4.611653
-4.640072
-4.663548
-4.682192
-4.696092
-4.705259
-4.710983
0.000000
0.000000
0.000000
0.000000
-0.258177
-0.466049
-0.679344
-0.889874
-1.097913
-1.302808
-1.504026
-1.701056
-1.893422
-2.080685
-2.262446
-2.438348
-2.608077
-2.771365
-2.927987
-3.077764
-3.220558
-3.356277
-3.484867
-3.606312
-3.720635
-3.827887
-3.928152
-4.021538
-4.108175
-4.188212
-4.261811
-4.329145
-4.390396
-4.445743
-4.495370
-4.539453
-4.578161
-4.611653
-4.640072
-4.663548
-4.682192
-4.696092
-4.705259
-4.710983
0.000000
0.000000
0.000000
0.000000
-0.258177
-0.466049
-0.679344
-0.889874
-1.097913
-1.302808
-1.504026
-1.701056
-1.893422
-2.080685
-2.262446
-2.438348
-2.608077
-2.771365
-2.927987
-3.077764
-3.220558
-3.356277
-3.484867
-3.606312
-3.720635
-3.827887
-3.928152
-4.021538
-4.108175
-4.188212
-4.261811
-4.329145
-4.390396
-4.445743
-4.495370
-4.539453
-4.578161
-4.611653
-4.640072
-4.663548
-4.682192
-4.696092
-4.705259
-4.710983
0.000000
0.000000
0.000000
0.000000
-0.258177
-0.466049
-0.679344
-0.889874
-1.097913
-1.302808
-1.504026
-1.701056
-1.893422
-2.080685
-2.262446
-2.438348
-2.608077
-2.771365
-2.927987
-3.077764
-3.220558
-3.356277
-3.484867
-3.606312
-3.720635
-3.827887
-3.928152
-4.021538
-4.108175
-4.188212
-4.261811
-4.329145
-4.390396
-4.445743
-4.495370
-4.539453
-4.578161
-4.611653
-4.640072
-4.663548
-4.682192
-4.696092
-4.705259
-4.710983
0.000000
0.000000
0.000000
0.000000
-0.258177
-0.466049
-0.679344
-0.889874
-1.097913
-1.302808
-1.504026
-1.701056
-1.893422
-2.080685
-2.262446
-2.438348
-2.608077
-2.771365
-2.927987
-3.077764
-3.220558
-3.356277
-3.484867
-3.606312
-3.720635
-3.827887
-3.928152
-4.021538
-4.108175
-4.188212
-4.261811
-4.329145
-4.390396
-4.445743
-4.495370
-4.539453
-4.578161
-4.611653
-4.640072
-4.663548
-4.682192
-4.696092
-4.705259
-4.710983
0.000000
0.000000
0.000000
0.000000
-0.258177
-0.466049
-0.679344
-0.889874
-1.097913
-1.302808
-1.504026
-1.701056
-1.893422
-2.080685
-2.262446
-2.438348
-2.608077
-2.771365
-2.927987
-3.077764
-3.220558
-3.356277
-3.484867
-3.606312
-3.720635
-3.827887
-3.928152
-4.021538
-4.108175
-4.188212
-4.261811
-4.329145
-4.390396
-4.445743
-4.495370
-4.539453
-4.578161
-4.611653
-4.640072
-4.663548
-4.682192
-4.696092
-4.705259
-4.710983
0.000000
0.000000
0.000000
0.000000
-0.258177
-0.466049
-0.679344
-0.889874
-1.097913
-1.302808
-1.504026
-1.701056
-1.893422
-2.080685
-2.262446
-2.438348
-2.608077
-2.771365
-2.927987
-3.077764
-3.220558
-3.356277
-3.484867
-3.606312
-3.720635
-3.827887
-3.928152
-4.021538
-4.108175
-4.188212
-4.261811
-4.329145
-4.390396
-4.445743
-4.495370
-4.539453
-4.578161
-4.611653
-4.640072
-4.663548
-4.682192
-4.696092
-4.705259
-4.710983
0.000000
0.000000
0.000000
0.000000
-0.258177
-0.466049
-0.679344
-0.889874
-1.097913
-1.302808
-1.504026
-1.701056
-1.893422
-2.080685
-2.262446
-2.438348
-2.608077
-2.771365
-2.927987
-3.077764
-3.220558
-3.356277
-3.484867
-3.606312
-3.720635
-3.827887
-3.928152
-4.021538
-4.108175
-4.188212
-4.261811
-4.329145
-4.390396
-4.445743
-4.495370
-4.539453
-4.578161
-4.611653
-4.640072
-4.663548
-4.682192