<?xml version='1.0' encoding='UTF-8'?>
<VTKFile xmlns='VTK' byte_order='LittleEndian' version='0.1' type='UnstructuredGrid'>
<UnstructuredGrid>
<Piece NumberOfCells='1888' NumberOfPoints='1888'>
<Points>
<DataArray NumberOfComponents='3' type='Float32' Name='Position' format='ascii'>
-0.040000 -0.030000 0.000000
-0.040000 -0.020000 0.000000
-0.040000 -0.010000 0.000000
-0.040000 0.000000 0.000000
-0.040000 0.010000 0.000000
-0.040000 0.020000 0.000000
-0.040000 0.030000 0.000000
-0.040000 0.040000 0.000000
-0.040000 0.050000 0.000000
-0.040000 0.060000 0.000000
-0.040000 0.070000 0.000000
-0.040000 0.080000 0.000000
-0.040000 0.090000 0.000000
-0.040000 0.100000 0.000000
-0.040000 0.110000 0.000000
-0.040000 0.120000 0.000000
-0.040000 0.130000 0.000000
-0.040000 0.140000 0.000000
-0.040000 0.150000 0.000000
-0.040000 0.160000 0.000000
-0.040000 0.170000 0.000000
-0.040000 0.180000 0.000000
-0.040000 0.190000 0.000000
-0.040000 0.200000 0.000000
-0.040000 0.210000 0.000000
-0.040000 0.220000 0.000000
-0.040000 0.230000 0.000000
-0.040000 0.240000 0.000000
-0.040000 0.250000 0.000000
-0.040000 0.260000 0.000000
-0.040000 0.270000 0.000000
-0.040000 0.280000 0.000000
-0.040000 0.290000 0.000000
-0.040000 0.300000 0.000000
-0.040000 0.310000 0.000000
-0.040000 0.320000 0.000000
-0.040000 0.330000 0.000000
-0.040000 0.340000 0.000000
-0.040000 0.350000 0.000000
-0.040000 0.360000 0.000000
-0.040000 0.370000 0.000000
-0.040000 0.380000 0.000000
-0.040000 0.390000 0.000000
-0.040000 0.400000 0.000000
0.010000 -0.030000 0.000000
0.010000 -0.020000 0.000000
0.010000 -0.010000 0.000000
0.010000 0.000000 0.000000
0.010000 0.010000 0.000000
0.010000 0.020000 0.000000
0.010000 0.030000 0.000000
0.010000 0.040000 0.000000
0.010000 0.050000 0.000000
0.010000 0.060000 0.000000
0.010000 0.070000 0.000000
0.010000 0.080000 0.000000
0.010000 0.090000 0.000000
0.010000 0.100000 0.000000
0.010000 0.110000 0.000000
0.010000 0.120000 0.000000
0.010000 0.130000 0.000000
0.010000 0.140000 0.000000
0.010000 0.150000 0.000000
0.010000 0.160000 0.000000
0.010000 0.170000 0.000000
0.010000 0.180000 0.000000
0.010000 0.190000 0.000000
0.010000 0.200000 0.000000
0.010000 0.210000 0.000000
0.010000 0.220000 0.000000
0.010000 0.230000 0.000000
0.010000 0.240000 0.000000
0.010000 0.250000 0.000000
0.010000 0.260000 0.000000
0.010000 0.270000 0.000000
0.010000 0.280000 0.000000
0.010000 0.290000 0.000000
0.010000 0.300000 0.000000
0.010000 0.310000 0.000000
0.010000 0.320000 0.000000
0.010000 0.330000 0.000000
0.010000 0.340000 0.000000
0.010000 0.350000 0.000000
0.010000 0.360000 0.000000
0.010000 0.370000 0.000000
0.010000 0.380000 0.000000
0.010000 0.390000 0.000000
0.010000 0.400000 0.000000
0.412000 0.410000 0.000000
0.412000 0.420000 0.000000
0.412000 0.430000 0.000000
0.412000 0.440000 0.000000
0.060000 -0.030000 0.000000
0.060000 -0.020000 0.000000
0.060000 -0.010000 0.000000
0.060000 0.000000 0.000000
0.060000 0.010000 0.000000
0.060000 0.020000 0.000000
0.060000 0.030000 0.000000
0.060000 0.040000 0.000000
0.060000 0.050000 0.000000
0.060000 0.060000 0.000000
0.060000 0.070000 0.000000
0.060000 0.080000 0.000000
0.060000 0.090000 0.000000
0.060000 0.100000 0.000000
0.060000 0.110000 0.000000
0.060000 0.120000 0.000000
0.060000 0.130000 0.000000
0.060000 0.140000 0.000000
0.060000 0.150000 0.000000
0.060000 0.160000 0.000000
0.060000 0.170000 0.000000
0.060000 0.180000 0.000000
0.060000 0.190000 0.000000
0.060000 0.200000 0.000000
0.060000 0.210000 0.000000
0.060000 0.220000 0.000000
0.060000 0.230000 0.000000
0.060000 0.240000 0.000000
0.060000 0.250000 0.000000
0.060000 0.260000 0.000000
0.060000 0.270000 0.000000
0.060000 0.280000 0.000000
0.060000 0.290000 0.000000
0.060000 0.300000 0.000000
0.060000 0.310000 0.000000
0.060000 0.320000 0.000000
0.060000 0.330000 0.000000
0.060000 0.340000 0.000000
0.060000 0.350000 0.000000
0.060000 0.360000 0.000000
0.060000 0.370000 0.000000
0.060000 0.380000 0.000000
0.060000 0.390000 0.000000
0.060000 0.400000 0.000000
0.462000 0.410000 0.000000
0.462000 0.420000 0.000000
0.462000 0.430000 0.000000
0.462000 0.440000 0.000000
0.110000 -0.030000 0.000000
0.110000 -0.020000 0.000000
0.110000 -0.010000 0.000000
0.110000 0.000000 0.000000
0.110000 0.010000 0.000000
0.110000 0.020000 0.000000
0.110000 0.030000 0.000000
0.110000 0.040000 0.000000
0.110000 0.050000 0.000000
0.110000 0.060000 0.000000
0.110000 0.070000 0.000000
0.110000 0.080000 0.000000
0.110000 0.090000 0.000000
0.110000 0.100000 0.000000
0.110000 0.110000 0.000000
0.110000 0.120000 0.000000
0.110000 0.130000 0.000000
0.110000 0.140000 0.000000
0.110000 0.150000 0.000000
0.110000 0.160000 0.000000
0.110000 0.170000 0.000000
0.110000 0.180000 0.000000
0.110000 0.190000 0.000000
0.110000 0.200000 0.000000
0.110000 0.210000 0.000000
0.110000 0.220000 0.000000
0.110000 0.230000 0.000000
0.110000 0.240000 0.000000
0.110000 0.250000 0.000000
0.110000 0.260000 0.000000
0.110000 0.270000 0.000000
0.110000 0.280000 0.000000
0.110000 0.290000 0.000000
0.110000 0.300000 0.000000
0.110000 0.310000 0.000000
0.110000 0.320000 0.000000
0.110000 0.330000 0.000000
0.110000 0.340000 0.000000
0.110000 0.350000 0.000000
0.110000 0.360000 0.000000
0.110000 0.370000 0.000000
0.110000 0.380000 0.000000
0.110000 0.390000 0.000000
0.110000 0.400000 0.000000
0.512000 0.410000 0.000000
0.512000 0.420000 0.000000
0.512000 0.430000 0.000000
0.512000 0.440000 0.000000
0.160000 -0.030000 0.000000
0.160000 -0.020000 0.000000
0.160000 -0.010000 0.000000
0.160000 0.000000 0.000000
0.160000 0.010000 0.000000
0.160000 0.020000 0.000000
0.160000 0.030000 0.000000
0.160000 0.040000 0.000000
0.160000 0.050000 0.000000
0.160000 0.060000 0.000000
0.160000 0.070000 0.000000
0.160000 0.080000 0.000000
0.160000 0.090000 0.000000
0.160000 0.100000 0.000000
0.160000 0.110000 0.000000
0.160000 0.120000 0.000000
0.160000 0.130000 0.000000
0.160000 0.140000 0.000000
0.160000 0.150000 0.000000
0.160000 0.160000 0.000000
0.160000 0.170000 0.000000
0.160000 0.180000 0.000000
0.160000 0.190000 0.000000
0.160000 0.200000 0.000000
0.160000 0.210000 0.000000
0.160000 0.220000 0.000000
0.160000 0.230000 0.000000
0.160000 0.240000 0.000000
0.160000 0.250000 0.000000
0.160000 0.260000 0.000000
0.160000 0.270000 0.000000
0.160000 0.280000 0.000000
0.160000 0.290000 0.000000
0.160000 0.300000 0.000000
0.160000 0.310000 0.000000
0.160000 0.320000 0.000000
0.160000 0.330000 0.000000
0.160000 0.340000 0.000000
0.160000 0.350000 0.000000
0.160000 0.360000 0.000000
0.160000 0.370000 0.000000
0.160000 0.380000 0.000000
0.160000 0.390000 0.000000
0.160000 0.400000 0.000000
0.562000 0.410000 0.000000
0.562000 0.420000 0.000000
0.562000 0.430000 0.000000
0.562000 0.440000 0.000000
0.210000 -0.030000 0.000000
0.210000 -0.020000 0.000000
0.210000 -0.010000 0.000000
0.210000 0.000000 0.000000
0.210000 0.010000 0.000000
0.210000 0.020000 0.000000
0.210000 0.030000 0.000000
0.210000 0.040000 0.000000
0.210000 0.050000 0.000000
0.210000 0.060000 0.000000
0.210000 0.070000 0.000000
0.210000 0.080000 0.000000
0.210000 0.090000 0.000000
0.210000 0.100000 0.000000
0.210000 0.110000 0.000000
0.210000 0.120000 0.000000
0.210000 0.130000 0.000000
0.210000 0.140000 0.000000
0.210000 0.150000 0.000000
0.210000 0.160000 0.000000
0.210000 0.170000 0.000000
0.210000 0.180000 0.000000
0.210000 0.190000 0.000000
0.210000 0.200000 0.000000
0.210000 0.210000 0.000000
0.210000 0.220000 0.000000
0.210000 0.230000 0.000000
0.210000 0.240000 0.000000
0.210000 0.250000 0.000000
0.210000 0.260000 0.000000
0.210000 0.270000 0.000000
0.210000 0.280000 0.000000
0.210000 0.290000 0.000000
0.210000 0.300000 0.000000
0.210000 0.310000 0.000000
0.210000 0.320000 0.000000
0.210000 0.330000 0.000000
0.210000 0.340000 0.000000
0.210000 0.350000 0.000000
0.210000 0.360000 0.000000
0.210000 0.370000 0.000000
0.210000 0.380000 0.000000
0.210000 0.390000 0.000000
0.210000 0.400000 0.000000
0.612000 0.410000 0.000000
0.612000 0.420000 0.000000
0.612000 0.430000 0.000000
0.612000 0.440000 0.000000
0.260000 -0.030000 0.000000
0.260000 -0.020000 0.000000
0.260000 -0.010000 0.000000
0.260000 0.000000 0.000000
0.260000 0.010000 0.000000
0.260000 0.020000 0.000000
0.260000 0.030000 0.000000
0.260000 0.040000 0.000000
0.260000 0.050000 0.000000
0.260000 0.060000 0.000000
0.260000 0.070000 0.000000
0.260000 0.080000 0.000000
0.260000 0.090000 0.000000
0.260000 0.100000 0.000000
0.260000 0.110000 0.000000
0.260000 0.120000 0.000000
0.260000 0.130000 0.000000
0.260000 0.140000 0.000000
0.260000 0.150000 0.000000
0.260000 0.160000 0.000000
0.260000 0.170000 0.000000
0.260000 0.180000 0.000000
0.260000 0.190000 0.000000
0.260000 0.200000 0.000000
0.260000 0.210000 0.000000
0.260000 0.220000 0.000000
0.260000 0.230000 0.000000
0.260000 0.240000 0.000000
0.260000 0.250000 0.000000
0.260000 0.260000 0.000000
0.260000 0.270000 0.000000
0.260000 0.280000 0.000000
0.260000 0.290000 0.000000
0.260000 0.300000 0.000000
0.260000 0.310000 0.000000
0.260000 0.320000 0.000000
0.260000 0.330000 0.000000
0.260000 0.340000 0.000000
0.260000 0.350000 0.000000
0.260000 0.360000 0.000000
0.260000 0.370000 0.000000
0.260000 0.380000 0.000000
0.260000 0.390000 0.000000
0.260000 0.400000 0.000000
0.662000 0.410000 0.000000
0.662000 0.420000 0.000000
0.662000 0.430000 0.000000
0.662000 0.440000 0.000000
0.310000 -0.030000 0.000000
0.310000 -0.020000 0.000000
0.310000 -0.010000 0.000000
0.310000 0.000000 0.000000
0.310000 0.010000 0.000000
0.310000 0.020000 0.000000
0.310000 0.030000 0.000000
0.310000 0.040000 0.000000
0.310000 0.050000 0.000000
0.310000 0.060000 0.000000
0.310000 0.070000 0.000000
0.310000 0.080000 0.000000
0.310000 0.090000 0.000000
0.310000 0.100000 0.000000
0.310000 0.110000 0.000000
0.310000 0.120000 0.000000
0.310000 0.130000 0.000000
0.310000 0.140000 0.000000
0.310000 0.150000 0.000000
0.310000 0.160000 0.000000
0.310000 0.170000 0.000000
0.310000 0.180000 0.000000
0.310000 0.190000 0.000000
0.310000 0.200000 0.000000
0.310000 0.210000 0.000000
[...]
<PointData>
<DataArray NumberOfComponents='1' type='Int32' Name='ParticleType' format='ascii'>
4
4
4
4
4
4
4
4
4
4
4
4
4
4
4
4
4
4
4
4
4
4
4
4
4
4
4
4
4
4
4
4
4
4
4
4
4
4
4
4
4
4
4
4
4
4
3
3
2
2
2
2
2
2
2
2
2
2
2
2
2
2
2
2
2
2
2
2
2
2
2
2
2
2
2
2
2
2
2
2
2
2
2
2
2
2
2
2
5
5
5
5
4
4
3
3
2
2
2
2
2
2
2
2
2
2
2
2
2
2
2
2
2
2
2
2
2
2
2
2
2
2
2
2
2
2
2
2
2
2
2
2
2
2
2
2
5
5
5
5
4
4
3
3
2
2
2
2
2
2
2
2
2
2
2
2
2
2
2
2
2
2
2
2
2
2
2
2
2
2
2
2
2
2
2
2
2
2
2
2
2
2
2
2
5
5
5
5
4
4
3
3
2
2
2
2
2
2
2
2
2
2
2
2
2
2
2
2
2
2
2
2
2
2
2
2
2
2
2
2
2
2
2
2
2
2
2
2
2
2
2
2
5
5
5
5
4
4
3
3
2
2
2
2
2
2
2
2
2
2
2
2
2
2
2
2
2
2
2
2
2
2
2
2
2
2
2
2
2
2
2
2
2
2
2
2
2
2
2
2
5
5
5
5
4
4
3
3
2
2
2
2
2
2
2
2
2
2
2
2
2
2
2
2
2
2
2
2
2
2
2
2
2
2
2
2
2
2
2
2
2
2
2
2
2
2
2
2
5
5
5
5
4
4
3
3
2
2
2
2
2
2
2
2
2
2
2
2
2
2
2
2
2
2
2
2
2
2
2
2
2
2
2
2
2
2
2
2
2
2
2
2
2
2
2
2
5
5
5
5
4
4
3
3
2
2
2
2
2
2
2
2
2
2
2
2
2
2
2
2
2
2
2
2
2
2
2
2
2
2
2
2
2
2
2
2
2
2
2
2
2
2
2
2
5
5
5
5
4
4
3
3
2
2
2
2
2
2
2
2
2
2
2
2
2
2
2
2
2
2
2
2
2
2
2
2
2
2
2
2
2
2
2
2
2
2
2
2
2
2
2
2
5
5
5
5
4
4
3
3
2
2
2
2
2
2
2
2
2
2
2
2
2
2
2
2
2
2
2
2
2
2
2
2
2
2
2
2
2
2
2
2
2
2
2
2
2
2
2
2
5
5
5
5
4
4
3
3
2
2
2
2
2
2
2
2
2
2
2
2
2
2
2
2
2
2
2
2
2
2
2
2
2
2
2
2
2
2
2
2
2
2
2
2
2
2
2
2
4
4
3
3
2
2
2
2
2
2
2
2
2
2
2
2
2
2
2
2
2
2
2
2
2
2
2
2
2
2
2
2
2
2
2
2
2
2
2
2
2
2
2
2
4
4
3
3
2
2
2
2
2
2
2
2
2
2
2
2
2
2
2
2
2
2
2
2
2
2
2
2
2
2
2
2
2
2
2
2
2
2
2
2
2
2
2
2
4
4
3
3
2
2
2
2
2
2
2
2
2
2
2
2
2
2
2
2
2
2
2
2
2
2
2
2
2
2
2
2
2
2
2
2
2
2
2
2
2
2
2
2
4
4
3
3
2
2
2
2
2
2
2
2
2
2
2
2
2
2
2
2
2
2
2
2
2
2
2
2
2
2
2
2
2
2
2
2
2
2
2
2
2
2
2
2
4
4
3
3
2
2
2
2
2
2
2
2
2
2
2
2
2
2
2
2
2
2
2
2
2
2
2
2
2
2
2
2
2
2
2
2
2
2
2
2
2
2
2
2
4
4
3
3
2
2
2
2
2
2
2
2
2
2
2
2
2
2
2
2
2
2
2
2
2
2
2
2
2
2
2
2
2
2
2
2
2
2
2
2
2
2
2
2
4
4
3
3
2
2
2
2
2
2
2
2
2
2
2
2
2
2
2
2
2
2
2
2
2
2
2
2
2
2
2
2
2
2
2
2
2
2
2
2
2
2
2
2
4
4
3
3
2
2
2
2
2
2
2
2
2
2
2
2
2
2
2
2
2
2
2
2
2
2
2
2
2
2
2
2
2
2
2
2
2
2
2
2
2
2
2
2
4
4
3
3
2
2
2
2
2
2
2
2
2
2
2
2
2
2
2
2
2
2
2
2
2
2
2
2
2
2
2
2
2
2
2
2
2
2
2
2
2
2
2
2
4
4
3
3
2
2
2
2
2
2
2
2
2
2
2
2
2
2
2
2
2
2
2
2
2
2
2
2
2
2
2
2
2
2
2
2
2
2
2
2
2
2
2
2
4
4
3
3
2
2
2
2
2
2
2
2
2
2
2
2
2
2
2
2
2
2
2
2
2
2
2
2
2
2
2
2
2
2
2
2
2
2
2
2
2
2
2
2
4
4
3
3
2
2
2
2
2
2
2
2
2
2
2
2
2
2
2
2
2
2
2
2
2
2
2
2
2
2
2
2
2
2
2
2
2
2
2
2
2
2
2
2
4
4
3
3
2
2
2
2
2
2
2
2
2
2
2
2
2
2
2
2
2
2
2
2
2
2
2
2
2
2
2
2
2
2
2
2
2
2
2
2
2
2
2
2
4
4
3
3
2
2
2
2
2
2
2
2
2
2
2
2
2
2
2
2
2
2
2
2
2
2
2
2
2
2
2
2
2
2
2
2
2
2
2
2
2
2
2
2
4
4
3
3
2
2
2
2
2
2
2
2
2
2
2
2
2
2
2
2
2
2
2
2
2
2
2
2
2
2
2
2
2
2
2
2
2
2
2
2
2
2
2
2
4
4
3
3
2
2
2
2
2
2
2
2
2
2
2
2
2
2
2
2
2
2
2
2
2
2
2
2
2
2
2
2
2
2
2
2
2
2
2
2
2
2
2
2
4
4
3
3
2
2
2
2
2
2
2
2
2
2
2
2
2
2
2
2
2
2
2
2
2
2
2
2
2
2
2
2
2
2
2
2
2
2
2
2
2
2
2
2
4
4
3
3
2
2
2
2
2
2
2
2
2
2
2
2
2
2
2
2
2
2
2
2
2
2
2
2
2
2
2
2
2
2
2
2
2
2
2
2
2
2
2
2
4
4
3
3
2
2
2
2
2
2
2
2
2
2
2
2
2
2
2
2
2
2
2
2
2
2
2
2
2
2
2
2
2
2
2
2
2
2
2
2
2
2
2
2
4
4
3
3
2
2
2
2
2
2
2
2
2
2
2
2
2
2
2
2
2
2
2
2
2
2
2
2
2
2
2
2
2
2
2
2
2
2
2
2
2
2
2
2
4
4
3
3
2
2
2
2
2
2
2
2
2
2
2
2
2
2
2
2
2
2
2
2
2
2
2
2
2
2
2
2
2
2
2
2
2
2
2
2
2
2
2
2
4
4
3
3
2
2
2
2
2
2
2
2
2
2
2
2
2
2
2
2
2
2
2
2
2
2
2
2
2
2
2
2
2
2
2
2
2
2
2
2
2
2
2
2
4
4
3
3
2
2
2
2
2
2
2
2
2
2
2
2
2
2
2
2
2
2
2
2
2
2
2
2
2
2
2
2
2
2
2
2
2
2
2
2
2
2
2
2
4
4
3
3
2
2
2
2
2
2
2
2
2
2
2
2
2
2
2
2
2
2
2
2
2
2
2
2
2
2
2
2
2
2
2
2
2
2
2
2
2
2
2
2
4
4
3
3
2
2
2
2
2
2
2
2
2
2
2
2
2
2
2
2
2
2
2
2
2
2
2
2
2
2
2
2
2
2
2
2
2
2
2
2
2
2
2
2
4
4
3
3
2
2
2
2
2
2
2
2
2
2
2
2
2
2
2
2
2
2
2
2
2
2
2
2
2
2
2
2
2
2
2
2
2
2
2
2
2
2
2
2
4
4
3
3
2
2
2
2
2
2
2
2
2
2
2
2
2
2
2
2
2
2
2
2
2
2
2
2
2
2
2
2
2
2
2
2
2
2
2
2
2
2
2
2
4
4
3
3
2
2
2
2
2
2
2
2
2
2
2
2
2
2
2
2
2
2
2
2
2
2
2
2
2
2
2
2
2
2
2
2
2
2
2
2
2
2
2
2
4
4
3
3
2
2
2
2
2
2
2
2
2
2
2
2
2
2
2
2
2
2
2
2
2
2
2
2
2
2
2
2
2
2
2
2
2
2
2
2
2
2
2
2
4
4
3
3
3
3
3
3
3
3
3
3
3
3
3
3
3
3
3
3
3
3
3
3
3
3
3
3
3
3
3
3
3
3
3
3
3
3
3
3
3
3
3
3
</DataArray>
<DataArray NumberOfComponents='1' type='Float32' Name='Temperature' format='ascii'>
0.000000
0.000000
0.000000
0.000000
0.000000
0.000000
0.000000
0.000000
0.000000
0.000000
0.000000
0.000000
0.000000
0.000000
0.000000
0.000000
0.000000
0.000000
0.000000
0.000000
0.000000
0.000000
0.000000
0.000000
0.000000
0.000000
0.000000
0.000000
0.000000
0.000000
0.000000
0.000000
0.000000
0.000000
0.000000
0.000000
0.000000
0.000000
0.000000
0.000000
0.000000
0.000000
0.000000
0.000000
0.000000
0.000000
0.000000
0.000000
-0.239451
-0.432280
-0.630196
-0.825630
-1.018859
-1.209298
-1.396470
-1.579916
-1.759206
-1.933939
-2.103750
-2.268308
-2.427319
-2.580527
-2.727714
-2.868700
-3.003342
-3.131536
-3.253214
-3.368339
-3.476910
-3.578952
-3.674519
-3.763690
-3.846564
-3.923256
-3.993899
-4.058633
-4.117609
-4.170981
-4.218901
-4.261522
-4.298990
-4.331443
-4.359006
-4.381793
-4.399901
-4.413409
-4.422321
-4.427888
-3.000000
-3.000000
-3.000000
-3.000000
0.000000
0.000000
0.000000
0.000000
-0.233960
-0.422317
-0.615561
-0.806257
-0.994642
-1.180110
-1.362165
-1.540330
-1.714160
-1.883244
-2.047209
-2.205717
-2.358476
-2.505231
-2.645772
-2.779930
-2.907579
-3.028634
-3.143051
-3.250822
-3.351977
-3.446577
-3.534715
-3.616511
-3.692107
-3.761666
-3.825367
-3.883398
-3.935957
-3.983247
-4.025466
-4.062813
-4.095474
-4.123627
-4.147435
-4.167041
-4.182571
-4.194125
-4.201733
-4.206478
-3.000000
-3.000000
-3.000000
-3.000000
0.000000
0.000000
0.000000
0.000000
-0.230620
-0.416244
-0.606610
-0.794355
-0.979681
-1.161961
-1.340677
-1.515333
-1.685467
-1.850653
-2.010506
-2.164682
-2.312881
-2.454849
-2.590377
-2.719304
-2.841513
-2.956936
-3.065547
-3.167362
-3.262438
-3.350870
-3.432785
-3.508341
-3.577723
-3.641138
-3.698811
-3.750980
-3.797889
-3.839790
-3.876930
-3.909552
-3.937889
-3.962159
-3.982562
-3.999277
-4.012458
-4.022228
-4.028644
-4.032638
-3.000000
-3.000000
-3.000000
-3.000000
0.000000
0.000000
0.000000
0.000000
-0.228581
-0.412523
-0.601093
-0.786964
-0.970305
-1.150463
-1.326897
-1.499088
-1.666555
-1.828853
-1.985579
-2.136375
-2.280932
-2.418987
-2.550328
-2.674795
-2.792275
-2.902711
-3.006090
-3.102450
-3.191872
-3.274481
-3.350440
-3.419947
-3.483233
-3.540552
-3.592181
-3.638413
-3.679549
-3.715898
-3.747766
-3.775451
-3.799241
-3.819407
-3.836195
-3.849828
-3.860496
-3.868354
-3.873490
-3.876675
-3.000000
-3.000000
-3.000000
-3.000000
0.000000
0.000000
0.000000
0.000000
-0.227546
-0.410619
-0.598242
-0.783091
-0.965306
-1.144213
-1.319245
-1.489859
-1.655548
-1.815845
-1.970323
-2.118605
-2.260359
-2.395307
-2.523223
-2.643936
-2.757328
-2.863340
-2.961966
-3.053253
-3.137301
-3.214259
-3.284324
-3.347735
-3.404766
-3.455729
-3.500959
-3.540816
-3.575671
-3.605906
-3.631902
-3.654034
-3.672665
-3.688135
-3.700761
-3.710824
-3.718567
-3.724192
-3.727829
-3.730064
-3.000000
-3.000000
-3.000000
-3.000000
0.000000
0.000000
0.000000
0.000000
-0.227203
-0.409980
-0.597264
-0.781725
-0.963484
-1.141848
-1.316229
-1.486062
-1.650816
-1.809998
-1.963153
-2.109875
-2.249803
-2.382628
-2.508094
-2.626002
-2.736209
-2.838634
-2.933253
-3.020104
-3.099286
-3.170954
-3.235323
-3.292659
-3.343281
-3.387551
-3.425873
-3.458682
-3.486442
-3.509630
-3.528733
-3.544238
-3.556617
-3.566325
-3.573781
-3.579368
-3.583416
-3.586199
-3.587922
-3.588940
-3.000000
-3.000000
-3.000000
-3.000000
0.000000
0.000000
0.000000
0.000000
-0.227161
-0.409899
-0.597134
-0.781530
-0.963205
-1.141456
-1.315686
-1.485318
-1.649806
-1.808638
-1.961340
-2.107475
-2.246655
-2.378533
-2.502814
-2.619252
-2.727658
-2.827895
-2.919890
-3.003627
-3.079155
-3.146587
-3.206105
-3.257957
-3.302459
-3.339993
-3.371007
-3.396007
-3.415552
-3.430247
-3.440732
-3.447665
-3.451713
-3.453531
-3.453744
-3.452933
-3.451613
-3.450218
-3.449097
-3.448295
-3.000000
-3.000000
-3.000000
-3.000000
0.000000
0.000000
0.000000
0.000000
-0.227161
-0.409899
-0.597132
-0.781528
-0.963201
-1.141449
-1.315675
-1.485300
-1.649777
-1.808591
-1.961264
-2.107357
-2.246471
-2.378250
-2.502383
-2.618604
-2.726695
-2.826481
-2.917838
-3.000685
-3.074992
-3.140773
-3.198092
-3.247065
-3.287860
-3.320709
-3.345911
-3.363848
-3.374994
-3.379930
-3.379360
-3.374112
-3.365146
-3.353537
-3.340449
-3.327087
-3.314635
-3.304182
-3.296698
-3.291715
-3.000000
-3.000000
-3.000000
-3.000000
0.000000
0.000000
0.000000
0.000000
-0.227161
-0.409899
-0.597132
-0.781528
-0.963201
-1.141449
-1.315675
-1.485300
-1.649777
-1.808591
-1.961264
-2.107357
-2.246471
-2.378250
-2.502383
-2.618604
-2.726694
-2.826480
-2.917836
-3.000682
-3.074986
-3.140761
-3.198067
-3.247014
-3.287758
-3.320510
-3.345531
-3.363135
-3.373683
-3.377569
-3.375198
-3.366942
-3.353075
-3.333703
-3.308675
-3.277536
-3.239549
-3.193948
-3.139958
-3.080729
-3.000000
-3.000000
-3.000000
-3.000000
0.000000
0.000000
0.000000
0.000000
-0.227161
-0.409899
-0.597132
-0.781528
-0.963201
-1.141449
-1.315675
-1.485300
-1.649777
-1.808591
-1.961264
-2.107357
-2.246471
-2.378250
-2.502383
-2.618604
-2.726694
-2.826480
-2.917836
-3.000682
-3.074986
-3.140761
-3.198067
-3.247014
-3.287758
-3.320510
-3.345531
-3.363135
-3.373683
-3.377569
-3.375198
-3.366942
-3.353075
-3.333703
-3.308675
-3.277536
-3.239549
-3.193948
-3.139958
-3.080729
-3.000000
-3.000000
-3.000000
-3.000000
0.000000
0.000000
0.000000
0.000000
-0.229549
-0.414214
-0.603430
-0.789791
-0.973415
-1.153596
-1.329729
-1.501233
-1.667551
-1.828164
-1.982583
-2.130360
-2.271088
-2.404400
-2.529973
-2.647530
-2.756840
-2.857718
-2.950024
-3.033668
-3.108605
-3.174837
-3.232414
-3.281437
-3.322056
-3.354475
-3.378952
-3.395803
-3.405390
-3.408113
-3.404383
-3.394575
-3.378961
-3.357635
-3.330417
-3.296804
-3.255993
-3.207150
-3.149429
-3.086172
0.000000
0.000000
0.000000
0.000000
-0.233775
-0.421856
-0.614602
-0.804478
-0.991619
-1.175311
-1.354947
-1.529935
-1.699712
-1.863745
-2.021532
-2.172609
-2.316547
-2.452959
-2.581499
-2.701864
-2.813794
-2.917075
-3.011541
-3.097068
-3.173582
-3.241057
-3.299516
-3.349033
-3.389737
-3.421816
-3.445515
-3.461145
-3.469068
-3.469690
-3.463429
-3.450665
-3.431664
-3.406492
-3.374910
-3.336316
-3.289771
-3.234303
-3.168927
-3.097386
0.000000
0.000000
0.000000
0.000000
-0.237829
-0.429202
-0.625372
-0.818698
-1.009332
-1.196569
-1.379802
-1.558441
-1.731917
-1.899690
-2.061246
-2.216102
-2.363811
-2.503959
-2.636169
-2.760105
-2.875469
-2.982008
-3.079508
-3.167803
-3.246772
-3.316341
-3.376487
-3.427241
-3.468693
-3.500995
-3.524368
-3.539100
-3.545546
-3.544107
-3.535203
-3.519211
-3.496387
-3.466755
-3.430003
-3.385404
-3.331851
-3.268204
-3.193308
-3.111420
0.000000
0.000000
0.000000
0.000000
-0.241302
-0.435518
-0.634683
-0.831079
-1.024896
-1.215444
-1.402136
-1.584391
-1.761648
-1.933367
-2.099030
-2.258142
-2.410234
-2.554868
-2.691632
-2.820149
-2.940071
-3.051089
-3.152928
-3.245354
-3.328173
-3.401237
-3.464448
-3.517761
-3.561194
-3.594834
-3.618844
-3.633466
-3.639021
-3.635886
-3.624465
-3.605118
-3.578071
-3.543292
-3.500362
-3.448391
-3.386057
-3.312006
-3.224880
-3.129619
0.000000
0.000000
0.000000
0.000000
-0.243700
-0.439909
-0.641225
-0.839902
-1.036176
-1.229395
-1.419006
-1.604460
-1.785221
-1.960769
-2.130598
-2.294220
-2.451161
-2.600967
-2.743201
-2.877447
-3.003306
-3.120402
-3.228384
-3.326924
-3.415727
-3.494528
-3.563108
-3.621295
-3.668978
-3.706119
-3.732762
-3.749046
-3.755199
-3.751525
-3.738364
-3.716020
-3.684646
-3.644104
-3.593813
-3.532649
-3.458996
-3.371217
-3.267698
-3.154351
0.000000
0.000000
0.000000
0.000000
-0.244766
-0.441892
-0.644244
-0.844094
-1.041725
-1.236533
-1.428014
-1.615670
-1.799018
-1.977588
-2.150924
-2.318584
-2.480134
-2.635152
-2.783221
-2.923927
-3.056859
-3.181605
-3.297752
-3.404884
-3.502588
-3.590455
-3.668086
-3.735111
-3.791195
-3.836066
-3.869526
-3.891474
-3.901910
-3.900927
-3.888667
-3.865244
-3.830609
-3.784383
-3.725674
-3.652964
-3.564171
-3.457251
-3.330253
-3.190609
0.000000
0.000000
0.000000
0.000000
-0.244939
-0.442224
-0.644777
-0.844884
-1.042853
-1.238109
-1.430184
-1.618624
-1.803000
-1.982906
-2.157963
-2.327814
-2.492127
-2.650588
-2.802898
-2.948766
-3.087899
-3.219996
-3.344734
-3.461757
-3.570669
-3.671020
-3.762307
-3.843973
-3.915419
-3.976015
-4.025132
-4.062162
-4.086541
-4.097752
-4.095295
-4.078604
-4.046909
-3.999037
-3.933214
-3.846939
-3.737123
-3.600923
-3.435875
-3.252254
0.000000
0.000000
0.000000
0.000000
-0.244941
-0.442228
-0.644785
-0.844897
-1.042874
-1.238145
-1.430244
-1.618722
-1.803158
-1.983157
-2.158359
-2.328432
-2.493081
-2.652045
-2.805098
-2.952049
-3.092742
-3.227056
-3.354899
-3.476212
-3.590960
-3.699131
-3.800724
-3.895741
-3.984164
-4.065924
-4.140852
-4.208599
-4.268528
-4.319542
-4.359875
-4.386810
-4.396378
-4.383081
-4.339750
-4.257765
-4.127887
-3.942413
-3.696249
-3.407764
0.000000
0.000000
0.000000
0.000000
-0.244941
-0.442228
-0.644785
-0.844897
-1.042874
-1.238145
-1.430244
-1.618722
-1.803158
-1.983157
-2.158359
-2.328432
-2.493081
-2.652045
-2.805098
-2.952050
-3.092744
-3.227060
-3.354909
-3.476234
-3.591006
-3.699226
-3.800918
-3.896130
-3.984927
-4.067393
-4.143625
-4.213731
-4.277826
-4.336029
-4.388461
-4.435244
-4.476492
-4.512317
-4.542820
-4.568092
-4.588211
-4.603242
-4.613168
-4.619374
0.000000
0.000000
0.000000
0.000000
-0.244941
-0.442228
-0.644785
-0.844897
-1.042874
-1.238145
-1.430244
-1.618722
-1.803158
-1.983157
-2.158359
-2.328432
-2.493081
-2.652045
-2.805098
-2.952050
-3.092744
-3.227060
-3.354909
-3.476234
-3.591006
-3.699226
-3.800918
-3.896130
-3.984927
-4.067393
-4.143625
-4.213731
-4.277826
-4.336029
-4.388461
-4.435244
-4.476492
-4.512317
-4.542820
-4.568092
-4.588211
-4.603242
-4.613168
-4.619374
0.000000
0.000000
0.000000
0.000000
-0.244941
-0.442228
-0.644785
-0.844897
-1.042874
-1.238145
-1.430244
-1.618722
-1.803158
-1.983157
-2.158359
-2.328432
-2.493081
-2.652045
-2.805098
-2.952050
-3.092744
-3.227060
-3.354909
-3.476234
-3.591006
-3.699226
-3.800918
-3.896130
-3.984927
-4.067393
-4.143625
-4.213731
-4.277826
-4.336029
-4.388461
-4.435244
-4.476492
-4.512317
-4.542820
-4.568092
-4.588211
-4.603242
-4.613168
-4.619374
0.000000
0.000000
0.000000
0.000000
-0.244941
-0.442228
-0.644785
-0.844897
-1.042874
-1.238145
-1.430244
-1.618722
-1.803158
-1.983157
-2.158359
-2.328432
-2.493081
-2.652045
-2.805098
-2.952050
-3.092744
-3.227060
-3.354909
-3.476234
-3.591006
-3.699226
-3.800918
-3.896130
-3.984927
-4.067393
-4.143625
-4.213731
-4.277826
-4.336029
-4.388461
-4.435244
-4.476492
-4.512317
-4.542820
-4.568092
-4.588211
-4.603242
-4.613168
-4.619374
0.000000
0.000000
0.000000
0.000000
-0.244941
-0.442228
-0.644785
-0.844897
-1.042874
-1.238145
-1.430244
-1.618722
-1.803158
-1.983157
-2.158359
-2.328432
-2.493081
-2.652045
-2.805098
-2.952050
-3.092744
-3.227060
-3.354909
-3.476234
-3.591006
-3.699226
-3.800918
-3.896130
-3.984927
-4.067393
-4.143625
-4.213731
-4.277826
-4.336029
-4.388461
-4.435244
-4.476492
-4.512317
-4.542820
-4.568092
-4.588211
-4.603242
-4.613168
-4.619374
0.000000
0.000000
0.000000
0.000000
-0.244941
-0.442228
-0.644785
-0.844897
-1.042874
-1.238145
-1.430244
-1.618722
-1.803158
-1.983157
-2.158359
-2.328432
-2.493081
-2.652045
-2.805098
-2.952050
-3.092744
-3.227060
-3.354909
-3.476234
-3.591006
-3.699226
-3.800918
-3.896130
-3.984927
-4.067393
-4.143625
-4.213731
-4.277826
-4.336029
-4.388461
-4.435244
-4.476492
-4.512317
-4.542820
-4.568092
-4.588211
-4.603242
-4.613168
-4.619374
0.000000
0.000000
0.000000
0.000000
-0.244941
-0.442228
-0.644785
-0.844897
-1.042874
-1.238145
-1.430244
-1.618722
-1.803158
-1.983157
-2.158359
-2.328432
-2.493081
-2.652045
-2.805098
-2.952050
-3.092744
-3.227060
-3.354909
-3.476234
-3.591006
-3.699226
-3.800918
-3.896130
-3.984927
-4.067393
-4.143625
-4.213731
-4.277826
-4.336029
-4.388461
-4.435244
-4.476492
-4.512317
-4.542820
-4.568092
-4.588211
-4.603242
-4.613168
-4.619374
0.000000
0.000000
0.000000
0.000000
-0.244941
-0.442228
-0.644785
-0.844897
-1.042874
-1.238145
-1.430244
-1.618722
-1.803158
-1.983157
-2.158359
-2.328432
-2.493081
-2.652045
-2.805098
-2.952050
-3.092744
-3.227060
-3.354909
-3.476234
-3.591006
-3.699226
-3.800918
-3.896130
-3.984927
-4.067393
-4.143625
-4.213731
-4.277826
-4.336029
-4.388461
-4.435244
-4.476492
-4.512317
-4.542820
-4.568092
-4.588211
-4.603242
-4.613168
-4.619374
0.000000
0.000000
0.000000
0.000000
-0.244941
-0.442228
-0.644785
-0.844897
-1.042874
-1.238145
-1.430244
-1.618722
-1.803158
-1.983157
-2.158359
-2.328432
-2.493081
-2.652045
-2.805098
-2.952050
-3.092744
-3.227060
-3.354909
-3.476234
-3.591006
-3.699226
-3.800918
-3.896130
-3.984927
-4.067393
-4.143625
-4.213731
-4.277826
-4.336029
-4.388461
-4.435244
-4.476492
-4.512317
-4.542820
-4.568092
-4.588211
-4.603242
-4.613168
-4.619374
0.000000
0.000000
0.000000
0.000000
-0.244941
-0.442228
-0.644785
-0.844897
-1.042874
-1.238145
-1.430244
-1.618722
-1.803158
-1.983157
-2.158359
-2.328432
-2.493081
-2.652045
-2.805098
-2.952050
-3.092744
-3.227060
-3.354909
-3.476234
-3.591006
-3.699226
-3.800918
-3.896130
-3.984927
-4.067393
-4.143625
-4.213731
-4.277826
-4.336029
-4.388461
-4.435244
-4.476492
-4.512317
-4.542820
-4.568092
-4.588211
-4.603242
-4.613168
-4.619374
0.000000
0.000000
0.000000
0.000000
-0.244941
-0.442228
-0.644785
-0.844897
-1.042874
-1.238145
-1.430244
-1.618722
-1.803158
-1.983157
-2.158359
-2.328432
-2.493081
-2.652045
-2.805098
-2.952050
-3.092744
-3.227060
-3.354909
-3.476234
-3.591006
-3.699226
-3.800918
-3.896130
-3.984927
-4.067393
-4.143625
-4.213731
-4.277826
-4.336029
-4.388461
-4.435244
-4.476492
-4.512317
-4.542820
-4.568092
-4.588211
-4.603242
-4.613168
-4.619374
0.000000
0.000000
0.000000
0.000000
-0.244941
-0.442228
-0.644785
-0.844897
-1.042874
-1.238145
-1.430244
-1.618722
-1.803158
-1.983157
-2.158359
-2.328432
-2.493081
-2.652045
-2.805098
-2.952050
-3.092744
-3.227060
-3.354909
-3.476234
-3.591006
-3.699226
-3.800918
-3.896130
-3.984927
-4.067393
-4.143625
-4.213731
-4.277826
-4.336029
-4.388461
-4.435244
-4.476492
-4.512317
-4.542820
-4.568092
-4.588211
-4.603242
-4.613168
-4.619374
0.000000
0.000000
0.000000
0.000000
-0.244941
-0.442228
-0.644785
-0.844897
-1.042874
-1.238145
-1.430244
-1.618722
-1.803158
-1.983157
-2.158359
-2.328432
-2.493081
-2.652045
-2.805098
-2.952050
-3.092744
-3.227060
-3.354909
-3.476234
-3.591006
-3.699226
-3.800918
-3.896130
-3.984927
-4.067393
-4.143625
-4.213731
-4.277826
-4.336029
-4.388461
-4.435244
-4.476492
-4.512317
-4.542820
-4.568092
-4.588211
-4.603242
-4.613168
-4.619374
0.000000
0.000000
0.000000
0.000000
-0.244941
-0.442228
-0.644785
-0.844897
-1.042874
-1.238145
-1.430244
-1.618722
-1.803158
-1.983157
-2.158359
-2.328432
-2.493081
-2.652045
-2.805098
-2.952050
-3.092744
-3.227060
-3.354909
-3.476234
-3.591006
-3.699226
-3.800918
-3.896130
-3.984927
-4.067393
-4.143625
-4.213731
-4.277826
-4.336029
-4.388461
-4.435244
-4.476492
-4.512317
-4.542820
-4.568092
-4.588211
-4.603242
-4.613168
-4.619374
0.000000
0.000000
0.000000
0.000000
-0.244941
-0.442228
-0.644785
-0.844897
-1.042874
-1.238145
-1.430244
-1.618722
-1.803158
-1.983157
-2.158359
-2.328432
-2.493081
-2.652045
-2.805098
-2.952050
-3.092744
-3.227060
-3.354909
-3.476234
-3.591006
-3.699226
-3.800918
-3.896130
-3.984927
-4.067393
-4.143625
-4.213731
-4.277826
-4.336029
-4.388461
-4.435244
-4.476492
-4.512317
-4.542820
-4.568092
-4.588211
-4.603242
-4.613168
-4.619374
0.000000
0.000000
0.000000
0.000000
-0.244941
-0.442228
-0.644785
-0.844897
-1.042874
-1.238145
-1.430244
-1.618722
-1.803158
-1.983157
-2.158359
-2.328432
-2.493081
-2.652045
-2.805098
-2.952050
-3.092744
-3.227060
-3.354909
-3.476234
-3.591006
-3.699226
-3.800918
-3.896130
-3.984927
-4.067393
-4.143625
-4.213731
-4.277826
-4.336029
-4.388461
-4.435244
-4.476492
-4.512317
-4.542820
-4.568092
-4.588211
-4.603242
-4.613168
-4.619374
0.000000
0.000000
0.000000
0.000000
-0.244941
-0.442228
-0.644785
-0.844897
-1.042874
-1.238145
-1.430244
-1.618722
-1.803158
-1.983157
-2.158359
-2.328432
-2.493081
-2.652045
-2.805098
-2.952050
-3.092744
-3.227060
-3.354909
-3.476234
-3.591006
-3.699226
-3.800918
-3.896130
-3.984927
-4.067393
-4.143625
-4.213731
-4.277826
-4.336029
-4.388461
-4.435244
-4.476492
-4.512317
-4.542820
-4.568092
-4.588211