<?xml version='1.0' encoding='UTF-8'?>
<VTKFile xmlns='VTK' byte_order='LittleEndian' version='0.1' type='UnstructuredGrid'>
<UnstructuredGrid>
<Piece NumberOfCells='1816' NumberOfPoints='1816'>
<Points>
<DataArray NumberOfComponents='3' type='Float32' Name='Position' format='ascii'>
2.450000 0.400000 0.000000
2.450000 0.412500 0.000000
2.450000 0.425000 0.000000
2.450000 0.437500 0.000000
2.450000 0.450000 0.000000
2.450000 0.462500 0.000000
2.450000 0.475000 0.000000
2.450000 0.487500 0.000000
2.487500 0.400000 0.000000
2.487500 0.412500 0.000000
2.487500 0.425000 0.000000
2.487500 0.437500 0.000000
2.487500 0.450000 0.000000
2.487500 0.462500 0.000000
2.487500 0.475000 0.000000
2.487500 0.487500 0.000000
0.025000 0.000000 0.000000
0.025000 0.012500 0.000000
0.025000 0.025000 0.000000
0.025000 0.037500 0.000000
0.025000 0.050000 0.000000
0.025000 0.062500 0.000000
0.025000 0.075000 0.000000
0.025000 0.087500 0.000000
0.025000 0.100000 0.000000
0.025000 0.112500 0.000000
0.025000 0.125000 0.000000
0.025000 0.137500 0.000000
0.025000 0.150000 0.000000
0.025000 0.162500 0.000000
0.025000 0.175000 0.000000
0.025000 0.187500 0.000000
0.025000 0.200000 0.000000
0.025000 0.212500 0.000000
0.025000 0.225000 0.000000
0.025000 0.237500 0.000000
0.025000 0.250000 0.000000
0.025000 0.262500 0.000000
0.025000 0.275000 0.000000
0.025000 0.287500 0.000000
0.025000 0.300000 0.000000
0.025000 0.312500 0.000000
0.025000 0.325000 0.000000
0.025000 0.337500 0.000000
0.025000 0.350000 0.000000
0.025000 0.362500 0.000000
0.025000 0.375000 0.000000
0.025000 0.387500 0.000000
2.525000 0.400000 0.000000
2.525000 0.412500 0.000000
2.525000 0.425000 0.000000
2.525000 0.437500 0.000000
2.525000 0.450000 0.000000
2.525000 0.462500 0.000000
2.525000 0.475000 0.000000
2.525000 0.487500 0.000000
0.062500 0.000000 0.000000
0.062500 0.012500 0.000000
0.062500 0.025000 0.000000
0.062500 0.037500 0.000000
0.062500 0.050000 0.000000
0.062500 0.062500 0.000000
0.062500 0.075000 0.000000
0.062500 0.087500 0.000000
0.062500 0.100000 0.000000
0.062500 0.112500 0.000000
0.062500 0.125000 0.000000
0.062500 0.137500 0.000000
0.062500 0.150000 0.000000
0.062500 0.162500 0.000000
0.062500 0.175000 0.000000
0.062500 0.187500 0.000000
0.062500 0.200000 0.000000
0.062500 0.212500 0.000000
0.062500 0.225000 0.000000
0.062500 0.237500 0.000000
0.062500 0.250000 0.000000
0.062500 0.262500 0.000000
0.062500 0.275000 0.000000
0.062500 0.287500 0.000000
0.062500 0.300000 0.000000
0.062500 0.312500 0.000000
0.062500 0.325000 0.000000
0.062500 0.337500 0.000000
0.062500 0.350000 0.000000
0.062500 0.362500 0.000000
0.062500 0.375000 0.000000
0.062500 0.387500 0.000000
2.562500 0.400000 0.000000
2.562500 0.412500 0.000000
2.562500 0.425000 0.000000
2.562500 0.437500 0.000000
2.562500 0.450000 0.000000
2.562500 0.462500 0.000000
2.562500 0.475000 0.000000
2.562500 0.487500 0.000000
0.100000 0.000000 0.000000
0.100000 0.012500 0.000000
0.100000 0.025000 0.000000
0.100000 0.037500 0.000000
0.100000 0.050000 0.000000
0.100000 0.062500 0.000000
0.100000 0.075000 0.000000
0.100000 0.087500 0.000000
0.100000 0.100000 0.000000
0.100000 0.112500 0.000000
0.100000 0.125000 0.000000
0.100000 0.137500 0.000000
0.100000 0.150000 0.000000
0.100000 0.162500 0.000000
0.100000 0.175000 0.000000
0.100000 0.187500 0.000000
0.100000 0.200000 0.000000
0.100000 0.212500 0.000000
0.100000 0.225000 0.000000
0.100000 0.237500 0.000000
0.100000 0.250000 0.000000
0.100000 0.262500 0.000000
0.100000 0.275000 0.000000
0.100000 0.287500 0.000000
0.100000 0.300000 0.000000
0.100000 0.312500 0.000000
0.100000 0.325000 0.000000
0.100000 0.337500 0.000000
0.100000 0.350000 0.000000
0.100000 0.362500 0.000000
0.100000 0.375000 0.000000
0.100000 0.387500 0.000000
2.600000 0.400000 0.000000
2.600000 0.412500 0.000000
2.600000 0.425000 0.000000
2.600000 0.437500 0.000000
2.600000 0.450000 0.000000
2.600000 0.462500 0.000000
2.600000 0.475000 0.000000
2.600000 0.487500 0.000000
0.137500 0.000000 0.000000
0.137500 0.012500 0.000000
0.137500 0.025000 0.000000
0.137500 0.037500 0.000000
0.137500 0.050000 0.000000
0.137500 0.062500 0.000000
0.137500 0.075000 0.000000
0.137500 0.087500 0.000000
0.137500 0.100000 0.000000
0.137500 0.112500 0.000000
0.137500 0.125000 0.000000
0.137500 0.137500 0.000000
0.137500 0.150000 0.000000
0.137500 0.162500 0.000000
0.137500 0.175000 0.000000
0.137500 0.187500 0.000000
0.137500 0.200000 0.000000
0.137500 0.212500 0.000000
0.137500 0.225000 0.000000
0.137500 0.237500 0.000000
0.137500 0.250000 0.000000
0.137500 0.262500 0.000000
0.137500 0.275000 0.000000
0.137500 0.287500 0.000000
0.137500 0.300000 0.000000
0.137500 0.312500 0.000000
0.137500 0.325000 0.000000
0.137500 0.337500 0.000000
0.137500 0.350000 0.000000
0.137500 0.362500 0.000000
0.137500 0.375000 0.000000
0.137500 0.387500 0.000000
2.637500 0.400000 0.000000
2.637500 0.412500 0.000000
2.637500 0.425000 0.000000
2.637500 0.437500 0.000000
2.637500 0.450000 0.000000
2.637500 0.462500 0.000000
2.637500 0.475000 0.000000
2.637500 0.487500 0.000000
0.175000 0.000000 0.000000
0.175000 0.012500 0.000000
0.175000 0.025000 0.000000
0.175000 0.037500 0.000000
0.175000 0.050000 0.000000
0.175000 0.062500 0.000000
0.175000 0.075000 0.000000
0.175000 0.087500 0.000000
0.175000 0.100000 0.000000
0.175000 0.112500 0.000000
0.175000 0.125000 0.000000
0.175000 0.137500 0.000000
0.175000 0.150000 0.000000
0.175000 0.162500 0.000000
0.175000 0.175000 0.000000
0.175000 0.187500 0.000000
0.175000 0.200000 0.000000
0.175000 0.212500 0.000000
0.175000 0.225000 0.000000
0.175000 0.237500 0.000000
0.175000 0.250000 0.000000
0.175000 0.262500 0.000000
0.175000 0.275000 0.000000
0.175000 0.287500 0.000000
0.175000 0.300000 0.000000
0.175000 0.312500 0.000000
0.175000 0.325000 0.000000
0.175000 0.337500 0.000000
0.175000 0.350000 0.000000
0.175000 0.362500 0.000000
0.175000 0.375000 0.000000
0.175000 0.387500 0.000000
2.675000 0.400000 0.000000
2.675000 0.412500 0.000000
2.675000 0.425000 0.000000
2.675000 0.437500 0.000000
2.675000 0.450000 0.000000
2.675000 0.462500 0.000000
2.675000 0.475000 0.000000
2.675000 0.487500 0.000000
0.212500 0.000000 0.000000
0.212500 0.012500 0.000000
0.212500 0.025000 0.000000
0.212500 0.037500 0.000000
0.212500 0.050000 0.000000
0.212500 0.062500 0.000000
0.212500 0.075000 0.000000
0.212500 0.087500 0.000000
0.212500 0.100000 0.000000
0.212500 0.112500 0.000000
0.212500 0.125000 0.000000
0.212500 0.137500 0.000000
0.212500 0.150000 0.000000
0.212500 0.162500 0.000000
0.212500 0.175000 0.000000
0.212500 0.187500 0.000000
0.212500 0.200000 0.000000
0.212500 0.212500 0.000000
0.212500 0.225000 0.000000
0.212500 0.237500 0.000000
0.212500 0.250000 0.000000
0.212500 0.262500 0.000000
0.212500 0.275000 0.000000
0.212500 0.287500 0.000000
0.212500 0.300000 0.000000
0.212500 0.312500 0.000000
0.212500 0.325000 0.000000
0.212500 0.337500 0.000000
0.212500 0.350000 0.000000
0.212500 0.362500 0.000000
0.212500 0.375000 0.000000
0.212500 0.387500 0.000000
2.712500 0.400000 0.000000
2.712500 0.412500 0.000000
2.712500 0.425000 0.000000
2.712500 0.437500 0.000000
2.712500 0.450000 0.000000
2.712500 0.462500 0.000000
2.712500 0.475000 0.000000
2.712500 0.487500 0.000000
0.250000 0.000000 0.000000
0.250000 0.012500 0.000000
0.250000 0.025000 0.000000
0.250000 0.037500 0.000000
0.250000 0.050000 0.000000
0.250000 0.062500 0.000000
0.250000 0.075000 0.000000
0.250000 0.087500 0.000000
0.250000 0.100000 0.000000
0.250000 0.112500 0.000000
0.250000 0.125000 0.000000
0.250000 0.137500 0.000000
0.250000 0.150000 0.000000
0.250000 0.162500 0.000000
0.250000 0.175000 0.000000
0.250000 0.187500 0.000000
0.250000 0.200000 0.000000
0.250000 0.212500 0.000000
0.250000 0.225000 0.000000
0.250000 0.237500 0.000000
0.250000 0.250000 0.000000
0.250000 0.262500 0.000000
0.250000 0.275000 0.000000
0.250000 0.287500 0.000000
0.250000 0.300000 0.000000
0.250000 0.312500 0.000000
0.250000 0.325000 0.000000
0.250000 0.337500 0.000000
0.250000 0.350000 0.000000
0.250000 0.362500 0.000000
0.250000 0.375000 0.000000
0.250000 0.387500 0.000000
2.750000 0.400000 0.000000
2.750000 0.412500 0.000000
2.750000 0.425000 0.000000
2.750000 0.437500 0.000000
2.750000 0.450000 0.000000
2.750000 0.462500 0.000000
2.750000 0.475000 0.000000
2.750000 0.487500 0.000000
0.287500 0.000000 0.000000
0.287500 0.012500 0.000000
0.287500 0.025000 0.000000
0.287500 0.037500 0.000000
0.287500 0.050000 0.000000
0.287500 0.062500 0.000000
0.287500 0.075000 0.000000
0.287500 0.087500 0.000000
0.287500 0.100000 0.000000
0.287500 0.112500 0.000000
0.287500 0.125000 0.000000
0.287500 0.137500 0.000000
0.287500 0.150000 0.000000
0.287500 0.162500 0.000000
0.287500 0.175000 0.000000
0.287500 0.187500 0.000000
0.287500 0.200000 0.000000
0.287500 0.212500 0.000000
0.287500 0.225000 0.000000
0.287500 0.237500 0.000000
0.287500 0.250000 0.000000
0.287500 0.262500 0.000000
0.287500 0.275000 0.000000
0.287500 0.287500 0.000000
0.287500 0.300000 0.000000
0.287500 0.312500 0.000000
0.287500 0.325000 0.000000
0.287500 0.337500 0.000000
0.287500 0.350000 0.000000
0.287500 0.362500 0.000000
0.287500 0.375000 0.000000
0.287500 0.387500 0.000000
2.787500 0.400000 0.000000
2.787500 0.412500 0.000000
2.787500 0.425000 0.000000
2.787500 0.437500 0.000000
2.787500 0.450000 0.000000
2.787500 0.462500 0.000000
2.787500 0.475000 0.000000
2.787500 0.487500 0.000000
0.325000 0.000000 0.000000
0.325000 0.012500 0.000000
0.325000 0.025000 0.000000
0.325000 0.037500 0.000000
0.325000 0.050000 0.000000
0.325000 0.062500 0.000000
0.325000 0.075000 0.000000
0.325000 0.087500 0.000000
0.325000 0.100000 0.000000
0.325000 0.112500 0.000000
0.325000 0.125000 0.000000
0.325000 0.137500 0.000000
0.325000 0.150000 0.000000
0.325000 0.162500 0.000000
0.325000 0.175000 0.000000
0.325000 0.187500 0.000000
0.325000 0.200000 0.000000
0.325000 0.212500 0.000000
0.325000 0.225000 0.000000
0.325000 0.237500 0.000000
0.325000 0.250000 0.000000
0.325000 0.262500 0.000000
0.325000 0.275000 0.000000
[...]
<PointData>
<DataArray NumberOfComponents='1' type='Int32' Name='ParticleType' format='ascii'>
5
5
5
5
5
5
5
5
5
5
5
5
5
5
5
5
2
2
2
2
2
2
2
2
2
2
2
2
2
2
2
2
2
2
2
2
2
2
2
2
1
1
0
0
0
0
0
0
5
5
5
5
5
5
5
5
2
2
2
2
2
2
2
2
2
2
2
2
2
2
2
2
2
2
2
2
2
2
2
1
1
0
0
0
0
0
0
0
5
5
5
5
5
5
5
5
2
2
2
2
2
2
2
2
2
2
2
2
2
2
2
2
2
2
2
2
2
2
2
1
1
0
0
0
0
0
0
0
5
5
5
5
5
5
5
5
2
2
2
2
2
2
2
2
2
2
2
2
2
2
2
2
2
2
2
2
2
2
1
1
0
0
0
0
0
0
0
0
5
5
5
5
5
5
5
5
2
2
2
2
2
2
2
2
2
2
2
2
2
2
2
2
2
2
2
2
2
2
1
1
0
0
0
0
0
0
0
0
5
5
5
5
5
5
5
5
2
2
2
2
2
2
2
2
2
2
2
2
2
2
2
2
2
2
2
2
2
2
1
1
0
0
0
0
0
0
0
0
5
5
5
5
5
5
5
5
2
2
2
2
2
2
2
2
2
2
2
2
2
2
2
2
2
2
2
2
2
2
1
1
0
0
0
0
0
0
0
0
5
5
5
5
5
5
5
5
2
2
2
2
2
2
2
2
2
2
2
2
2
2
2
2
2
2
2
2
2
2
1
1
0
0
0
0
0
0
0
0
5
5
5
5
5
5
5
5
2
2
2
2
2
2
2
2
2
2
2
2
2
2
2
2
2
2
2
2
2
1
1
0
0
0
0
0
0
0
0
0
5
5
5
5
5
5
5
5
2
2
2
2
2
2
2
2
2
2
2
2
2
2
2
2
2
2
2
2
2
1
1
0
0
0
0
0
0
0
0
0
5
5
5
5
5
5
5
5
2
2
2
2
2
2
2
2
2
2
2
2
2
2
2
2
2
2
2
2
2
1
1
0
0
0
0
0
0
0
0
0
5
5
5
5
5
5
5
5
2
2
2
2
2
2
2
2
2
2
2
2
2
2
2
2
2
2
2
2
2
1
1
0
0
0
0
0
0
0
0
0
5
5
5
5
5
5
5
5
2
2
2
2
2
2
2
2
2
2
2
2
2
2
2
2
2
2
2
2
2
1
1
0
0
0
0
0
0
0
0
0
5
5
5
5
5
5
5
5
2
2
2
2
2
2
2
2
2
2
2
2
2
2
2
2
2
2
2
2
2
1
1
0
0
0
0
0
0
0
0
0
2
2
2
2
2
2
2
2
2
2
2
2
2
2
2
2
2
2
2
2
2
1
1
0
0
0
0
0
0
0
0
0
2
2
2
2
2
2
2
2
2
2
2
2
2
2
2
2
2
2
2
2
2
1
1
0
0
0
0
0
0
0
0
0
2
2
2
2
2
2
2
2
2
2
2
2
2
2
2
2
2
2
2
2
2
1
1
0
0
0
0
0
0
0
0
0
2
2
2
2
2
2
2
2
2
2
2
2
2
2
2
2
2
2
2
2
2
1
1
0
0
0
0
0
0
0
0
0
2
2
2
2
2
2
2
2
2
2
2
2
2
2
2
2
2
2
2
2
2
1
1
0
0
0
0
0
0
0
0
0
2
2
2
2
2
2
2
2
2
2
2
2
2
2
2
2
2
2
2
2
2
1
1
0
0
0
0
0
0
0
0
0
2
2
2
2
2
2
2
2
2
2
2
2
2
2
2
2
2
2
2
2
2
1
1
0
0
0
0
0
0
0
0
0
2
2
2
2
2
2
2
2
2
2
2
2
2
2
2
2
2
2
2
2
2
1
1
0
0
0
0
0
0
0
0
0
2
2
2
2
2
2
2
2
2
2
2
2
2
2
2
2
2
2
2
2
2
1
1
0
0
0
0
0
0
0
0
0
2
2
2
2
2
2
2
2
2
2
2
2
2
2
2
2
2
2
2
2
2
2
1
0
0
0
0
0
0
0
0
0
2
2
2
2
2
2
2
2
2
2
2
2
2
2
2
2
2
2
2
2
2
2
1
0
0
0
0
0
0
0
0
0
2
2
2
2
2
2
2
2
2
2
2
2
2
2
2
2
2
2
2
2
2
2
1
1
0
0
0
0
0
0
0
0
2
2
2
2
2
2
2
2
2
2
2
2
2
2
2
2
2
2
2
2
2
2
1
1
0
0
0
0
0
0
0
0
2
2
2
2
2
2
2
2
2
2
2
2
2
2
2
2
2
2
2
2
2
2
1
1
0
0
0
0
0
0
0
0
2
2
2
2
2
2
2
2
2
2
2
2
2
2
2
2
2
2
2
2
2
2
1
1
0
0
0
0
0
0
0
0
2
2
2
2
2
2
2
2
2
2
2
2
2
2
2
2
2
2
2
2
2
2
1
1
0
0
0
0
0
0
0
0
2
2
2
2
2
2
2
2
2
2
2
2
2
2
2
2
2
2
2
2
2
2
1
1
0
0
0
0
0
0
0
0
2
2
2
2
2
2
2
2
2
2
2
2
2
2
2
2
2
2
2
2
2
2
1
1
0
0
0
0
0
0
0
0
2
2
2
2
2
2
2
2
2
2
2
2
2
2
2
2
2
2
2
2
2
2
1
1
0
0
0
0
0
0
0
0
2
2
2
2
2
2
2
2
2
2
2
2
2
2
2
2
2
2
2
2
2
2
1
1
0
0
0
0
0
0
0
0
2
2
2
2
2
2
2
2
2
2
2
2
2
2
2
2
2
2
2
2
2
2
2
1
0
0
0
0
0
0
0
0
2
2
2
2
2
2
2
2
2
2
2
2
2
2
2
2
2
2
2
2
2
2
1
1
0
0
0
0
0
0
0
0
2
2
2
2
2
2
2
2
2
2
2
2
2
2
2
2
2
2
2
2
2
2
2
1
1
0
0
0
0
0
0
0
2
2
2
2
2
2
2
2
2
2
2
2
2
2
2
2
2
2
2
2
2
2
1
1
0
0
0
0
0
0
0
0
2
2
2
2
2
2
2
2
2
2
2
2
2
2
2
2
2
2
2
2
2
2
2
1
1
0
0
0
0
0
0
0
2
2
2
2
2
2
2
2
2
2
2
2
2
2
2
2
2
2
2
2
2
2
2
1
1
0
0
0
0
0
0
0
2
2
2
2
2
2
2
2
2
2
2
2
2
2
2
2
2
2
2
2
2
2
2
1
1
0
0
0
0
0
0
0
2
2
2
2
2
2
2
2
2
2
2
2
2
2
2
2
2
2
2
2
2
2
2
1
1
0
0
0
0
0
0
0
2
2
2
2
2
2
2
2
2
2
2
2
2
2
2
2
2
2
2
2
2
2
2
1
1
0
0
0
0
0
0
0
2
2
2
2
2
2
2
2
2
2
2
2
2
2
2
2
2
2
2
2
2
2
2
1
1
0
0
0
0
0
0
0
2
2
2
2
2
2
2
2
2
2
2
2
2
2
2
2
2
2
2
2
2
2
2
1
1
0
0
0
0
0
0
0
2
2
2
2
2
2
2
2
2
2
2
2
2
2
2
2
2
2
2
2
2
2
2
1
1
0
0
0
0
0
0
0
2
2
2
2
2
2
2
2
2
2
2
2
2
2
2
2
2
2
2
2
2
2
2
1
1
0
0
0
0
0
0
0
2
2
2
2
2
2
2
2
2
2
2
2
2
2
2
2
2
2
2
2
2
2
2
1
1
0
0
0
0
0
0
0
2
2
2
2
2
2
2
2
2
2
2
2
2
2
2
2
2
2
2
2
2
2
2
2
1
0
0
0
0
0
0
0
2
2
2
2
2
2
2
2
2
2
2
2
2
2
2
2
2
2
2
2
2
2
2
2
1
1
0
0
0
0
0
0
2
2
2
2
2
2
2
2
2
2
2
2
2
2
2
2
2
2
2
2
2
2
2
2
1
1
0
0
0
0
0
0
2
2
2
2
2
2
2
2
2
2
2
2
2
2
2
2
2
2
2
2
2
2
2
2
1
1
0
0
0
0
0
0
2
2
2
2
2
2
2
2
2
2
2
2
2
2
2
2
2
2
2
2
2
2
2
2
1
1
0
0
0
0
0
0
</DataArray>
<DataArray NumberOfComponents='1' type='Float32' Name='Temperature' format='ascii'>
-3.000000
-3.000000
-3.000000
-3.000000
-3.000000
-3.000000
-3.000000
-3.000000
-3.000000
-3.000000
-3.000000
-3.000000
-3.000000
-3.000000
-3.000000
-3.000000
-4.736012
-4.721827
-4.699129
-4.664469
-4.617415
-4.557236
-4.483044
-4.393836
-4.288518
-4.165943
-4.024950
-3.864420
-3.683324
-3.480792
-3.256179
-3.009136
-2.739693
-2.448324
-2.136019
-1.804328
-1.455438
-1.091730
-0.719623
-0.320833
-0.004018
0.008290
13.789149
25.933432
38.964567
51.224635
60.865757
67.843459
-3.000000
-3.000000
-3.000000
-3.000000
-3.000000
-3.000000
-3.000000
-3.000000
-4.726787
-4.712031
-4.688414
-4.652344
-4.603362
-4.540693
-4.463392
-4.370384
-4.260481
-4.132413
-3.984863
-3.816504
-3.626047
-3.412295
-3.174216
-2.911023
-2.622282
-2.308020
-1.968841
-1.606069
-1.221462
-0.820388
-0.389186
-0.005561
0.005451
12.640702
26.266875
42.867994
60.804680
77.869263
91.314008
101.056836
-3.000000
-3.000000
-3.000000
-3.000000
-3.000000
-3.000000
-3.000000
-3.000000
-4.720428
-4.705281
-4.681036
-4.644002
-4.593702
-4.529333
-4.449919
-4.354351
-4.241409
-4.109802
-3.958207
-3.785318
-3.589904
-3.370874
-3.127355
-2.858781
-2.564992
-2.246341
-1.903810
-1.539171
-1.154479
-0.757399
-0.321546
-0.002896
0.006796
17.697192
35.506530
56.972299
80.119431
102.212407
119.672289
132.360197
-3.000000
-3.000000
-3.000000
-3.000000
-3.000000
-3.000000
-3.000000
-3.000000
-4.712410
-4.696685
-4.671508
-4.633041
-4.580778
-4.513875
-4.431311
-4.331933
-4.214479
-4.077616
-3.919980
-3.740196
-3.536910
-3.308788
-3.054519
-2.772822
-2.462488
-2.122528
-1.752475
-1.352633
-0.926344
-0.468842
-0.008631
-0.001529
10.173854
26.741017
48.390687
74.261199
102.100545
128.673328
149.710710
165.039278
-3.000000
-3.000000
-3.000000
-3.000000
-3.000000
-3.000000
-3.000000
-3.000000
-4.706741
-4.690582
-4.664703
-4.625148
-4.571380
-4.502503
-4.417429
-4.314915
-4.193589
-4.051986
-3.888590
-3.701882
-3.490403
-3.252831
-2.988076
-2.695395
-2.374535
-2.025881
-1.650661
-1.250554
-0.832426
-0.373995
-0.005278
0.004498
16.597525
35.474217
60.272160
89.905559
122.039324
152.880839
177.394018
195.314384
-3.000000
-3.000000
-3.000000
-3.000000
-3.000000
-3.000000
-3.000000
-3.000000
-4.705006
-4.688747
-4.662710
-4.622916
-4.568827
-4.499545
-4.413984
-4.310902
-4.188934
-4.046623
-3.882466
-3.694956
-3.482652
-3.244246
-2.978661
-2.685169
-2.363529
-2.014130
-1.638200
-1.237316
-0.818877
-0.355741
-0.004745
0.006132
18.471419
40.087020
68.597271
102.762922
139.877894
175.560554
203.959147
224.745139
-3.000000
-3.000000
-3.000000
-3.000000
-3.000000
-3.000000
-3.000000
-3.000000
-4.702661
-4.686277
-4.660040
-4.619940
-4.565435
-4.495622
-4.409402
-4.305526
-4.182613
-4.039198
-3.873769
-3.684824
-3.470934
-3.230826
-2.963475
-2.668224
-2.344913
-1.994003
-1.616780
-1.214715
-0.796095
-0.326439
-0.003417
0.006456
21.305671
45.581994
77.573685
115.916408
157.607818
197.722911
229.674218
253.082669
-3.000000
-3.000000
-3.000000
-3.000000
-3.000000
-3.000000
-3.000000
-3.000000
-4.699977
-4.683413
-4.656884
-4.616330
-4.561198
-4.490562
-4.403300
-4.298133
-4.173657
-4.028384
-3.860797
-3.669411
-3.452844
-3.209910
-2.939715
-2.641768
-2.316090
-1.963311
-1.584850
-1.182077
-0.764519
-0.288367
-0.006285
0.008385
24.791757
51.701090
87.001621
129.331083
175.485315
219.997787
255.513824
281.576228
-3.000000
-3.000000
-3.000000
-3.000000
-3.000000
-3.000000
-3.000000
-3.000000
-4.697296
-4.680470
-4.653509
-4.612278
-4.556189
-4.484274
-4.395366
-4.288137
-4.161142
-4.012869
-3.841803
-3.646497
-3.425651
-3.178185
-2.903287
-2.600356
-2.268743
-1.907052
-1.512000
-1.076148
-0.598418
-0.003847
-0.000685
5.696315
29.619882
58.863891
96.875964
142.506891
192.520755
240.989659
279.798481
308.359451
-3.000000
-3.000000
-3.000000
-3.000000
-3.000000
-3.000000
-3.000000
-3.000000
-4.695027
-4.678056
-4.650869
-4.609300
-4.552771
-4.480323
-4.390799
-4.282889
-4.155164
-4.006132
-3.834295
-3.638218
-3.416601
-3.168345
-2.892596
-2.588685
-2.255885
-1.892795
-1.496409
-1.060650
-0.584869
-0.009819
-0.002529
6.224822
31.865967
63.731869
105.177818
154.865723
209.277076
262.030464
304.314543
335.480034
-3.000000
-3.000000
-3.000000
-3.000000
-3.000000
-3.000000
-3.000000
-3.000000
-4.692432
-4.675246
-4.647714
-4.605616
-4.548364
-4.474983
-4.384296
-4.274963
-4.145510
-3.994365
-3.819886
-3.620391
-3.394172
-3.139518
-2.854751
-2.538318
-2.188976
-1.806142
-1.389984
-0.945080
-0.457962
-0.007736
0.002446
14.132298
37.262435
70.402140
114.165630
167.125543
225.362924
282.005921
327.520579
361.146000
-3.000000
-3.000000
-3.000000
-3.000000
-3.000000
-3.000000
-3.000000
-3.000000
-4.690646
-4.673335
-4.645601
-4.603190
-4.545503
-4.471556
-4.380158
-4.269956
-4.139469
-3.987125
-3.811293
-3.610318
-3.382545
-3.126341
-2.840144
-2.522547
-2.172484
-1.789572
-1.374132
-0.931221
-0.444866
-0.008523
0.002497
15.055637
40.021451
75.270653
121.753337
178.167448
240.472807
301.305031
350.324066
386.627245
-3.000000
-3.000000
-3.000000
-3.000000
-3.000000
-3.000000
-3.000000
-3.000000
-4.685295
-4.667814
-4.639812
-4.596998
-4.538777
-4.464154
-4.371921
-4.260689
-4.128911
-3.974916
-3.796947
-3.593199
-3.361887
-3.101327
-2.810068
-2.487062
-2.131884
-1.745051
-1.327695
-0.886935
-0.397277
-0.007582
0.002370
18.633409
43.750065
80.412681
129.310710
189.051996
255.184488
319.842195
372.007194
410.698016
-3.000000
-3.000000
-3.000000
-3.000000
-3.000000
-3.000000
-3.000000
-3.000000
-4.681665
-4.664013
-4.635732
-4.592486
-4.533665
-4.458257
-4.365027
-4.252558
-4.119274
-3.963477
-3.783392
-3.577223
-3.343232
-3.079840
-2.785765
-2.460196
-2.102991
-1.714957
-1.297339
-0.858158
-0.365452
-0.003918
0.004897
21.054177
47.796381
86.288644
137.437526
200.013379
269.453155
337.498646
392.494066
433.353933
-4.693074
-4.675820
-4.648170
-4.605871
-4.548310
-4.474468
-4.383105
-4.272788
-4.141920
-3.988765
-3.811489
-3.608206
-3.377040
-3.116221
-2.824218
-2.499915
-2.142847
-1.753511
-1.333021
-0.888778
-0.393415
-0.006799
0.005680
19.438867
45.537988
83.894643
135.464364
198.983486
269.815173
339.511514
396.029736
438.161024
-4.713126
-4.696517
-4.669883
-4.629114
-4.573580
-4.502263
-4.413921
-4.307129
-4.180302
-4.031729
-3.859594
-3.662006
-3.437013
-3.182631
-2.896891
-2.577958
-2.224356
-1.835382
-1.411229
-0.957035
-0.457718
-0.003687
0.000307
15.198863
40.502416
78.381685
130.073929
194.331456
266.536587
338.038185
396.302422
439.930505
-4.723957
-4.707501
-4.681093
-4.640632
-4.585456
-4.514504
-4.426486
-4.319923
-4.193182
-4.044501
-3.872034
-3.673872
-3.448072
-3.192679
-2.905775
-2.585580
-2.230657
-1.840305
-1.414635
-0.958838
-0.456250
-0.005255
0.001051
15.801104
42.105628
80.503709
132.564553
197.290123
270.272208
342.847406
402.210814
446.837849
-4.740997
-4.724967
-4.699219
-4.659719
-4.605765
-4.536249
-4.449825
-4.344958
-4.219956
-4.073016
-3.902274
-3.705843
-3.481837
-3.228378
-2.943581
-2.625564
-2.272537
-1.883114
-1.456592
-0.996409
-0.492201
-0.004358
-0.000416
13.467166
39.959782
77.776784
129.350847
194.106457
267.919042
341.999296
403.006068
449.143708
-4.752287
-4.736602
-4.711393
-4.672698
-4.619803
-4.551585
-4.466674
-4.363497
-4.240303
-4.095204
-3.926207
-3.731245
-3.508199
-3.254910
-2.969206
-2.648978
-2.292362
-1.898155
-1.466055
-1.000458
-0.489056
-0.006614
-0.000721
14.419015
39.668167
77.363652
129.459312
195.265388
270.473602
346.142874
408.617718
456.016679
-4.769005
-4.753827
-4.729408
-4.691874
-4.640475
-4.574042
-4.491156
-4.390184
-4.269322
-4.126646
-3.960173
-3.767930
-3.548009
-3.298601
-3.017963
-2.704293
-2.355513
-1.969110
-1.542243
-1.073736
-0.561459
-0.004329
-0.002133
9.887319
36.862038
74.242115
125.933835
191.781046
267.888708
345.210332
409.507821
458.601205
-4.779535
-4.764705
-4.740833
-4.704121
-4.653809
-4.588724
-4.507434
-4.408285
-4.289438
-4.148910
-3.984627
-3.794469
-3.576304
-3.327988
-3.047318
-2.731941
-2.379285
-1.986705
-1.551905
-1.075685
-0.554085
-0.006920
-0.002696
11.219377
36.366893
73.642970
125.915538
192.864950
270.414173
349.399789
415.267566
465.745335
-4.795511
-4.781225
-4.758199
-4.722735
-4.674035
-4.610881
-4.531782
-4.435013
-4.318651
-4.180622
-4.018776
-3.830962
-3.615128
-3.369430
-3.092332
-2.782648
-2.439414
-2.061306
-1.645340
-1.182905
-0.671964
-0.004489
-0.003731
5.541582
33.823015
70.595863
122.260245
189.144454
267.617852
348.395406
416.275694
468.653114
-4.805239
-4.791294
-4.768807
-4.734154
-4.686533
-4.624726
-4.547238
-4.452336
-4.338077
-4.202357
-4.042968
-3.857669
-3.644267
-3.400689
-3.125005
-2.815336
-2.469512
-2.084411
-1.655219
-1.174998
-0.643598
-0.007150
-0.004485
7.493628
33.034020
69.788673
122.119944
190.156487
270.108608
352.624093
422.186835
476.092311
-4.820409
-4.807041
-4.785456
-4.752136
-4.706245
-4.646522
-4.571415
-4.479117
-4.367591
-4.234620
-4.077866
-3.894950
-3.683555
-3.441546
-3.167121
-2.858975
-2.516466
-2.139767
-1.730120
-1.288807
-0.827584
-0.289460
-0.004894
0.200121
31.029461
66.869697
118.307427
186.164201
267.070552
351.533308
423.322170
479.364051
-4.829351
-4.816315
-4.795254
-4.762724
-4.717888
-4.659488
-4.585977
-4.495547
-4.386160
-4.255586
-4.101454
-3.921327
-3.712785
-3.473548
-3.201613
-2.895414
-2.553966
-2.176880
-1.763993
-1.312182
-0.823175
-0.159592
-0.005924
3.054062
29.769691
65.822251
118.055880
187.108807
269.518604
355.791318
429.386612
487.125893
-4.843678
-4.831251
-4.811146
-4.780036
-4.737050
-4.680895
-4.609969
-4.522394
-4.416039
-4.288556
-4.137435
-3.960072
-3.753862
-3.516328
-3.245274
-2.938972
-2.596375
-2.217328
-1.802860
-1.354324
-0.882522
-0.338536
-0.005759
0.008441
28.362120
62.993427
114.036907
182.804598
266.205895
354.597388
430.658635
490.808469
-4.852068
-4.839979
-4.820407
-4.790102
-4.748197
-4.693403
-4.624134
-4.538528
-4.434472
-4.309636
-4.161513
-3.987480
-3.784868
-3.551062
-3.283644
-2.980560
-2.640347
-2.262375
-1.847195
-1.395870
-0.918305
-0.370963
-0.006781
0.009414
26.565025
61.662968
113.643825
183.662940
268.592245
358.869753
436.877503
498.926479
-4.866739
-4.855394
-4.837001
-4.808468
-4.768918
-4.717057
-4.651285
-4.569720
-4.470216
-4.350394
-4.207673
-4.039311
-3.842469
-3.614282
-3.351974
-3.053025
-2.715395
-2.337830
-1.920283
-1.463546
-0.976204
-0.424405
-0.007818
0.006620
23.232206
56.768925
107.942291
178.217965
264.620748
357.434752
438.272862
503.083579
-4.877000
-4.866123
-4.848464
-4.821025
-4.782909
-4.732804
-4.669089
-4.589860
-4.492959
-4.376003
-4.236431
-4.071554
-3.878598
-3.654764
-3.397278
-3.103471
-2.770906
-2.397610
-1.982505
-1.525401
-1.032484
-0.480214
-0.006967
0.002593
19.511411
54.187424
105.675494
176.522136
264.163725
359.135047
442.495692
509.893683
-4.882888
-4.872243
-4.854946
-4.828046
-4.790636
-4.741395
-4.678688
-4.600594
-4.504927
-4.389273
-4.251027
-4.087438
-3.895655
-3.672777
-3.415903
-3.122209
-2.789089
-2.414386
-1.996855
-1.536167
-1.038527
-0.480041
-0.001184
0.003202
19.861666
54.304226
106.046724
177.584472
266.500264
363.401554
448.958937
518.660107
-4.894664
-4.884707
-4.868502
-4.843250
-4.808040
-4.761549
-4.702136
-4.627862
-4.536514
-4.425642
-4.292601
-4.134618
-3.948850
-3.732462
-3.482664
-3.196728
-2.871940
-2.505547
-2.094846
-1.637424
-1.134427
-0.577609
-0.008954
-0.001003
13.587524
48.432215
99.497344
171.283754
261.766873
361.559650
450.460460
523.547191
-4.900872
-4.891175
-4.875371
-4.850708
-4.816256
-4.770666
-4.712261
-4.639051
-4.548752
-4.438804
-4.306403
-4.148536
-3.962014
-3.743521
-3.489677
-3.197146
-2.862825
-2.484155
-2.059657
-1.589038
-1.078492
-0.506998
-0.001907
0.002597
19.163763
51.176671
101.597310
173.328693
264.606789
366.102203
457.216771
532.838042
-4.911767
-4.902770
-4.888082
-4.865110
-4.832925
-4.790187
-4.735226
-4.666053
-4.580380
-4.475647
-4.349066
-4.197680
-4.018449
-3.808348
-3.564491
-3.284240
-2.965247
-2.605309
-2.201829
-1.750878
-1.245661
-0.685082
-0.006864
-0.000227
8.123988
43.882411
94.199125
166.455764
259.451271
364.087089
458.899407
538.379193
-4.917380
-4.908644
-4.894360
-4.871982
-4.840565
-4.798747
-4.744827
-4.676781
-4.592268
-4.488662
-4.363079
-4.212417
-4.033398
-3.822599
-3.576476
-3.291370
-2.963540
-2.589316
-2.165538
-1.690093
-1.165916
-0.583038
-0.002218
0.000480
15.225946
46.388238
96.091618
168.308629
262.087325
368.509435
465.761994
548.180707
-4.927177
-4.919140
-4.905973
-4.885294
-4.856166
-4.817245
-4.766844
-4.702945
-4.623204
-4.524972
-4.405333
-4.261151
-4.089150
-3.886015
-3.648531
-3.373754
-3.059222
-2.703195
-2.304917
-1.865007
-1.384089
-0.874977
-0.242815
-0.001567
1.453377
39.464303
88.641762
161.088740
256.542136
366.306236
467.634263
554.470443
-4.932186
-4.924407
-4.911642
-4.891555
-4.863192
-4.825190
-4.775835
-4.713069
-4.634505
-4.537441
-4.418892
-4.275643
-4.104309
-3.901407
-3.663409
-3.386745
-3.067688
-2.702096
-2.285118
-1.811274
-1.276419
-0.679548
-0.002487
-0.001517
10.786818
41.458387
90.285453
162.764493
258.955446
370.570764
474.588609
564.858279
-4.940874
-4.933786
-4.922127
-4.903729
-4.877656
-4.842571
-4.796787
-4.738270
-4.664639
-4.573181
-4.460873
-4.324421
-4.160326
-3.964972
-3.734756
-3.466259
-3.156473
-2.803066
-2.404692
-1.961438
-1.473913
-0.954958
-0.342482
-0.002472
0.008336
35.168901
82.786839
155.125328
252.954404
368.129822
476.645417
572.004382
-4.945299
-4.938466
-4.927205
-4.909395
-4.884084
-4.849915
-4.805175
-4.747793
-4.675341
-4.585052
-4.473834
-4.338320
-4.174932
-3.979974
-3.749760
-3.480775
-3.169826
-2.814080
-2.410658
-1.955227
-1.435999
-0.847786
-0.002628
-0.003208
5.678649
36.477792
84.207592
156.660084
255.120982
372.185791
483.666993
583.070183
-4.952883
-4.946724
-4.936546
-4.920397
-4.897351
-4.866090
-4.824939
-4.771865
-4.704470
-4.619997
-4.515344
-4.387092
-4.231555
-4.044846
-3.822985
-3.562049
-3.258390
-2.908926
-2.511521
-2.065509
-1.571123
-1.039077
-0.420403
-0.003256
0.005969
30.452990
76.491848
148.517851
248.596534
369.449377
485.895543
591.201304
-4.956741
-4.950832
-4.941043
-4.925471
-4.903174
-4.872813
-4.832687
-4.780722
-4.714465
-4.631090
-4.527411
-4.399907
-4.244781
-4.058033
-3.835579
-3.573422
-3.267887
-2.915938
-2.515563
-2.066302
-1.568606
-1.033801
-0.410290
-0.000688
0.009972
31.639852
77.923718
149.970270
250.488791
373.233840
492.948567
603.058435
-4.963182
-4.957908
-4.949143
-4.935142
-4.914989
-4.887379
-4.850632
-4.802678
-4.741035
-4.662794
-4.564616
-4.442751
-4.293077
-4.111189
-3.892545
-3.632682
-3.327522
-2.973775
-2.569392
-2.114150
-1.609060
-1.065807
-0.436791
-0.007123
0.005904
30.381152
72.729338
142.855750
244.053382
370.406377
495.434884
612.379694
-4.966172
-4.961094
-4.952633
-4.939083
-4.919515
-4.892615
-4.856695
-4.809686
-4.749125
-4.672151
-4.575521
-4.455633
-4.308574
-4.130181
-3.916133
-3.662071
-3.363778
-3.017444
-2.620054
-2.170004
-1.666950
-1.119642
-0.491686
0.000061
0.005996
26.321029
71.368728
142.778050
245.105478
373.690423
502.444507
625.180120
-4.970136
-4.965426
-4.957553
-4.944896
-4.926532
-4.901149
-4.867060
-4.822190
-4.764057
-4.689771
-4.596053
-4.479257
-4.335430
-4.160375
-3.949736
-3.699102
-3.404140
-3.060807
-2.665677
-2.216534
-1.712436
-1.160698
-0.531046
-0.004900
0.007526
24.025147
68.932929
139.821877
242.731849
374.159086
507.765478
637.799252
-4.974158
-4.969878
-4.962699
-4.951111
-4.934214
-4.910726
-4.878991
-4.836960
-4.782165
-4.711720
-4.622324
-4.510296
-4.371620
-4.202021
-3.997041
-3.752123
-3.462703
-3.124329
-2.732892
-2.285158
-1.779109
-1.219807
-0.585956
-0.006366
0.000972
20.825684
64.903274
135.208382
238.835466
373.298600
511.958219
649.730129
-4.977850
-4.973984
-4.967472
-4.956913
-4.941424
-4.919750
-4.890257
-4.850908
-4.799233
-4.732320
-4.646819
-4.538968
-4.404651
-4.239480
-4.038892
-3.798247
-3.512899
-3.178245
-2.789795
-2.343482
-1.836070
-1.269920
-0.631070
-0.000959
0.006427
17.972924
62.033523
131.561074
235.572358
372.995484
517.073232
663.671217
-4.981176
-4.977714
-4.971861
-4.962325
-4.948255
-4.928436
-4.901279
-4.864787
-4.816523
-4.753591
-4.672630
-4.569839
-4.441030
-4.281716
-4.087230
-3.852851
-3.573893
-3.245711
-2.863577
-2.422547
-1.917553
-1.346383
-0.702764
-0.006788
-0.001744
14.362406
57.840488
126.599213
231.079066
371.549382
521.153417
677.070061
-4.984156
-4.981077
-4.975847
-4.967279
-4.954550