<?xml version='1.0' encoding='UTF-8'?>
<VTKFile xmlns='VTK' byte_order='LittleEndian' version='0.1' type='UnstructuredGrid'>
<UnstructuredGrid>
<Piece NumberOfCells='1888' NumberOfPoints='1888'>
<Points>
<DataArray NumberOfComponents='3' type='Float32' Name='Position' format='ascii'>
-0.040000 -0.030000 0.000000
-0.040000 -0.020000 0.000000
-0.040000 -0.010000 0.000000
-0.040000 0.000000 0.000000
-0.040000 0.010000 0.000000
-0.040000 0.020000 0.000000
-0.040000 0.030000 0.000000
-0.040000 0.040000 0.000000
-0.040000 0.050000 0.000000
-0.040000 0.060000 0.000000
-0.040000 0.070000 0.000000
-0.040000 0.080000 0.000000
-0.040000 0.090000 0.000000
-0.040000 0.100000 0.000000
-0.040000 0.110000 0.000000
-0.040000 0.120000 0.000000
-0.040000 0.130000 0.000000
-0.040000 0.140000 0.000000
-0.040000 0.150000 0.000000
-0.040000 0.160000 0.000000
-0.040000 0.170000 0.000000
-0.040000 0.180000 0.000000
-0.040000 0.190000 0.000000
-0.040000 0.200000 0.000000
-0.040000 0.210000 0.000000
-0.040000 0.220000 0.000000
-0.040000 0.230000 0.000000
-0.040000 0.240000 0.000000
-0.040000 0.250000 0.000000
-0.040000 0.260000 0.000000
-0.040000 0.270000 0.000000
-0.040000 0.280000 0.000000
-0.040000 0.290000 0.000000
-0.040000 0.300000 0.000000
-0.040000 0.310000 0.000000
-0.040000 0.320000 0.000000
-0.040000 0.330000 0.000000
-0.040000 0.340000 0.000000
-0.040000 0.350000 0.000000
-0.040000 0.360000 0.000000
-0.040000 0.370000 0.000000
-0.040000 0.380000 0.000000
-0.040000 0.390000 0.000000
-0.040000 0.400000 0.000000
0.010000 -0.030000 0.000000
0.010000 -0.020000 0.000000
0.010000 -0.010000 0.000000
0.010000 0.000000 0.000000
0.010000 0.010000 0.000000
0.010000 0.020000 0.000000
0.010000 0.030000 0.000000
0.010000 0.040000 0.000000
0.010000 0.050000 0.000000
0.010000 0.060000 0.000000
0.010000 0.070000 0.000000
0.010000 0.080000 0.000000
0.010000 0.090000 0.000000
0.010000 0.100000 0.000000
0.010000 0.110000 0.000000
0.010000 0.120000 0.000000
0.010000 0.130000 0.000000
0.010000 0.140000 0.000000
0.010000 0.150000 0.000000
0.010000 0.160000 0.000000
0.010000 0.170000 0.000000
0.010000 0.180000 0.000000
0.010000 0.190000 0.000000
0.010000 0.200000 0.000000
0.010000 0.210000 0.000000
0.010000 0.220000 0.000000
0.010000 0.230000 0.000000
0.010000 0.240000 0.000000
0.010000 0.250000 0.000000
0.010000 0.260000 0.000000
0.010000 0.270000 0.000000
0.010000 0.280000 0.000000
0.010000 0.290000 0.000000
0.010000 0.300000 0.000000
0.010000 0.310000 0.000000
0.010000 0.320000 0.000000
0.010000 0.330000 0.000000
0.010000 0.340000 0.000000
0.010000 0.350000 0.000000
0.010000 0.360000 0.000000
0.010000 0.370000 0.000000
0.010000 0.380000 0.000000
0.010000 0.390000 0.000000
0.010000 0.400000 0.000000
0.358000 0.410000 0.000000
0.358000 0.420000 0.000000
0.358000 0.430000 0.000000
0.358000 0.440000 0.000000
0.060000 -0.030000 0.000000
0.060000 -0.020000 0.000000
0.060000 -0.010000 0.000000
0.060000 0.000000 0.000000
0.060000 0.010000 0.000000
0.060000 0.020000 0.000000
0.060000 0.030000 0.000000
0.060000 0.040000 0.000000
0.060000 0.050000 0.000000
0.060000 0.060000 0.000000
0.060000 0.070000 0.000000
0.060000 0.080000 0.000000
0.060000 0.090000 0.000000
0.060000 0.100000 0.000000
0.060000 0.110000 0.000000
0.060000 0.120000 0.000000
0.060000 0.130000 0.000000
0.060000 0.140000 0.000000
0.060000 0.150000 0.000000
0.060000 0.160000 0.000000
0.060000 0.170000 0.000000
0.060000 0.180000 0.000000
0.060000 0.190000 0.000000
0.060000 0.200000 0.000000
0.060000 0.210000 0.000000
0.060000 0.220000 0.000000
0.060000 0.230000 0.000000
0.060000 0.240000 0.000000
0.060000 0.250000 0.000000
0.060000 0.260000 0.000000
0.060000 0.270000 0.000000
0.060000 0.280000 0.000000
0.060000 0.290000 0.000000
0.060000 0.300000 0.000000
0.060000 0.310000 0.000000
0.060000 0.320000 0.000000
0.060000 0.330000 0.000000
0.060000 0.340000 0.000000
0.060000 0.350000 0.000000
0.060000 0.360000 0.000000
0.060000 0.370000 0.000000
0.060000 0.380000 0.000000
0.060000 0.390000 0.000000
0.060000 0.400000 0.000000
0.408000 0.410000 0.000000
0.408000 0.420000 0.000000
0.408000 0.430000 0.000000
0.408000 0.440000 0.000000
0.110000 -0.030000 0.000000
0.110000 -0.020000 0.000000
0.110000 -0.010000 0.000000
0.110000 0.000000 0.000000
0.110000 0.010000 0.000000
0.110000 0.020000 0.000000
0.110000 0.030000 0.000000
0.110000 0.040000 0.000000
0.110000 0.050000 0.000000
0.110000 0.060000 0.000000
0.110000 0.070000 0.000000
0.110000 0.080000 0.000000
0.110000 0.090000 0.000000
0.110000 0.100000 0.000000
0.110000 0.110000 0.000000
0.110000 0.120000 0.000000
0.110000 0.130000 0.000000
0.110000 0.140000 0.000000
0.110000 0.150000 0.000000
0.110000 0.160000 0.000000
0.110000 0.170000 0.000000
0.110000 0.180000 0.000000
0.110000 0.190000 0.000000
0.110000 0.200000 0.000000
0.110000 0.210000 0.000000
0.110000 0.220000 0.000000
0.110000 0.230000 0.000000
0.110000 0.240000 0.000000
0.110000 0.250000 0.000000
0.110000 0.260000 0.000000
0.110000 0.270000 0.000000
0.110000 0.280000 0.000000
0.110000 0.290000 0.000000
0.110000 0.300000 0.000000
0.110000 0.310000 0.000000
0.110000 0.320000 0.000000
0.110000 0.330000 0.000000
0.110000 0.340000 0.000000
0.110000 0.350000 0.000000
0.110000 0.360000 0.000000
0.110000 0.370000 0.000000
0.110000 0.380000 0.000000
0.110000 0.390000 0.000000
0.110000 0.400000 0.000000
0.458000 0.410000 0.000000
0.458000 0.420000 0.000000
0.458000 0.430000 0.000000
0.458000 0.440000 0.000000
0.160000 -0.030000 0.000000
0.160000 -0.020000 0.000000
0.160000 -0.010000 0.000000
0.160000 0.000000 0.000000
0.160000 0.010000 0.000000
0.160000 0.020000 0.000000
0.160000 0.030000 0.000000
0.160000 0.040000 0.000000
0.160000 0.050000 0.000000
0.160000 0.060000 0.000000
0.160000 0.070000 0.000000
0.160000 0.080000 0.000000
0.160000 0.090000 0.000000
0.160000 0.100000 0.000000
0.160000 0.110000 0.000000
0.160000 0.120000 0.000000
0.160000 0.130000 0.000000
0.160000 0.140000 0.000000
0.160000 0.150000 0.000000
0.160000 0.160000 0.000000
0.160000 0.170000 0.000000
0.160000 0.180000 0.000000
0.160000 0.190000 0.000000
0.160000 0.200000 0.000000
0.160000 0.210000 0.000000
0.160000 0.220000 0.000000
0.160000 0.230000 0.000000
0.160000 0.240000 0.000000
0.160000 0.250000 0.000000
0.160000 0.260000 0.000000
0.160000 0.270000 0.000000
0.160000 0.280000 0.000000
0.160000 0.290000 0.000000
0.160000 0.300000 0.000000
0.160000 0.310000 0.000000
0.160000 0.320000 0.000000
0.160000 0.330000 0.000000
0.160000 0.340000 0.000000
0.160000 0.350000 0.000000
0.160000 0.360000 0.000000
0.160000 0.370000 0.000000
0.160000 0.380000 0.000000
0.160000 0.390000 0.000000
0.160000 0.400000 0.000000
0.508000 0.410000 0.000000
0.508000 0.420000 0.000000
0.508000 0.430000 0.000000
0.508000 0.440000 0.000000
0.210000 -0.030000 0.000000
0.210000 -0.020000 0.000000
0.210000 -0.010000 0.000000
0.210000 0.000000 0.000000
0.210000 0.010000 0.000000
0.210000 0.020000 0.000000
0.210000 0.030000 0.000000
0.210000 0.040000 0.000000
0.210000 0.050000 0.000000
0.210000 0.060000 0.000000
0.210000 0.070000 0.000000
0.210000 0.080000 0.000000
0.210000 0.090000 0.000000
0.210000 0.100000 0.000000
0.210000 0.110000 0.000000
0.210000 0.120000 0.000000
0.210000 0.130000 0.000000
0.210000 0.140000 0.000000
0.210000 0.150000 0.000000
0.210000 0.160000 0.000000
0.210000 0.170000 0.000000
0.210000 0.180000 0.000000
0.210000 0.190000 0.000000
0.210000 0.200000 0.000000
0.210000 0.210000 0.000000
0.210000 0.220000 0.000000
0.210000 0.230000 0.000000
0.210000 0.240000 0.000000
0.210000 0.250000 0.000000
0.210000 0.260000 0.000000
0.210000 0.270000 0.000000
0.210000 0.280000 0.000000
0.210000 0.290000 0.000000
0.210000 0.300000 0.000000
0.210000 0.310000 0.000000
0.210000 0.320000 0.000000
0.210000 0.330000 0.000000
0.210000 0.340000 0.000000
0.210000 0.350000 0.000000
0.210000 0.360000 0.000000
0.210000 0.370000 0.000000
0.210000 0.380000 0.000000
0.210000 0.390000 0.000000
0.210000 0.400000 0.000000
0.558000 0.410000 0.000000
0.558000 0.420000 0.000000
0.558000 0.430000 0.000000
0.558000 0.440000 0.000000
0.260000 -0.030000 0.000000
0.260000 -0.020000 0.000000
0.260000 -0.010000 0.000000
0.260000 0.000000 0.000000
0.260000 0.010000 0.000000
0.260000 0.020000 0.000000
0.260000 0.030000 0.000000
0.260000 0.040000 0.000000
0.260000 0.050000 0.000000
0.260000 0.060000 0.000000
0.260000 0.070000 0.000000
0.260000 0.080000 0.000000
0.260000 0.090000 0.000000
0.260000 0.100000 0.000000
0.260000 0.110000 0.000000
0.260000 0.120000 0.000000
0.260000 0.130000 0.000000
0.260000 0.140000 0.000000
0.260000 0.150000 0.000000
0.260000 0.160000 0.000000
0.260000 0.170000 0.000000
0.260000 0.180000 0.000000
0.260000 0.190000 0.000000
0.260000 0.200000 0.000000
0.260000 0.210000 0.000000
0.260000 0.220000 0.000000
0.260000 0.230000 0.000000
0.260000 0.240000 0.000000
0.260000 0.250000 0.000000
0.260000 0.260000 0.000000
0.260000 0.270000 0.000000
0.260000 0.280000 0.000000
0.260000 0.290000 0.000000
0.260000 0.300000 0.000000
0.260000 0.310000 0.000000
0.260000 0.320000 0.000000
0.260000 0.330000 0.000000
0.260000 0.340000 0.000000
0.260000 0.350000 0.000000
0.260000 0.360000 0.000000
0.260000 0.370000 0.000000
0.260000 0.380000 0.000000
0.260000 0.390000 0.000000
0.260000 0.400000 0.000000
0.608000 0.410000 0.000000
0.608000 0.420000 0.000000
0.608000 0.430000 0.000000
0.608000 0.440000 0.000000
0.310000 -0.030000 0.000000
0.310000 -0.020000 0.000000
0.310000 -0.010000 0.000000
0.310000 0.000000 0.000000
0.310000 0.010000 0.000000
0.310000 0.020000 0.000000
0.310000 0.030000 0.000000
0.310000 0.040000 0.000000
0.310000 0.050000 0.000000
0.310000 0.060000 0.000000
0.310000 0.070000 0.000000
0.310000 0.080000 0.000000
0.310000 0.090000 0.000000
0.310000 0.100000 0.000000
0.310000 0.110000 0.000000
0.310000 0.120000 0.000000
0.310000 0.130000 0.000000
0.310000 0.140000 0.000000
0.310000 0.150000 0.000000
0.310000 0.160000 0.000000
0.310000 0.170000 0.000000
0.310000 0.180000 0.000000
0.310000 0.190000 0.000000
0.310000 0.200000 0.000000
0.310000 0.210000 0.000000
[...]
<PointData>
<DataArray NumberOfComponents='1' type='Int32' Name='ParticleType' format='ascii'>
4
4
4
4
4
4
4
4
4
4
4
4
4
4
4
4
4
4
4
4
4
4
4
4
4
4
4
4
4
4
4
4
4
4
4
4
4
4
4
4
4
4
4
4
4
4
3
3
2
2
2
2
2
2
2
2
2
2
2
2
2
2
2
2
2
2
2
2
2
2
2
2
2
2
2
2
2
2
2
2
2
2
2
2
2
2
2
2
5
5
5
5
4
4
3
3
2
2
2
2
2
2
2
2
2
2
2
2
2
2
2
2
2
2
2
2
2
2
2
2
2
2
2
2
2
2
2
2
2
2
2
2
2
2
2
2
5
5
5
5
4
4
3
3
2
2
2
2
2
2
2
2
2
2
2
2
2
2
2
2
2
2
2
2
2
2
2
2
2
2
2
2
2
2
2
2
2
2
2
2
2
2
2
2
5
5
5
5
4
4
3
3
2
2
2
2
2
2
2
2
2
2
2
2
2
2
2
2
2
2
2
2
2
2
2
2
2
2
2
2
2
2
2
2
2
2
2
2
2
2
2
2
5
5
5
5
4
4
3
3
2
2
2
2
2
2
2
2
2
2
2
2
2
2
2
2
2
2
2
2
2
2
2
2
2
2
2
2
2
2
2
2
2
2
2
2
2
2
2
2
5
5
5
5
4
4
3
3
2
2
2
2
2
2
2
2
2
2
2
2
2
2
2
2
2
2
2
2
2
2
2
2
2
2
2
2
2
2
2
2
2
2
2
2
2
2
2
2
5
5
5
5
4
4
3
3
2
2
2
2
2
2
2
2
2
2
2
2
2
2
2
2
2
2
2
2
2
2
2
2
2
2
2
2
2
2
2
2
2
2
2
2
2
2
2
2
5
5
5
5
4
4
3
3
2
2
2
2
2
2
2
2
2
2
2
2
2
2
2
2
2
2
2
2
2
2
2
2
2
2
2
2
2
2
2
2
2
2
2
2
2
2
2
2
5
5
5
5
4
4
3
3
2
2
2
2
2
2
2
2
2
2
2
2
2
2
2
2
2
2
2
2
2
2
2
2
2
2
2
2
2
2
2
2
2
2
2
2
2
2
2
2
5
5
5
5
4
4
3
3
2
2
2
2
2
2
2
2
2
2
2
2
2
2
2
2
2
2
2
2
2
2
2
2
2
2
2
2
2
2
2
2
2
2
2
2
2
2
2
2
5
5
5
5
4
4
3
3
2
2
2
2
2
2
2
2
2
2
2
2
2
2
2
2
2
2
2
2
2
2
2
2
2
2
2
2
2
2
2
2
2
2
2
2
2
2
2
2
4
4
3
3
2
2
2
2
2
2
2
2
2
2
2
2
2
2
2
2
2
2
2
2
2
2
2
2
2
2
2
2
2
2
2
2
2
2
2
2
2
2
2
2
4
4
3
3
2
2
2
2
2
2
2
2
2
2
2
2
2
2
2
2
2
2
2
2
2
2
2
2
2
2
2
2
2
2
2
2
2
2
2
2
2
2
2
2
4
4
3
3
2
2
2
2
2
2
2
2
2
2
2
2
2
2
2
2
2
2
2
2
2
2
2
2
2
2
2
2
2
2
2
2
2
2
2
2
2
2
2
2
4
4
3
3
2
2
2
2
2
2
2
2
2
2
2
2
2
2
2
2
2
2
2
2
2
2
2
2
2
2
2
2
2
2
2
2
2
2
2
2
2
2
2
2
4
4
3
3
2
2
2
2
2
2
2
2
2
2
2
2
2
2
2
2
2
2
2
2
2
2
2
2
2
2
2
2
2
2
2
2
2
2
2
2
2
2
2
2
4
4
3
3
2
2
2
2
2
2
2
2
2
2
2
2
2
2
2
2
2
2
2
2
2
2
2
2
2
2
2
2
2
2
2
2
2
2
2
2
2
2
2
2
4
4
3
3
2
2
2
2
2
2
2
2
2
2
2
2
2
2
2
2
2
2
2
2
2
2
2
2
2
2
2
2
2
2
2
2
2
2
2
2
2
2
2
2
4
4
3
3
2
2
2
2
2
2
2
2
2
2
2
2
2
2
2
2
2
2
2
2
2
2
2
2
2
2
2
2
2
2
2
2
2
2
2
2
2
2
2
2
4
4
3
3
2
2
2
2
2
2
2
2
2
2
2
2
2
2
2
2
2
2
2
2
2
2
2
2
2
2
2
2
2
2
2
2
2
2
2
2
2
2
2
2
4
4
3
3
2
2
2
2
2
2
2
2
2
2
2
2
2
2
2
2
2
2
2
2
2
2
2
2
2
2
2
2
2
2
2
2
2
2
2
2
2
2
2
2
4
4
3
3
2
2
2
2
2
2
2
2
2
2
2
2
2
2
2
2
2
2
2
2
2
2
2
2
2
2
2
2
2
2
2
2
2
2
2
2
2
2
2
2
4
4
3
3
2
2
2
2
2
2
2
2
2
2
2
2
2
2
2
2
2
2
2
2
2
2
2
2
2
2
2
2
2
2
2
2
2
2
2
2
2
2
2
2
4
4
3
3
2
2
2
2
2
2
2
2
2
2
2
2
2
2
2
2
2
2
2
2
2
2
2
2
2
2
2
2
2
2
2
2
2
2
2
2
2
2
2
2
4
4
3
3
2
2
2
2
2
2
2
2
2
2
2
2
2
2
2
2
2
2
2
2
2
2
2
2
2
2
2
2
2
2
2
2
2
2
2
2
2
2
2
2
4
4
3
3
2
2
2
2
2
2
2
2
2
2
2
2
2
2
2
2
2
2
2
2
2
2
2
2
2
2
2
2
2
2
2
2
2
2
2
2
2
2
2
2
4
4
3
3
2
2
2
2
2
2
2
2
2
2
2
2
2
2
2
2
2
2
2
2
2
2
2
2
2
2
2
2
2
2
2
2
2
2
2
2
2
2
2
2
4
4
3
3
2
2
2
2
2
2
2
2
2
2
2
2
2
2
2
2
2
2
2
2
2
2
2
2
2
2
2
2
2
2
2
2
2
2
2
2
2
2
2
2
4
4
3
3
2
2
2
2
2
2
2
2
2
2
2
2
2
2
2
2
2
2
2
2
2
2
2
2
2
2
2
2
2
2
2
2
2
2
2
2
2
2
2
2
4
4
3
3
2
2
2
2
2
2
2
2
2
2
2
2
2
2
2
2
2
2
2
2
2
2
2
2
2
2
2
2
2
2
2
2
2
2
2
2
2
2
2
2
4
4
3
3
2
2
2
2
2
2
2
2
2
2
2
2
2
2
2
2
2
2
2
2
2
2
2
2
2
2
2
2
2
2
2
2
2
2
2
2
2
2
2
2
4
4
3
3
2
2
2
2
2
2
2
2
2
2
2
2
2
2
2
2
2
2
2
2
2
2
2
2
2
2
2
2
2
2
2
2
2
2
2
2
2
2
2
2
4
4
3
3
2
2
2
2
2
2
2
2
2
2
2
2
2
2
2
2
2
2
2
2
2
2
2
2
2
2
2
2
2
2
2
2
2
2
2
2
2
2
2
2
4
4
3
3
2
2
2
2
2
2
2
2
2
2
2
2
2
2
2
2
2
2
2
2
2
2
2
2
2
2
2
2
2
2
2
2
2
2
2
2
2
2
2
2
4
4
3
3
2
2
2
2
2
2
2
2
2
2
2
2
2
2
2
2
2
2
2
2
2
2
2
2
2
2
2
2
2
2
2
2
2
2
2
2
2
2
2
2
4
4
3
3
2
2
2
2
2
2
2
2
2
2
2
2
2
2
2
2
2
2
2
2
2
2
2
2
2
2
2
2
2
2
2
2
2
2
2
2
2
2
2
2
4
4
3
3
2
2
2
2
2
2
2
2
2
2
2
2
2
2
2
2
2
2
2
2
2
2
2
2
2
2
2
2
2
2
2
2
2
2
2
2
2
2
2
2
4
4
3
3
2
2
2
2
2
2
2
2
2
2
2
2
2
2
2
2
2
2
2
2
2
2
2
2
2
2
2
2
2
2
2
2
2
2
2
2
2
2
2
2
4
4
3
3
2
2
2
2
2
2
2
2
2
2
2
2
2
2
2
2
2
2
2
2
2
2
2
2
2
2
2
2
2
2
2
2
2
2
2
2
2
2
2
2
4
4
3
3
2
2
2
2
2
2
2
2
2
2
2
2
2
2
2
2
2
2
2
2
2
2
2
2
2
2
2
2
2
2
2
2
2
2
2
2
2
2
2
2
4
4
3
3
3
3
3
3
3
3
3
3
3
3
3
3
3
3
3
3
3
3
3
3
3
3
3
3
3
3
3
3
3
3
3
3
3
3
3
3
3
3
3
3
</DataArray>
<DataArray NumberOfComponents='1' type='Float32' Name='Temperature' format='ascii'>
0.000000
0.000000
0.000000
0.000000
0.000000
0.000000
0.000000
0.000000
0.000000
0.000000
0.000000
0.000000
0.000000
0.000000
0.000000
0.000000
0.000000
0.000000
0.000000
0.000000
0.000000
0.000000
0.000000
0.000000
0.000000
0.000000
0.000000
0.000000
0.000000
0.000000
0.000000
0.000000
0.000000
0.000000
0.000000
0.000000
0.000000
0.000000
0.000000
0.000000
0.000000
0.000000
0.000000
0.000000
0.000000
0.000000
0.000000
0.000000
-0.258508
-0.466565
-0.679915
-0.890299
-1.097934
-1.302114
-1.502257
-1.697809
-1.888256
-2.073128
-2.252004
-2.424510
-2.590325
-2.749180
-2.900858
-3.045196
-3.182081
-3.311452
-3.433293
-3.547636
-3.654553
-3.754154
-3.846586
-3.932023
-4.010664
-4.082732
-4.148463
-4.208104
-4.261910
-4.310134
-4.353030
-4.390842
-4.423801
-4.452126
-4.476012
-4.495637
-4.511150
-4.522673
-4.530251
-4.534974
-3.000000
-3.000000
-3.000000
-3.000000
0.000000
0.000000
0.000000
0.000000
-0.253985
-0.458339
-0.667788
-0.874167
-1.077646
-1.277489
-1.473082
-1.663845
-1.849240
-2.028776
-2.202016
-2.368573
-2.528118
-2.680381
-2.825148
-2.962264
-3.091631
-3.213208
-3.327007
-3.433091
-3.531573
-3.622606
-3.706386
-3.783142
-3.853132
-3.916640
-3.973969
-4.025432
-4.071352
-4.112052
-4.147852
-4.179061
-4.205975
-4.228869
-4.247994
-4.263573
-4.275798
-4.284825
-4.290735
-4.294405
-3.000000
-3.000000
-3.000000
-3.000000
0.000000
0.000000
0.000000
0.000000
-0.251570
-0.453930
-0.661248
-0.865398
-1.066510
-1.263817
-1.456678
-1.644481
-1.826665
-2.002714
-2.172170
-2.334628
-2.489747
-2.637244
-2.776902
-2.908565
-3.032140
-3.147599
-3.254970
-3.354342
-3.445856
-3.529705
-3.606127
-3.675401
-3.737842
-3.793794
-3.843623
-3.887714
-3.926458
-3.960253
-3.989491
-4.014551
-4.035799
-4.053575
-4.068191
-4.079924
-4.089014
-4.095653
-4.099965
-4.102625
-3.000000
-3.000000
-3.000000
-3.000000
0.000000
0.000000
0.000000
0.000000
-0.250405
-0.451787
-0.658034
-0.861024
-1.060856
-1.256733
-1.447984
-1.633969
-1.814095
-1.987819
-2.154655
-2.314171
-2.466001
-2.609841
-2.745455
-2.872673
-2.991396
-3.101591
-3.203291
-3.296597
-3.381672
-3.458737
-3.528068
-3.589993
-3.644882
-3.693146
-3.735225
-3.771582
-3.802697
-3.829056
-3.851144
-3.869437
-3.884391
-3.896436
-3.905966
-3.913335
-3.918847
-3.922754
-3.925231
-3.926729
-3.000000
-3.000000
-3.000000
-3.000000
0.000000
0.000000
0.000000
0.000000
-0.250036
-0.451098
-0.656976
-0.859542
-1.058871
-1.254144
-1.444667
-1.629773
-1.808840
-1.981295
-2.146614
-2.304333
-2.454048
-2.595416
-2.728164
-2.852087
-2.967050
-3.072991
-3.169922
-3.257927
-3.337163
-3.407856
-3.470303
-3.524863
-3.571956
-3.612056
-3.645683
-3.673397
-3.695788
-3.713464
-3.727042
-3.737136
-3.744344
-3.749237
-3.752344
-3.754145
-3.755057
-3.755424
-3.755515
-3.755496
-3.000000
-3.000000
-3.000000
-3.000000
0.000000
0.000000
0.000000
0.000000
-0.249995
-0.451019
-0.656848
-0.859350
-1.058593
-1.253750
-1.444115
-1.629009
-1.807792
-1.979870
-2.144694
-2.301768
-2.450650
-2.590956
-2.722360
-2.844602
-2.957484
-3.060877
-3.154724
-3.239038
-3.313907
-3.379500
-3.436060
-3.483917
-3.523478
-3.555232
-3.579748
-3.597667
-3.609699
-3.616610
-3.619211
-3.618341
-3.614850
-3.609576
-3.603321
-3.596833
-3.590774
-3.585705
-3.582093
-3.579701
-3.000000
-3.000000
-3.000000
-3.000000
0.000000
0.000000
0.000000
0.000000
-0.249995
-0.451018
-0.656847
-0.859348
-1.058590
-1.253745
-1.444106
-1.628994
-1.807768
-1.979831
-2.144631
-2.301667
-2.450490
-2.590704
-2.721969
-2.844002
-2.956574
-3.059515
-3.152708
-3.236091
-3.309657
-3.373449
-3.427565
-3.472154
-3.507424
-3.533646
-3.551164
-3.560412
-3.561932
-3.556399
-3.544640
-3.527664
-3.506669
-3.483042
-3.458330
-3.434188
-3.412288
-3.394203
-3.381381
-3.372899
-3.000000
-3.000000
-3.000000
-3.000000
0.000000
0.000000
0.000000
0.000000
-0.249995
-0.451018
-0.656847
-0.859348
-1.058590
-1.253745
-1.444106
-1.628994
-1.807768
-1.979831
-2.144631
-2.301667
-2.450490
-2.590704
-2.721969
-2.844002
-2.956574
-3.059515
-3.152707
-3.236090
-3.309655
-3.373444
-3.427554
-3.472131
-3.507375
-3.533544
-3.550957
-3.559999
-3.561125
-3.554854
-3.541753
-3.522389
-3.497261
-3.466676
-3.430586
-3.388400
-3.338786
-3.279801
-3.207919
-3.125557
-3.000000
-3.000000
-3.000000
-3.000000
0.000000
0.000000
0.000000
0.000000
-0.249995
-0.451018
-0.656847
-0.859348
-1.058590
-1.253745
-1.444106
-1.628994
-1.807768
-1.979831
-2.144631
-2.301667
-2.450490
-2.590704
-2.721969
-2.844002
-2.956574
-3.059515
-3.152707
-3.236090
-3.309655
-3.373444
-3.427554
-3.472131
-3.507375
-3.533544
-3.550957
-3.559999
-3.561125
-3.554854
-3.541753
-3.522389
-3.497261
-3.466676
-3.430586
-3.388400
-3.338786
-3.279801
-3.207919
-3.125557
-3.000000
-3.000000
-3.000000
-3.000000
0.000000
0.000000
0.000000
0.000000
-0.249995
-0.451018
-0.656847
-0.859348
-1.058590
-1.253745
-1.444106
-1.628994
-1.807768
-1.979831
-2.144631
-2.301667
-2.450490
-2.590704
-2.721969
-2.844002
-2.956574
-3.059515
-3.152707
-3.236090
-3.309655
-3.373444
-3.427554
-3.472131
-3.507375
-3.533544
-3.550957
-3.559999
-3.561125
-3.554854
-3.541753
-3.522389
-3.497261
-3.466676
-3.430586
-3.388400
-3.338786
-3.279801
-3.207919
-3.125557
-3.000000
-3.000000
-3.000000
-3.000000
0.000000
0.000000
0.000000
0.000000
-0.252412
-0.455392
-0.663244
-0.867765
-1.069032
-1.266216
-1.458608
-1.645525
-1.826320
-2.000391
-2.167179
-2.326171
-2.476908
-2.618981
-2.752036
-2.875771
-2.989944
-3.094365
-3.188898
-3.273463
-3.348032
-3.412630
-3.467334
-3.512273
-3.547634
-3.573660
-3.590663
-3.599023
-3.599195
-3.591703
-3.577122
-3.556033
-3.528942
-3.496155
-3.457604
-3.412646
-3.359852
-3.297151
-3.220787
-3.133319
0.000000
0.000000
0.000000
0.000000
-0.256439
-0.462689
-0.673947
-0.881901
-1.086652
-1.287375
-1.483365
-1.673941
-1.858452
-2.036287
-2.206876
-2.369690
-2.524248
-2.670115
-2.806906
-2.934287
-3.051974
-3.159736
-3.257394
-3.344819
-3.421934
-3.488717
-3.545194
-3.591449
-3.627625
-3.653930
-3.670644
-3.678126
-3.676822
-3.667258
-3.650020
-3.625706
-3.594837
-3.557712
-3.514219
-3.463606
-3.404242
-3.333782
-3.247996
-3.149746
0.000000
0.000000
0.000000
0.000000
-0.259859
-0.468913
-0.683127
-0.894119
-1.102025
-1.306041
-1.505480
-1.699673
-1.887977
-2.069784
-2.244519
-2.411642
-2.570652
-2.721088
-2.862532
-2.994606
-3.116978
-3.229359
-3.331504
-3.423217
-3.504345
-3.574786
-3.634488
-3.683455
-3.721751
-3.749514
-3.766960
-3.774399
-3.772242
-3.760995
-3.741242
-3.713588
-3.678558
-3.636437
-3.587046
-3.529487
-3.461869
-3.381494
-3.283518
-3.171224
0.000000
0.000000
0.000000
0.000000
-0.262189
-0.473183
-0.689496
-0.902722
-1.113046
-1.319702
-1.522041
-1.719425
-1.911242
-2.096904
-2.275853
-2.447555
-2.611509
-2.767240
-2.914305
-3.052289
-3.180807
-3.299506
-3.408060
-3.506177
-3.593599
-3.670101
-3.735502
-3.789670
-3.832529
-3.864080
-3.884409
-3.893713
-3.892304
-3.880619
-3.859194
-3.828603
-3.789345
-3.741654
-3.685242
-3.618996
-3.540660
-3.447052
-3.332502
-3.200911
0.000000
0.000000
0.000000
0.000000
-0.263186
-0.475040
-0.692333
-0.906675
-1.118299
-1.326491
-1.530651
-1.730196
-1.924568
-2.113237
-2.295696
-2.471467
-2.640092
-2.801138
-2.954186
-3.098834
-3.234690
-3.361368
-3.478488
-3.585670
-3.682535
-3.768707
-3.843819
-3.907522
-3.959500
-3.999492
-4.027317
-4.042907
-4.046326
-4.037787
-4.017637
-3.986290
-3.944096
-3.891119
-3.826825
-3.749720
-3.656961
-3.544633
-3.405853
-3.245539
0.000000
0.000000
0.000000
0.000000
-0.263330
-0.475318
-0.692783
-0.907347
-1.119267
-1.327857
-1.532551
-1.732809
-1.928127
-2.118039
-2.302117
-2.479973
-2.651257
-2.815652
-2.972871
-3.122650
-3.264738
-3.398882
-3.524819
-3.642259
-3.750867
-3.850254
-3.939962
-4.019465
-4.088173
-4.145448
-4.190637
-4.223111
-4.242312
-4.247788
-4.239202
-4.216282
-4.178679
-4.125715
-4.056005
-3.967012
-3.854577
-3.713326
-3.534242
-3.324277
0.000000
0.000000
0.000000
0.000000
-0.263332
-0.475321
-0.692787
-0.907355
-1.119281
-1.327880
-1.532590
-1.732874
-1.928234
-2.118214
-2.302398
-2.480421
-2.651963
-2.816753
-2.974567
-3.125232
-3.268622
-3.404655
-3.533294
-3.654541
-3.768435
-3.875048
-3.974477
-4.066834
-4.152235
-4.230773
-4.302485
-4.367290
-4.424893
-4.474637
-4.515286
-4.544705
-4.559461
-4.554327
-4.521775
-4.451621
-4.330933
-4.145757
-3.878328
-3.541481
0.000000
0.000000
0.000000
0.000000
-0.263332
-0.475321
-0.692787
-0.907355
-1.119281
-1.327880
-1.532590
-1.732874
-1.928234
-2.118214
-2.302398
-2.480421
-2.651963
-2.816753
-2.974567
-3.125233
-3.268623
-3.404657
-3.533297
-3.654547
-3.768450
-3.875081
-3.974548
-4.066985
-4.152549
-4.231417
-4.303778
-4.369833
-4.429787
-4.483849
-4.532224
-4.575110
-4.612700
-4.645169
-4.672680
-4.695375
-4.713379
-4.726791
-4.735629
-4.741147
0.000000
0.000000
0.000000
0.000000
-0.263332
-0.475321
-0.692787
-0.907355
-1.119281
-1.327880
-1.532590
-1.732874
-1.928234
-2.118214
-2.302398
-2.480421
-2.651963
-2.816753
-2.974567
-3.125233
-3.268623
-3.404657
-3.533297
-3.654547
-3.768450
-3.875081
-3.974548
-4.066985
-4.152549
-4.231417
-4.303778
-4.369833
-4.429787
-4.483849
-4.532224
-4.575110
-4.612700
-4.645169
-4.672680
-4.695375
-4.713379
-4.726791
-4.735629
-4.741147
0.000000
0.000000
0.000000
0.000000
-0.263332
-0.475321
-0.692787
-0.907355
-1.119281
-1.327880
-1.532590
-1.732874
-1.928234
-2.118214
-2.302398
-2.480421
-2.651963
-2.816753
-2.974567
-3.125233
-3.268623
-3.404657
-3.533297
-3.654547
-3.768450
-3.875081
-3.974548
-4.066985
-4.152549
-4.231417
-4.303778
-4.369833
-4.429787
-4.483849
-4.532224
-4.575110
-4.612700
-4.645169
-4.672680
-4.695375
-4.713379
-4.726791
-4.735629
-4.741147
0.000000
0.000000
0.000000
0.000000
-0.263332
-0.475321
-0.692787
-0.907355
-1.119281
-1.327880
-1.532590
-1.732874
-1.928234
-2.118214
-2.302398
-2.480421
-2.651963
-2.816753
-2.974567
-3.125233
-3.268623
-3.404657
-3.533297
-3.654547
-3.768450
-3.875081
-3.974548
-4.066985
-4.152549
-4.231417
-4.303778
-4.369833
-4.429787
-4.483849
-4.532224
-4.575110
-4.612700
-4.645169
-4.672680
-4.695375
-4.713379
-4.726791
-4.735629
-4.741147
0.000000
0.000000
0.000000
0.000000
-0.263332
-0.475321
-0.692787
-0.907355
-1.119281
-1.327880
-1.532590
-1.732874
-1.928234
-2.118214
-2.302398
-2.480421
-2.651963
-2.816753
-2.974567
-3.125233
-3.268623
-3.404657
-3.533297
-3.654547
-3.768450
-3.875081
-3.974548
-4.066985
-4.152549
-4.231417
-4.303778
-4.369833
-4.429787
-4.483849
-4.532224
-4.575110
-4.612700
-4.645169
-4.672680
-4.695375
-4.713379
-4.726791
-4.735629
-4.741147
0.000000
0.000000
0.000000
0.000000
-0.263332
-0.475321
-0.692787
-0.907355
-1.119281
-1.327880
-1.532590
-1.732874
-1.928234
-2.118214
-2.302398
-2.480421
-2.651963
-2.816753
-2.974567
-3.125233
-3.268623
-3.404657
-3.533297
-3.654547
-3.768450
-3.875081
-3.974548
-4.066985
-4.152549
-4.231417
-4.303778
-4.369833
-4.429787
-4.483849
-4.532224
-4.575110
-4.612700
-4.645169
-4.672680
-4.695375
-4.713379
-4.726791
-4.735629
-4.741147
0.000000
0.000000
0.000000
0.000000
-0.263332
-0.475321
-0.692787
-0.907355
-1.119281
-1.327880
-1.532590
-1.732874
-1.928234
-2.118214
-2.302398
-2.480421
-2.651963
-2.816753
-2.974567
-3.125233
-3.268623
-3.404657
-3.533297
-3.654547
-3.768450
-3.875081
-3.974548
-4.066985
-4.152549
-4.231417
-4.303778
-4.369833
-4.429787
-4.483849
-4.532224
-4.575110
-4.612700
-4.645169
-4.672680
-4.695375
-4.713379
-4.726791
-4.735629
-4.741147
0.000000
0.000000
0.000000
0.000000
-0.263332
-0.475321
-0.692787
-0.907355
-1.119281
-1.327880
-1.532590
-1.732874
-1.928234
-2.118214
-2.302398
-2.480421
-2.651963
-2.816753
-2.974567
-3.125233
-3.268623
-3.404657
-3.533297
-3.654547
-3.768450
-3.875081
-3.974548
-4.066985
-4.152549
-4.231417
-4.303778
-4.369833
-4.429787
-4.483849
-4.532224
-4.575110
-4.612700
-4.645169
-4.672680
-4.695375
-4.713379
-4.726791
-4.735629
-4.741147
0.000000
0.000000
0.000000
0.000000
-0.263332
-0.475321
-0.692787
-0.907355
-1.119281
-1.327880
-1.532590
-1.732874
-1.928234
-2.118214
-2.302398
-2.480421
-2.651963
-2.816753
-2.974567
-3.125233
-3.268623
-3.404657
-3.533297
-3.654547
-3.768450
-3.875081
-3.974548
-4.066985
-4.152549
-4.231417
-4.303778
-4.369833
-4.429787
-4.483849
-4.532224
-4.575110
-4.612700
-4.645169
-4.672680
-4.695375
-4.713379
-4.726791
-4.735629
-4.741147
0.000000
0.000000
0.000000
0.000000
-0.263332
-0.475321
-0.692787
-0.907355
-1.119281
-1.327880
-1.532590
-1.732874
-1.928234
-2.118214
-2.302398
-2.480421
-2.651963
-2.816753
-2.974567
-3.125233
-3.268623
-3.404657
-3.533297
-3.654547
-3.768450
-3.875081
-3.974548
-4.066985
-4.152549
-4.231417
-4.303778
-4.369833
-4.429787
-4.483849
-4.532224
-4.575110
-4.612700
-4.645169
-4.672680
-4.695375
-4.713379
-4.726791
-4.735629
-4.741147
0.000000
0.000000
0.000000
0.000000
-0.263332
-0.475321
-0.692787
-0.907355
-1.119281
-1.327880
-1.532590
-1.732874
-1.928234
-2.118214
-2.302398
-2.480421
-2.651963
-2.816753
-2.974567
-3.125233
-3.268623
-3.404657
-3.533297
-3.654547
-3.768450
-3.875081
-3.974548
-4.066985
-4.152549
-4.231417
-4.303778
-4.369833
-4.429787
-4.483849
-4.532224
-4.575110
-4.612700
-4.645169
-4.672680
-4.695375
-4.713379
-4.726791
-4.735629
-4.741147
0.000000
0.000000
0.000000
0.000000
-0.263332
-0.475321
-0.692787
-0.907355
-1.119281
-1.327880
-1.532590
-1.732874
-1.928234
-2.118214
-2.302398
-2.480421
-2.651963
-2.816753
-2.974567
-3.125233
-3.268623
-3.404657
-3.533297
-3.654547
-3.768450
-3.875081
-3.974548
-4.066985
-4.152549
-4.231417
-4.303778
-4.369833
-4.429787
-4.483849
-4.532224
-4.575110
-4.612700
-4.645169
-4.672680
-4.695375
-4.713379
-4.726791
-4.735629
-4.741147
0.000000
0.000000
0.000000
0.000000
-0.263332
-0.475321
-0.692787
-0.907355
-1.119281
-1.327880
-1.532590
-1.732874
-1.928234
-2.118214
-2.302398
-2.480421
-2.651963
-2.816753
-2.974567
-3.125233
-3.268623
-3.404657
-3.533297
-3.654547
-3.768450
-3.875081
-3.974548
-4.066985
-4.152549
-4.231417
-4.303778
-4.369833
-4.429787
-4.483849
-4.532224
-4.575110
-4.612700
-4.645169
-4.672680
-4.695375
-4.713379
-4.726791
-4.735629
-4.741147
0.000000
0.000000
0.000000
0.000000
-0.263332
-0.475321
-0.692787
-0.907355
-1.119281
-1.327880
-1.532590
-1.732874
-1.928234
-2.118214
-2.302398
-2.480421
-2.651963
-2.816753
-2.974567
-3.125233
-3.268623
-3.404657
-3.533297
-3.654547
-3.768450
-3.875081
-3.974548
-4.066985
-4.152549
-4.231417
-4.303778
-4.369833
-4.429787
-4.483849
-4.532224
-4.575110
-4.612700
-4.645169
-4.672680
-4.695375
-4.713379
-4.726791
-4.735629
-4.741147
0.000000
0.000000
0.000000
0.000000
-0.263332
-0.475321
-0.692787
-0.907355
-1.119281
-1.327880
-1.532590
-1.732874
-1.928234
-2.118214
-2.302398
-2.480421
-2.651963
-2.816753
-2.974567
-3.125233
-3.268623
-3.404657
-3.533297
-3.654547
-3.768450
-3.875081
-3.974548
-4.066985
-4.152549
-4.231417
-4.303778
-4.369833
-4.429787
-4.483849
-4.532224
-4.575110
-4.612700
-4.645169
-4.672680
-4.695375
-4.713379
-4.726791
-4.735629
-4.741147
0.000000
0.000000
0.000000
0.000000
-0.263332
-0.475321
-0.692787
-0.907355
-1.119281
-1.327880
-1.532590
-1.732874
-1.928234
-2.118214
-2.302398
-2.480421
-2.651963
-2.816753
-2.974567
-3.125233
-3.268623
-3.404657
-3.533297
-3.654547
-3.768450
-3.875081
-3.974548
-4.066985
-4.152549
-4.231417
-4.303778
-4.369833
-4.429787
-4.483849
-4.532224
-4.575110
-4.612700
-4.645169
-4.672680
-4.695375
-4.713379
-4.726791
-4.735629
-4.741147
0.000000
0.000000
0.000000
0.000000
-0.263332
-0.475321
-0.692787
-0.907355
-1.119281
-1.327880
-1.532590
-1.732874
-1.928234
-2.118214
-2.302398
-2.480421
-2.651963
-2.816753
-2.974567
-3.125233
-3.268623
-3.404657
-3.533297
-3.654547
-3.768450
-3.875081
-3.974548
-4.066985
-4.152549
-4.231417
-4.303778
-4.369833
-4.429787
-4.483849
-4.532224
-4.575110
-4.612700
-4.645169
-4.672680
-4.695375
-4.713379
-4.726791
-4.735629
-4.741147
0.000000
0.000000
0.000000
0.000000
-0.263332
-0.475321
-0.692787
-0.907355
-1.119281
-1.327880
-1.532590
-1.732874
-1.928234
-2.118214
-2.302398
-2.480421
-2.651963
-2.816753
-2.974567
-3.125233
-3.268623
-3.404657
-3.533297
-3.654547
-3.768450
-3.875081
-3.974548
-4.066985
-4.152549
-4.231417
-4.303778
-4.369833
-4.429787
-4.483849
-4.532224
-4.575110
-4.612700
-4.645169
-4.672680
-4.695375
-4.713379