<?xml version='1.0' encoding='UTF-8'?>
<VTKFile xmlns='VTK' byte_order='LittleEndian' version='0.1' type='UnstructuredGrid'>
<UnstructuredGrid>
<Piece NumberOfCells='1816' NumberOfPoints='1816'>
<Points>
<DataArray NumberOfComponents='3' type='Float32' Name='Position' format='ascii'>
1.190000 0.400000 0.000000
1.190000 0.412500 0.000000
1.190000 0.425000 0.000000
1.190000 0.437500 0.000000
1.190000 0.450000 0.000000
1.190000 0.462500 0.000000
1.190000 0.475000 0.000000
1.190000 0.487500 0.000000
1.227500 0.400000 0.000000
1.227500 0.412500 0.000000
1.227500 0.425000 0.000000
1.227500 0.437500 0.000000
1.227500 0.450000 0.000000
1.227500 0.462500 0.000000
1.227500 0.475000 0.000000
1.227500 0.487500 0.000000
0.025000 0.000000 0.000000
0.025000 0.012500 0.000000
0.025000 0.025000 0.000000
0.025000 0.037500 0.000000
0.025000 0.050000 0.000000
0.025000 0.062500 0.000000
0.025000 0.075000 0.000000
0.025000 0.087500 0.000000
0.025000 0.100000 0.000000
0.025000 0.112500 0.000000
0.025000 0.125000 0.000000
0.025000 0.137500 0.000000
0.025000 0.150000 0.000000
0.025000 0.162500 0.000000
0.025000 0.175000 0.000000
0.025000 0.187500 0.000000
0.025000 0.200000 0.000000
0.025000 0.212500 0.000000
0.025000 0.225000 0.000000
0.025000 0.237500 0.000000
0.025000 0.250000 0.000000
0.025000 0.262500 0.000000
0.025000 0.275000 0.000000
0.025000 0.287500 0.000000
0.025000 0.300000 0.000000
0.025000 0.312500 0.000000
0.025000 0.325000 0.000000
0.025000 0.337500 0.000000
0.025000 0.350000 0.000000
0.025000 0.362500 0.000000
0.025000 0.375000 0.000000
0.025000 0.387500 0.000000
1.265000 0.400000 0.000000
1.265000 0.412500 0.000000
1.265000 0.425000 0.000000
1.265000 0.437500 0.000000
1.265000 0.450000 0.000000
1.265000 0.462500 0.000000
1.265000 0.475000 0.000000
1.265000 0.487500 0.000000
0.062500 0.000000 0.000000
0.062500 0.012500 0.000000
0.062500 0.025000 0.000000
0.062500 0.037500 0.000000
0.062500 0.050000 0.000000
0.062500 0.062500 0.000000
0.062500 0.075000 0.000000
0.062500 0.087500 0.000000
0.062500 0.100000 0.000000
0.062500 0.112500 0.000000
0.062500 0.125000 0.000000
0.062500 0.137500 0.000000
0.062500 0.150000 0.000000
0.062500 0.162500 0.000000
0.062500 0.175000 0.000000
0.062500 0.187500 0.000000
0.062500 0.200000 0.000000
0.062500 0.212500 0.000000
0.062500 0.225000 0.000000
0.062500 0.237500 0.000000
0.062500 0.250000 0.000000
0.062500 0.262500 0.000000
0.062500 0.275000 0.000000
0.062500 0.287500 0.000000
0.062500 0.300000 0.000000
0.062500 0.312500 0.000000
0.062500 0.325000 0.000000
0.062500 0.337500 0.000000
0.062500 0.350000 0.000000
0.062500 0.362500 0.000000
0.062500 0.375000 0.000000
0.062500 0.387500 0.000000
1.302500 0.400000 0.000000
1.302500 0.412500 0.000000
1.302500 0.425000 0.000000
1.302500 0.437500 0.000000
1.302500 0.450000 0.000000
1.302500 0.462500 0.000000
1.302500 0.475000 0.000000
1.302500 0.487500 0.000000
0.100000 0.000000 0.000000
0.100000 0.012500 0.000000
0.100000 0.025000 0.000000
0.100000 0.037500 0.000000
0.100000 0.050000 0.000000
0.100000 0.062500 0.000000
0.100000 0.075000 0.000000
0.100000 0.087500 0.000000
0.100000 0.100000 0.000000
0.100000 0.112500 0.000000
0.100000 0.125000 0.000000
0.100000 0.137500 0.000000
0.100000 0.150000 0.000000
0.100000 0.162500 0.000000
0.100000 0.175000 0.000000
0.100000 0.187500 0.000000
0.100000 0.200000 0.000000
0.100000 0.212500 0.000000
0.100000 0.225000 0.000000
0.100000 0.237500 0.000000
0.100000 0.250000 0.000000
0.100000 0.262500 0.000000
0.100000 0.275000 0.000000
0.100000 0.287500 0.000000
0.100000 0.300000 0.000000
0.100000 0.312500 0.000000
0.100000 0.325000 0.000000
0.100000 0.337500 0.000000
0.100000 0.350000 0.000000
0.100000 0.362500 0.000000
0.100000 0.375000 0.000000
0.100000 0.387500 0.000000
1.340000 0.400000 0.000000
1.340000 0.412500 0.000000
1.340000 0.425000 0.000000
1.340000 0.437500 0.000000
1.340000 0.450000 0.000000
1.340000 0.462500 0.000000
1.340000 0.475000 0.000000
1.340000 0.487500 0.000000
0.137500 0.000000 0.000000
0.137500 0.012500 0.000000
0.137500 0.025000 0.000000
0.137500 0.037500 0.000000
0.137500 0.050000 0.000000
0.137500 0.062500 0.000000
0.137500 0.075000 0.000000
0.137500 0.087500 0.000000
0.137500 0.100000 0.000000
0.137500 0.112500 0.000000
0.137500 0.125000 0.000000
0.137500 0.137500 0.000000
0.137500 0.150000 0.000000
0.137500 0.162500 0.000000
0.137500 0.175000 0.000000
0.137500 0.187500 0.000000
0.137500 0.200000 0.000000
0.137500 0.212500 0.000000
0.137500 0.225000 0.000000
0.137500 0.237500 0.000000
0.137500 0.250000 0.000000
0.137500 0.262500 0.000000
0.137500 0.275000 0.000000
0.137500 0.287500 0.000000
0.137500 0.300000 0.000000
0.137500 0.312500 0.000000
0.137500 0.325000 0.000000
0.137500 0.337500 0.000000
0.137500 0.350000 0.000000
0.137500 0.362500 0.000000
0.137500 0.375000 0.000000
0.137500 0.387500 0.000000
1.377500 0.400000 0.000000
1.377500 0.412500 0.000000
1.377500 0.425000 0.000000
1.377500 0.437500 0.000000
1.377500 0.450000 0.000000
1.377500 0.462500 0.000000
1.377500 0.475000 0.000000
1.377500 0.487500 0.000000
0.175000 0.000000 0.000000
0.175000 0.012500 0.000000
0.175000 0.025000 0.000000
0.175000 0.037500 0.000000
0.175000 0.050000 0.000000
0.175000 0.062500 0.000000
0.175000 0.075000 0.000000
0.175000 0.087500 0.000000
0.175000 0.100000 0.000000
0.175000 0.112500 0.000000
0.175000 0.125000 0.000000
0.175000 0.137500 0.000000
0.175000 0.150000 0.000000
0.175000 0.162500 0.000000
0.175000 0.175000 0.000000
0.175000 0.187500 0.000000
0.175000 0.200000 0.000000
0.175000 0.212500 0.000000
0.175000 0.225000 0.000000
0.175000 0.237500 0.000000
0.175000 0.250000 0.000000
0.175000 0.262500 0.000000
0.175000 0.275000 0.000000
0.175000 0.287500 0.000000
0.175000 0.300000 0.000000
0.175000 0.312500 0.000000
0.175000 0.325000 0.000000
0.175000 0.337500 0.000000
0.175000 0.350000 0.000000
0.175000 0.362500 0.000000
0.175000 0.375000 0.000000
0.175000 0.387500 0.000000
1.415000 0.400000 0.000000
1.415000 0.412500 0.000000
1.415000 0.425000 0.000000
1.415000 0.437500 0.000000
1.415000 0.450000 0.000000
1.415000 0.462500 0.000000
1.415000 0.475000 0.000000
1.415000 0.487500 0.000000
0.212500 0.000000 0.000000
0.212500 0.012500 0.000000
0.212500 0.025000 0.000000
0.212500 0.037500 0.000000
0.212500 0.050000 0.000000
0.212500 0.062500 0.000000
0.212500 0.075000 0.000000
0.212500 0.087500 0.000000
0.212500 0.100000 0.000000
0.212500 0.112500 0.000000
0.212500 0.125000 0.000000
0.212500 0.137500 0.000000
0.212500 0.150000 0.000000
0.212500 0.162500 0.000000
0.212500 0.175000 0.000000
0.212500 0.187500 0.000000
0.212500 0.200000 0.000000
0.212500 0.212500 0.000000
0.212500 0.225000 0.000000
0.212500 0.237500 0.000000
0.212500 0.250000 0.000000
0.212500 0.262500 0.000000
0.212500 0.275000 0.000000
0.212500 0.287500 0.000000
0.212500 0.300000 0.000000
0.212500 0.312500 0.000000
0.212500 0.325000 0.000000
0.212500 0.337500 0.000000
0.212500 0.350000 0.000000
0.212500 0.362500 0.000000
0.212500 0.375000 0.000000
0.212500 0.387500 0.000000
1.452500 0.400000 0.000000
1.452500 0.412500 0.000000
1.452500 0.425000 0.000000
1.452500 0.437500 0.000000
1.452500 0.450000 0.000000
1.452500 0.462500 0.000000
1.452500 0.475000 0.000000
1.452500 0.487500 0.000000
0.250000 0.000000 0.000000
0.250000 0.012500 0.000000
0.250000 0.025000 0.000000
0.250000 0.037500 0.000000
0.250000 0.050000 0.000000
0.250000 0.062500 0.000000
0.250000 0.075000 0.000000
0.250000 0.087500 0.000000
0.250000 0.100000 0.000000
0.250000 0.112500 0.000000
0.250000 0.125000 0.000000
0.250000 0.137500 0.000000
0.250000 0.150000 0.000000
0.250000 0.162500 0.000000
0.250000 0.175000 0.000000
0.250000 0.187500 0.000000
0.250000 0.200000 0.000000
0.250000 0.212500 0.000000
0.250000 0.225000 0.000000
0.250000 0.237500 0.000000
0.250000 0.250000 0.000000
0.250000 0.262500 0.000000
0.250000 0.275000 0.000000
0.250000 0.287500 0.000000
0.250000 0.300000 0.000000
0.250000 0.312500 0.000000
0.250000 0.325000 0.000000
0.250000 0.337500 0.000000
0.250000 0.350000 0.000000
0.250000 0.362500 0.000000
0.250000 0.375000 0.000000
0.250000 0.387500 0.000000
1.490000 0.400000 0.000000
1.490000 0.412500 0.000000
1.490000 0.425000 0.000000
1.490000 0.437500 0.000000
1.490000 0.450000 0.000000
1.490000 0.462500 0.000000
1.490000 0.475000 0.000000
1.490000 0.487500 0.000000
0.287500 0.000000 0.000000
0.287500 0.012500 0.000000
0.287500 0.025000 0.000000
0.287500 0.037500 0.000000
0.287500 0.050000 0.000000
0.287500 0.062500 0.000000
0.287500 0.075000 0.000000
0.287500 0.087500 0.000000
0.287500 0.100000 0.000000
0.287500 0.112500 0.000000
0.287500 0.125000 0.000000
0.287500 0.137500 0.000000
0.287500 0.150000 0.000000
0.287500 0.162500 0.000000
0.287500 0.175000 0.000000
0.287500 0.187500 0.000000
0.287500 0.200000 0.000000
0.287500 0.212500 0.000000
0.287500 0.225000 0.000000
0.287500 0.237500 0.000000
0.287500 0.250000 0.000000
0.287500 0.262500 0.000000
0.287500 0.275000 0.000000
0.287500 0.287500 0.000000
0.287500 0.300000 0.000000
0.287500 0.312500 0.000000
0.287500 0.325000 0.000000
0.287500 0.337500 0.000000
0.287500 0.350000 0.000000
0.287500 0.362500 0.000000
0.287500 0.375000 0.000000
0.287500 0.387500 0.000000
1.527500 0.400000 0.000000
1.527500 0.412500 0.000000
1.527500 0.425000 0.000000
1.527500 0.437500 0.000000
1.527500 0.450000 0.000000
1.527500 0.462500 0.000000
1.527500 0.475000 0.000000
1.527500 0.487500 0.000000
0.325000 0.000000 0.000000
0.325000 0.012500 0.000000
0.325000 0.025000 0.000000
0.325000 0.037500 0.000000
0.325000 0.050000 0.000000
0.325000 0.062500 0.000000
0.325000 0.075000 0.000000
0.325000 0.087500 0.000000
0.325000 0.100000 0.000000
0.325000 0.112500 0.000000
0.325000 0.125000 0.000000
0.325000 0.137500 0.000000
0.325000 0.150000 0.000000
0.325000 0.162500 0.000000
0.325000 0.175000 0.000000
0.325000 0.187500 0.000000
0.325000 0.200000 0.000000
0.325000 0.212500 0.000000
0.325000 0.225000 0.000000
0.325000 0.237500 0.000000
0.325000 0.250000 0.000000
0.325000 0.262500 0.000000
0.325000 0.275000 0.000000
[...]
<PointData>
<DataArray NumberOfComponents='1' type='Int32' Name='ParticleType' format='ascii'>
5
5
5
5
5
5
5
5
5
5
5
5
5
5
5
5
2
2
2
2
2
2
2
2
2
2
2
2
2
2
2
2
2
2
2
2
2
2
2
2
2
1
1
0
0
0
0
0
5
5
5
5
5
5
5
5
2
2
2
2
2
2
2
2
2
2
2
2
2
2
2
2
2
2
2
2
2
2
2
2
2
1
1
0
0
0
0
0
5
5
5
5
5
5
5
5
2
2
2
2
2
2
2
2
2
2
2
2
2
2
2
2
2
2
2
2
2
2
2
2
2
1
0
0
0
0
0
0
5
5
5
5
5
5
5
5
2
2
2
2
2
2
2
2
2
2
2
2
2
2
2
2
2
2
2
2
2
2
2
2
1
1
0
0
0
0
0
0
5
5
5
5
5
5
5
5
2
2
2
2
2
2
2
2
2
2
2
2
2
2
2
2
2
2
2
2
2
2
2
2
1
1
0
0
0
0
0
0
5
5
5
5
5
5
5
5
2
2
2
2
2
2
2
2
2
2
2
2
2
2
2
2
2
2
2
2
2
2
2
2
1
1
0
0
0
0
0
0
5
5
5
5
5
5
5
5
2
2
2
2
2
2
2
2
2
2
2
2
2
2
2
2
2
2
2
2
2
2
2
2
1
1
0
0
0
0
0
0
5
5
5
5
5
5
5
5
2
2
2
2
2
2
2
2
2
2
2
2
2
2
2
2
2
2
2
2
2
2
2
2
1
1
0
0
0
0
0
0
5
5
5
5
5
5
5
5
2
2
2
2
2
2
2
2
2
2
2
2
2
2
2
2
2
2
2
2
2
2
2
2
1
1
0
0
0
0
0
0
5
5
5
5
5
5
5
5
2
2
2
2
2
2
2
2
2
2
2
2
2
2
2
2
2
2
2
2
2
2
2
2
1
0
0
0
0
0
0
0
5
5
5
5
5
5
5
5
2
2
2
2
2
2
2
2
2
2
2
2
2
2
2
2
2
2
2
2
2
2
2
1
1
0
0
0
0
0
0
0
5
5
5
5
5
5
5
5
2
2
2
2
2
2
2
2
2
2
2
2
2
2
2
2
2
2
2
2
2
2
2
1
1
0
0
0
0
0
0
0
5
5
5
5
5
5
5
5
2
2
2
2
2
2
2
2
2
2
2
2
2
2
2
2
2
2
2
2
2
2
2
1
1
0
0
0
0
0
0
0
5
5
5
5
5
5
5
5
2
2
2
2
2
2
2
2
2
2
2
2
2
2
2
2
2
2
2
2
2
2
2
1
1
0
0
0
0
0
0
0
2
2
2
2
2
2
2
2
2
2
2
2
2
2
2
2
2
2
2
2
2
2
2
2
1
0
0
0
0
0
0
0
2
2
2
2
2
2
2
2
2
2
2
2
2
2
2
2
2
2
2
2
2
2
2
2
1
1
0
0
0
0
0
0
2
2
2
2
2
2
2
2
2
2
2
2
2
2
2
2
2
2
2
2
2
2
2
2
1
1
0
0
0
0
0
0
2
2
2
2
2
2
2
2
2
2
2
2
2
2
2
2
2
2
2
2
2
2
2
2
1
1
0
0
0
0
0
0
2
2
2
2
2
2
2
2
2
2
2
2
2
2
2
2
2
2
2
2
2
2
2
2
1
1
0
0
0
0
0
0
2
2
2
2
2
2
2
2
2
2
2
2
2
2
2
2
2
2
2
2
2
2
2
2
1
1
0
0
0
0
0
0
2
2
2
2
2
2
2
2
2
2
2
2
2
2
2
2
2
2
2
2
2
2
2
2
1
1
0
0
0
0
0
0
2
2
2
2
2
2
2
2
2
2
2
2
2
2
2
2
2
2
2
2
2
2
2
2
1
1
0
0
0
0
0
0
2
2
2
2
2
2
2
2
2
2
2
2
2
2
2
2
2
2
2
2
2
2
2
2
1
1
0
0
0
0
0
0
2
2
2
2
2
2
2
2
2
2
2
2
2
2
2
2
2
2
2
2
2
2
2
2
2
1
0
0
0
0
0
0
2
2
2
2
2
2
2
2
2
2
2
2
2
2
2
2
2
2
2
2
2
2
2
2
1
1
0
0
0
0
0
0
2
2
2
2
2
2
2
2
2
2
2
2
2
2
2
2
2
2
2
2
2
2
2
2
2
1
1
0
0
0
0
0
2
2
2
2
2
2
2
2
2
2
2
2
2
2
2
2
2
2
2
2
2
2
2
2
2
1
1
0
0
0
0
0
2
2
2
2
2
2
2
2
2
2
2
2
2
2
2
2
2
2
2
2
2
2
2
2
2
1
1
0
0
0
0
0
2
2
2
2
2
2
2
2
2
2
2
2
2
2
2
2
2
2
2
2
2
2
2
2
2
1
1
0
0
0
0
0
2
2
2
2
2
2
2
2
2
2
2
2
2
2
2
2
2
2
2
2
2
2
2
2
2
1
1
0
0
0
0
0
2
2
2
2
2
2
2
2
2
2
2
2
2
2
2
2
2
2
2
2
2
2
2
2
2
1
1
0
0
0
0
0
2
2
2
2
2
2
2
2
2
2
2
2
2
2
2
2
2
2
2
2
2
2
2
2
2
1
1
0
0
0
0
0
2
2
2
2
2
2
2
2
2
2
2
2
2
2
2
2
2
2
2
2
2
2
2
2
2
2
1
1
0
0
0
0
2
2
2
2
2
2
2
2
2
2
2
2
2
2
2
2
2
2
2
2
2
2
2
2
2
1
1
0
0
0
0
0
2
2
2
2
2
2
2
2
2
2
2
2
2
2
2
2
2
2
2
2
2
2
2
2
2
2
1
1
0
0
0
0
2
2
2
2
2
2
2
2
2
2
2
2
2
2
2
2
2
2
2
2
2
2
2
2
2
1
1
0
0
0
0
0
2
2
2
2
2
2
2
2
2
2
2
2
2
2
2
2
2
2
2
2
2
2
2
2
2
2
1
1
0
0
0
0
2
2
2
2
2
2
2
2
2
2
2
2
2
2
2
2
2
2
2
2
2
2
2
2
2
2
1
0
0
0
0
0
2
2
2
2
2
2
2
2
2
2
2
2
2
2
2
2
2
2
2
2
2
2
2
2
2
2
1
1
0
0
0
0
2
2
2
2
2
2
2
2
2
2
2
2
2
2
2
2
2
2
2
2
2
2
2
2
2
2
1
0
0
0
0
0
2
2
2
2
2
2
2
2
2
2
2
2
2
2
2
2
2
2
2
2
2
2
2
2
2
2
2
1
0
0
0
0
2
2
2
2
2
2
2
2
2
2
2
2
2
2
2
2
2
2
2
2
2
2
2
2
2
2
2
0
0
0
0
0
2
2
2
2
2
2
2
2
2
2
2
2
2
2
2
2
2
2
2
2
2
2
2
2
2
2
2
0
0
0
0
0
2
2
2
2
2
2
2
2
2
2
2
2
2
2
2
2
2
2
2
2
2
2
2
2
2
2
2
2
0
0
0
0
2
2
2
2
2
2
2
2
2
2
2
2
2
2
2
2
2
2
2
2
2
2
2
2
2
2
2
2
2
0
0
0
2
2
2
2
2
2
2
2
2
2
2
2
2
2
2
2
2
2
2
2
2
2
2
2
2
2
2
2
2
0
0
0
2
2
2
2
2
2
2
2
2
2
2
2
2
2
2
2
2
2
2
2
2
2
2
2
2
2
2
2
2
2
2
2
2
2
2
2
2
2
2
2
2
2
2
2
2
2
2
2
2
2
2
2
2
2
2
2
2
2
2
2
2
2
2
2
2
2
2
2
2
2
2
2
2
2
2
2
2
2
2
2
2
2
2
2
2
2
2
2
2
2
2
2
2
2
2
2
2
2
2
2
2
2
2
2
2
2
2
2
2
2
2
2
2
2
2
2
2
2
2
2
2
2
2
2
2
2
2
2
2
2
2
2
2
2
2
2
2
2
2
2
2
2
2
2
2
2
2
2
2
2
2
2
2
2
2
2
2
2
2
2
2
2
2
2
2
2
2
2
2
2
2
2
2
2
2
2
2
2
2
2
2
2
2
2
2
2
2
2
2
2
2
2
2
2
2
2
2
2
2
2
2
2
2
2
2
2
2
2
2
2
2
2
2
2
2
2
2
2
2
2
2
2
2
2
</DataArray>
<DataArray NumberOfComponents='1' type='Float32' Name='Temperature' format='ascii'>
-3.000000
-3.000000
-3.000000
-3.000000
-3.000000
-3.000000
-3.000000
-3.000000
-3.000000
-3.000000
-3.000000
-3.000000
-3.000000
-3.000000
-3.000000
-3.000000
-4.988332
-4.986047
-4.982158
-4.975777
-4.966275
-4.952753
-4.934016
-4.908544
-4.874454
-4.829467
-4.770894
-4.695627
-4.600153
-4.480602
-4.332809
-4.152429
-3.935080
-3.676558
-3.373122
-3.021872
-2.621228
-2.171516
-1.675132
-1.140257
-0.557709
-0.005239
0.003477
15.237315
35.482024
60.486319
84.733971
106.630730
-3.000000
-3.000000
-3.000000
-3.000000
-3.000000
-3.000000
-3.000000
-3.000000
-4.988003
-4.985639
-4.981614
-4.975002
-4.965144
-4.951092
-4.931583
-4.905004
-4.869347
-4.822175
-4.760597
-4.681267
-4.580413
-4.453907
-4.297380
-4.106405
-3.876730
-3.604574
-3.286973
-2.922146
-2.509852
-2.051787
-1.550842
-1.019692
-0.416447
-0.000413
0.009596
27.475998
56.317359
91.763368
126.320642
158.086930
-3.000000
-3.000000
-3.000000
-3.000000
-3.000000
-3.000000
-3.000000
-3.000000
-4.987817
-4.985414
-4.981323
-4.974603
-4.964585
-4.950309
-4.930498
-4.903518
-4.867342
-4.819510
-4.757107
-4.676763
-4.574678
-4.446691
-4.288393
-4.095303
-3.863097
-3.587906
-3.266659
-2.897455
-2.479881
-2.015169
-1.503931
-0.955247
-0.249096
-0.002559
2.511961
35.129437
72.837725
119.427022
165.058898
207.270812
-3.000000
-3.000000
-3.000000
-3.000000
-3.000000
-3.000000
-3.000000
-3.000000
-4.987688
-4.985253
-4.981105
-4.974290
-4.964126
-4.949632
-4.929503
-4.902070
-4.865254
-4.816524
-4.752866
-4.670765
-4.566202
-4.434681
-4.271277
-4.070723
-3.827564
-3.536385
-3.192200
-2.791016
-2.330673
-1.811346
-1.240372
-0.604520
-0.002625
0.002144
18.189417
47.480455
91.716139
148.016948
204.209621
256.924081
-3.000000
-3.000000
-3.000000
-3.000000
-3.000000
-3.000000
-3.000000
-3.000000
-4.987613
-4.985158
-4.980974
-4.974098
-4.963837
-4.949197
-4.928850
-4.901100
-4.863823
-4.814435
-4.749846
-4.666442
-4.560080
-4.426116
-4.259470
-4.054748
-3.806443
-3.509251
-3.158528
-2.750903
-2.285091
-1.762005
-1.191346
-0.547610
-0.001473
0.008204
22.919517
56.836834
108.285388
174.306252
240.780472
303.851244
-3.000000
-3.000000
-3.000000
-3.000000
-3.000000
-3.000000
-3.000000
-3.000000
-4.987567
-4.985099
-4.980893
-4.973978
-4.963657
-4.948928
-4.928457
-4.900534
-4.863033
-4.813367
-4.748462
-4.664747
-4.558160
-4.424193
-4.257957
-4.054289
-3.807910
-3.513639
-3.166735
-2.763379
-2.301430
-1.780625
-1.209314
-0.561122
-0.005756
0.007878
23.211910
63.723997
123.414489
199.946758
277.257328
351.327280
-3.000000
-3.000000
-3.000000
-3.000000
-3.000000
-3.000000
-3.000000
-3.000000
-4.987539
-4.985062
-4.980841
-4.973899
-4.963535
-4.948738
-4.928162
-4.900081
-4.862340
-4.812313
-4.746864
-4.662335
-4.554541
-4.418811
-4.250064
-4.042938
-3.792004
-3.492076
-3.138638
-2.728409
-2.260092
-1.734140
-1.161596
-0.501441
-0.007183
0.006935
28.872743
72.525187
138.464934
224.094841
311.544005
396.398916
-3.000000
-3.000000
-3.000000
-3.000000
-3.000000
-3.000000
-3.000000
-3.000000
-4.987521
-4.985038
-4.980805
-4.973842
-4.963444
-4.948590
-4.927923
-4.899697
-4.861726
-4.811338
-4.745335
-4.659965
-4.550929
-4.413420
-4.242214
-4.031837
-3.776819
-3.472061
-3.113304
-2.697698
-2.224513
-1.694545
-1.120826
-0.449795
-0.005673
0.006813
33.726588
80.929008
153.191477
248.115495
346.083123
442.445018
-3.000000
-3.000000
-3.000000
-3.000000
-3.000000
-3.000000
-3.000000
-3.000000
-4.987511
-4.985024
-4.980784
-4.973809
-4.963390
-4.948504
-4.927784
-4.899475
-4.861375
-4.810792
-4.744497
-4.658702
-4.549059
-4.410709
-4.238375
-4.026537
-3.769700
-3.462765
-3.101510
-2.683140
-2.206991
-1.673761
-1.097375
-0.416611
0.002460
0.008329
36.788628
87.702358
166.149396
270.121576
378.369428
486.251254
-3.000000
-3.000000
-3.000000
-3.000000
-3.000000
-3.000000
-3.000000
-3.000000
-4.987503
-4.985014
-4.980769
-4.973784
-4.963349
-4.948436
-4.927674
-4.899299
-4.861099
-4.810365
-4.743848
-4.657736
-4.547656
-4.408721
-4.235632
-4.022857
-3.764899
-3.456663
-3.093899
-2.673635
-2.194446
-1.653860
-1.058583
-0.261979
-0.005715
3.177319
39.765799
94.259607
178.857994
292.087159
411.081372
531.411670
-3.000000
-3.000000
-3.000000
-3.000000
-3.000000
-3.000000
-3.000000
-3.000000
-4.987502
-4.985011
-4.980763
-4.973774
-4.963329
-4.948402
-4.927615
-4.899201
-4.860939
-4.810112
-4.743455
-4.657138
-4.546758
-4.407373
-4.233571
-4.019557
-3.759224
-3.446115
-3.073183
-2.632370
-2.114515
-1.510799
-0.822524
-0.002968
-0.004542
10.892869
43.188448
100.307520
190.338732
312.301883
441.700634
574.533019
-3.000000
-3.000000
-3.000000
-3.000000
-3.000000
-3.000000
-3.000000
-3.000000
-4.987513
-4.985022
-4.980774
-4.973783
-4.963335
-4.948400
-4.927601
-4.899169
-4.860887
-4.810041
-4.743383
-4.657108
-4.546853
-4.407744
-4.234468
-4.021389
-3.762654
-3.452209
-3.083553
-2.649050
-2.139077
-1.541373
-0.854882
-0.007170
0.000429
9.817135
43.379772
104.458059
200.747006
332.130455
472.675773
619.270864
-3.000000
-3.000000
-3.000000
-3.000000
-3.000000
-3.000000
-3.000000
-3.000000
-4.987447
-4.984919
-4.980599
-4.973476
-4.962805
-4.947506
-4.926131
-4.896808
-4.857184
-4.804372
-4.734913
-4.644773
-4.529370
-4.383672
-4.202354
-3.980035
-3.711579
-3.392403
-3.018645
-2.586817
-2.092425
-1.524144
-0.879512
-0.000144
-0.002315
7.155609
49.668374
111.913993
211.487344
350.034661
500.649979
660.971467
-3.000000
-3.000000
-3.000000
-3.000000
-3.000000
-3.000000
-3.000000
-3.000000
-4.986818
-4.984125
-4.979527
-4.971953
-4.960624
-4.944417
-4.921843
-4.890994
-4.849500
-4.794484
-4.722542
-4.629741
-4.511652
-4.363443
-4.180009
-3.956181
-3.686969
-3.367802
-2.994588
-2.563246
-2.068329
-1.498450
-0.850754
-0.002410
0.004341
8.147394
51.843699
118.744085
223.216989
368.287469
527.271806
700.401090
-4.988434
-4.985975
-4.981761
-4.974794
-4.964322
-4.949265
-4.928182
-4.899221
-4.860072
-4.807920
-4.739418
-4.650678
-4.537295
-4.394413
-4.216847
-3.999260
-3.736425
-3.423527
-3.056482
-2.632035
-2.147184
-1.593812
-0.971925
-0.045266
-0.001635
5.239531
47.611651
113.708050
218.449670
366.653156
531.863526
717.045310
-4.990949
-4.988928
-4.985447
-4.979656
-4.970885
-4.958166
-4.940190
-4.915259
-4.881224
-4.835433
-4.774683
-4.695193
-4.592598
-4.461974
-4.297916
-4.094659
-3.846279
-3.546989
-3.191548
-2.775796
-2.297422
-1.755356
-1.162111
-0.453245
-0.006495
0.007551
38.559795
102.722222
208.169211
360.848271
533.984295
733.934752
-4.992338
-4.990512
-4.987347
-4.982042
-4.973934
-4.962060
-4.945110
-4.921367
-4.888647
-4.844230
-4.784815
-4.706484
-4.604700
-4.474338
-4.309780
-4.105066
-3.854140
-3.551188
-3.191098
-2.770010
-2.286083
-1.738709
-1.141808
-0.425065
-0.001136
0.009261
41.066554
104.014607
207.607085
361.191839
539.459113
753.311589
-4.994147
-4.992676
-4.990110
-4.985777
-4.979099
-4.969222
-4.954975
-4.934804
-4.906704
-4.868145
-4.816011
-4.746553
-4.655360
-4.537369
-4.386914
-4.197813
-3.963511
-3.677301
-3.332649
-2.923708
-2.446170
-1.897458
-1.285952
-0.570471
0.002185
0.008879
30.519212
91.970628
196.253223
354.308406
541.015085
772.970395
-4.995184
-4.993886
-4.991602
-4.987711
-4.981646
-4.972568
-4.959313
-4.940321
-4.913559
-4.876441
-4.825757
-4.757619
-4.667428
-4.549890
-4.399067
-4.208499
-3.971392
-3.680916
-3.330643
-2.915148
-2.430921
-1.876277
-1.261781
-0.538016
-0.001937
0.006712
33.772574
93.469375
195.019540
353.405199
545.446988
794.897990
-4.996430
-4.995412
-4.993610
-4.990516
-4.985644
-4.978274
-4.967388
-4.951607
-4.929103
-4.897516
-4.853866
-4.794485
-4.714968
-4.610165
-4.474219
-4.300658
-4.082528
-3.812544
-3.483247
-3.087207
-2.617463
-2.068125
-1.440268
-0.716037
0.001714
0.006870
21.589095
80.565017
182.675367
345.251447
546.039603
817.916386
-4.997166
-4.996295
-4.994738
-4.992032
-4.987715
-4.981086
-4.971149
-4.956530
-4.935388
-4.905318
-4.863253
-4.805386
-4.727117
-4.623038
-4.486974
-4.312077
-4.090968
-3.815951
-3.479300
-3.073736
-2.593272
-2.033855
-1.400943
-0.667012
-0.002645
0.003910
25.902716
82.413110
180.719091
342.832787
548.932339
843.026605
-4.997971
-4.997311
-4.996120
-4.994032
-4.990663
-4.985429
-4.977482
-4.965643
-4.948299
-4.923309
-4.887891
-4.838522
-4.770854
-4.679673
-4.558912
-4.401749
-4.200798
-3.948390
-3.636875
-3.258784
-2.806518
-2.271379
-1.641181
-0.912077
0.001423
0.005027
11.638307
68.780844
167.439900
333.163941
547.980012
870.165353
-4.998460
-4.997917
-4.996926
-4.995165
-4.992275
-4.987705
-4.980641
-4.969924
-4.953951
-4.930551
-4.896868
-4.849241
-4.783116
-4.693001
-4.572496
-4.414397
-4.210889
-3.953766
-3.634613
-3.244884
-2.775971
-2.219537
-1.571333
-0.823401
-0.003153
0.001117
17.378818
71.107464
164.695166
328.910189
548.618331
899.276419
-4.998943
-4.998547
-4.997817
-4.996504
-4.994324
-4.990828
-4.985349
-4.976921
-4.964184
-4.945264
-4.917650
-4.878056
-4.822293
-4.745177
-4.640485
-4.500988
-4.318611
-4.084735
-3.790668
-3.428313
-2.990972
-2.474466
-1.876067
-1.213586
-0.381760
0.003677
0.401082
56.999303
150.610301
317.443466
545.272108
931.520481
-4.999241
-4.998932
-4.998353
-4.997296
-4.995506
-4.992574
-4.987878
-4.980498
-4.969104
-4.951830
-4.926114
-4.888549
-4.834726
-4.759129
-4.655105
-4.514944
-4.330126
-4.091735
-3.791024
-3.419975
-2.971417
-2.437935
-1.804609
-1.067033
-0.003422
-0.001296
8.038143
59.943699
147.028685
311.008652
542.636968
965.705928
-4.999505
-4.999290
-4.998883
-4.998128
-4.996830
-4.994671
-4.991157
-4.985546
-4.976750
-4.963210
-4.942753
-4.912428
-4.868335
-4.805475
-4.717628
-4.597317
-4.435867
-4.223631
-3.950393
-3.606038
-3.181478
-2.670011
-2.067302
-1.385802
-0.553884
0.002791
0.006732
45.032852
132.200190
297.430415
535.665333
1004.343717
-4.999668
-4.999511
-4.999208
-4.998636
-4.997629
-4.995912
-4.993046
-4.988354
-4.980810
-4.968906
-4.950477
-4.922505
-4.880901
-4.820314
-4.733981
-4.613706
-4.450010
-4.232529
-3.950700
-3.594728
-3.156752
-2.632248
-2.019444
-1.335267
-0.496921
-0.002916
0.009394
49.463789
127.930920
288.465939
528.297379
1045.021439
-4.999798
-4.999695
-4.999494
-4.999108
-4.998416
-4.997213
-4.995169
-4.991758
-4.986176
-4.977216
-4.963115
-4.941368
-4.908523
-4.859967
-4.789735
-4.690387
-4.552968
-4.367119
-4.121335
-3.803415
-3.401174
-2.903669
-2.302307
-1.600696
-0.762615
-0.007911
0.006015
31.943753
112.286787
272.465760
515.899928
1091.745062
-4.999880
-4.999813
-4.999680
-4.999420
-4.998942
-4.998091
-4.996607
-4.994068
-4.989809
-4.982803
-4.971510
-4.953682
-4.926137
-4.884511
-4.823027
-4.734310
-4.609318
-4.437416
-4.206621
-3.903997
-3.516158
-3.030009
-2.433729
-1.723333
-0.880129
-0.001782
0.003950
24.501350
101.814370
257.830838
500.802512
1143.811404
-4.999929
-4.999887
-4.999799
-4.999624
-4.999292
-4.998683
-4.997588
-4.995655
-4.992309
-4.986630
-4.977183
-4.961792
-4.937254
-4.899002
-4.840749
-4.754173
-4.628748
-4.451844
-4.209266
-3.886364
-3.469757
-2.949662
-2.321347
-1.595783
-0.734312
-0.005010
0.004353
34.549646
97.012278
244.471715
482.050450
1198.102518
-4.999963
-4.999938
-4.999886
-4.999780
-4.999575
-4.999188
-4.998474
-4.997181
-4.994888
-4.990901
-4.984116
-4.972817
-4.954425
-4.925187
-4.879830
-4.811242
-4.710236
-4.565529
-4.364033
-4.091535
-3.733658
-3.276613
-2.706860
-2.005192
-1.166174
-0.004713
-0.003353
11.422457
81.658177
224.822846
456.260564
1261.592205
-4.999981
-4.999967
-4.999937
-4.999873
-4.999745
-4.999497
-4.999022
-4.998131
-4.996494
-4.993547
-4.988348
-4.979376
-4.964237
-4.939280
-4.899123
-4.836125
-4.739877
-4.596872
-4.390574
-4.102192
-3.712459
-3.204680
-2.568262
-1.807652
-0.911769
-0.005725
0.000863
25.506943
76.180059
207.967736
427.884588
1366.694037
-4.999991
-4.999984
-4.999968
-4.999934
-4.999863
-4.999720
-4.999438
-4.998892
-4.997858
-4.995938
-4.992452
-4.986264
-4.975536
-4.957391
-4.927482
-4.879494
-4.804649
-4.691335
-4.525056
-4.288941
-3.965028
-3.536418
-2.990363
-2.319357
-1.542441
-0.557090
-0.005864
0.009195
62.687779
186.096438
395.260348
1335.898879
-4.999996
-4.999993
-4.999985
-4.999967
-4.999929
-4.999848
-4.999683
-4.999351
-4.998696
-4.997429
-4.995032
-4.990600
-4.982592
-4.968472
-4.944200
-4.903563
-4.837383
-4.732668
-4.571927
-4.332957
-3.989640
-3.514474
-2.883580
-2.085707
-1.129645
-0.006254
-0.002380
17.640837
56.579267
167.463549
363.141956
1291.632537
-4.999998
-4.999997
-4.999993
-4.999985
-4.999967
-4.999927
-4.999841
-4.999662
-4.999294
-4.998555
-4.997103
-4.994318
-4.989105
-4.979590
-4.962683
-4.933472
-4.884474
-4.804821
-4.679572
-4.489487
-4.211749
-3.822113
-3.298926
-2.627251
-1.816465
-0.811909
-0.007541
0.004812
45.583946
146.647459
328.856790
1241.745022
-4.999999
-4.999999
-4.999997
-4.999994
-4.999986
-4.999967
-4.999925
-4.999833
-4.999635
-4.999218
-4.998358
-4.996628
-4.993228
-4.986713
-4.974558
-4.952496
-4.913601
-4.847099
-4.737015
-4.560896
-4.289052
-3.884855
-3.306917
-2.509969
-1.486302
-0.006523
-0.005033
11.149536
39.211173
128.132672
295.015909
1188.332637
-5.000000
-5.000000
-4.999999
-4.999998
-4.999995
-4.999987
-4.999969
-4.999928
-4.999835
-4.999629
-4.999184
-4.998244
-4.996308
-4.992426
-4.984851
-4.970491
-4.944087
-4.897077
-4.816202
-4.682084
-4.468324
-4.142069
-3.667436
-3.012389
-2.165563
-1.110891
-0.008734
0.000022
30.514272
108.700973
259.527649
1127.791684
-5.000000
-5.000000
-5.000000
-4.999999
-4.999998
-4.999996
-4.999989
-4.999972
-4.999933
-4.999840
-4.999628
-4.999152
-4.998115
-4.995908
-4.991341
-4.982154
-4.964223
-4.930311
-4.868295
-4.758872
-4.573093
-4.270582
-3.800087
-3.102665
-2.140075
-0.726388
-0.006864
6.127306
24.586553
91.116471
224.750995
1062.438372
-5.000000
-5.000000
-5.000000
-5.000000
-5.000000
-4.999999
-4.999997
-4.999991
-4.999977
-4.999942
-4.999857
-4.999653
-4.999180
-4.998108
-4.995749
-4.990711
-4.980282
-4.959407
-4.919078
-4.844060
-4.710043
-4.480772
-4.106484
-3.526485
-2.678475
-1.542830
-0.009420
-0.004307
18.035671
73.597788
189.018621
987.831204
-5.000000
-5.000000
-5.000000
-5.000000
-5.000000
-5.000000
-4.999999
-4.999998
-4.999994
-4.999983
-4.999953
-4.999879
-4.999692
-4.999236
-4.998156
-4.995670
-4.990122
-4.978147
-4.953184
-4.903052
-4.806262
-4.627054
-4.309674
-3.773972
-2.917875
-1.620606
-0.007784
2.604396
13.159822
57.872350
154.678345
906.659190
-5.000000
-5.000000
-5.000000
-5.000000
-5.000000
-5.000000
-5.000000
-5.000000
-4.999999
-4.999996
-4.999989
-4.999968
-4.999910
-4.999758
-4.999363
-4.998373
-4.995966
-4.990307
-4.977471
-4.949471
-4.890918
-4.773997
-4.552124
-4.154375
-3.482820
-2.450309
-0.735095
-0.007026
8.631010
43.019067
120.476798
813.266054
-5.000000
-5.000000
-5.000000
-5.000000
-5.000000
-5.000000
-5.000000
-5.000000
-5.000000
-4.999999
-4.999998
-4.999994
-4.999980
-4.999942
-4.999831
-4.999523
-4.998693
-4.996528
-4.991082
-4.977896
-4.947268
-4.879246
-4.735406
-4.447301
-3.903832
-2.954397
-1.344139
0.548156
5.243277
30.201117
88.902838
710.856929
-5.000000
-5.000000
-5.000000
-5.000000
-5.000000
-5.000000
-5.000000
-5.000000
-5.000000
-5.000000
-5.000000
-4.999999
-4.999997
-4.999991
-4.999972
-4.999909
-4.999718
-4.999150
-4.997523
-4.993032
-4.981143
-4.951071
-4.878679
-4.713597
-4.358827
-3.641557
-2.312725
0.076490
2.600705
18.972342
59.278672
592.035703
-5.000000
-5.000000
-5.000000
-5.000000
-5.000000
-5.000000
-5.000000
-5.000000
-5.000000
-5.000000
-5.000000
-5.000000
-5.000000
-4.999999
-4.999997
-4.999991
-4.999966
-4.999880
-4.999589
-4.998638
-4.995651
-4.986664
-4.960922
-4.891152
-4.713548
-4.292894
-3.386201
-1.490833
0.887097
10.209162
34.344791
460.757369
-5.000000
-5.000000
-5.000000
-5.000000
-5.000000
-5.000000
-5.000000
-5.000000
-5.000000
-5.000000
-5.000000
-5.000000
-5.000000
-5.000000
-5.000000
-5.000000
-4.999999
-4.999994
-4.999976
-4.999902
-4.999610
-4.998492
-4.994378
-4.979934
-4.931982
-4.783033
-4.348719
-3.248040
-0.129140
3.770614
14.404434
307.218841
-5.000000
-5.000000
-5.000000
-5.000000
-5.000000
-5.000000
-5.000000
-5.000000
-5.000000
-5.000000
-5.000000
-5.000000
-5.000000
-5.000000
-5.000000
-5.000000
-5.000000
-5.000000
-5.000000
-4.999999
-4.999994
-4.999972
-4.999873
-4.999396
-4.997065
-4.985772
-4.931525
-4.688535
-3.719636
0.358858
2.466405
136.237662
-5.000000
-5.000000
-5.000000
-5.000000
-5.000000
-5.000000
-5.000000
-5.000000
-5.000000
-5.000000
-5.000000
-5.000000
-5.000000
-5.000000