<?xml version='1.0' encoding='UTF-8'?>
<VTKFile xmlns='VTK' byte_order='LittleEndian' version='0.1' type='UnstructuredGrid'>
<UnstructuredGrid>
<Piece NumberOfCells='1488' NumberOfPoints='1488'>
<Points>
<DataArray NumberOfComponents='3' type='Float32' Name='Position' format='ascii'>
-0.075000 -0.075000 0.000000
-0.075000 -0.050000 0.000000
-0.075000 -0.025000 0.000000
-0.075000 0.000000 0.000000
-0.075000 0.025000 0.000000
-0.075000 0.050000 0.000000
-0.075000 0.075000 0.000000
-0.075000 0.100000 0.000000
-0.075000 0.125000 0.000000
-0.075000 0.150000 0.000000
-0.075000 0.175000 0.000000
-0.075000 0.200000 0.000000
-0.075000 0.225000 0.000000
-0.075000 0.250000 0.000000
-0.075000 0.275000 0.000000
-0.075000 0.300000 0.000000
-0.075000 0.325000 0.000000
-0.075000 0.350000 0.000000
-0.075000 0.375000 0.000000
-0.075000 0.400000 0.000000
-0.075000 0.425000 0.000000
-0.075000 0.450000 0.000000
-0.075000 0.475000 0.000000
-0.075000 0.500000 0.000000
-0.075000 0.525000 0.000000
-0.075000 0.550000 0.000000
-0.075000 0.575000 0.000000
-0.075000 0.600000 0.000000
-0.075000 0.625000 0.000000
-0.075000 0.650000 0.000000
-0.075000 0.675000 0.000000
-0.050000 -0.075000 0.000000
-0.050000 -0.050000 0.000000
-0.050000 -0.025000 0.000000
-0.050000 0.000000 0.000000
-0.050000 0.025000 0.000000
-0.050000 0.050000 0.000000
-0.050000 0.075000 0.000000
-0.050000 0.100000 0.000000
-0.050000 0.125000 0.000000
-0.050000 0.150000 0.000000
-0.050000 0.175000 0.000000
-0.050000 0.200000 0.000000
-0.050000 0.225000 0.000000
-0.050000 0.250000 0.000000
-0.050000 0.275000 0.000000
-0.050000 0.300000 0.000000
-0.050000 0.325000 0.000000
-0.050000 0.350000 0.000000
-0.050000 0.375000 0.000000
-0.050000 0.400000 0.000000
-0.050000 0.425000 0.000000
-0.050000 0.450000 0.000000
-0.050000 0.475000 0.000000
-0.050000 0.500000 0.000000
-0.050000 0.525000 0.000000
-0.050000 0.550000 0.000000
-0.050000 0.575000 0.000000
-0.050000 0.600000 0.000000
-0.050000 0.625000 0.000000
-0.050000 0.650000 0.000000
-0.050000 0.675000 0.000000
-0.025000 -0.075000 0.000000
-0.025000 -0.050000 0.000000
-0.025000 -0.025000 0.000000
-0.025000 0.000000 0.000000
-0.025000 0.025000 0.000000
-0.025000 0.050000 0.000000
-0.025000 0.075000 0.000000
-0.025000 0.100000 0.000000
-0.025000 0.125000 0.000000
-0.025000 0.150000 0.000000
-0.025000 0.175000 0.000000
-0.025000 0.200000 0.000000
-0.025000 0.225000 0.000000
-0.025000 0.250000 0.000000
-0.025000 0.275000 0.000000
-0.025000 0.300000 0.000000
-0.025000 0.325000 0.000000
-0.025000 0.350000 0.000000
-0.025000 0.375000 0.000000
-0.025000 0.400000 0.000000
-0.025000 0.425000 0.000000
-0.025000 0.450000 0.000000
-0.025000 0.475000 0.000000
-0.025000 0.500000 0.000000
-0.025000 0.525000 0.000000
-0.025000 0.550000 0.000000
-0.025000 0.575000 0.000000
-0.025000 0.600000 0.000000
-0.025000 0.625000 0.000000
-0.025000 0.650000 0.000000
-0.025000 0.675000 0.000000
0.000000 -0.075000 0.000000
0.000000 -0.050000 0.000000
0.000000 -0.025000 0.000000
0.000000 0.000000 0.000000
0.000000 0.025000 0.000000
0.000000 0.050000 0.000000
0.000000 0.075000 0.000000
0.000000 0.100000 0.000000
0.000000 0.125000 0.000000
0.000000 0.150000 0.000000
0.000000 0.175000 0.000000
0.000000 0.200000 0.000000
0.000000 0.225000 0.000000
0.000000 0.250000 0.000000
0.000000 0.275000 0.000000
0.000000 0.300000 0.000000
0.000000 0.325000 0.000000
0.000000 0.350000 0.000000
0.000000 0.375000 0.000000
0.000000 0.400000 0.000000
0.000000 0.425000 0.000000
0.000000 0.450000 0.000000
0.000000 0.475000 0.000000
0.000000 0.500000 0.000000
0.000000 0.525000 0.000000
0.000000 0.550000 0.000000
0.000000 0.575000 0.000000
0.000000 0.600000 0.000000
0.000000 0.625000 0.000000
0.000000 0.650000 0.000000
0.000000 0.675000 0.000000
0.025000 -0.075000 0.000000
0.025000 -0.050000 0.000000
0.025000 -0.025000 0.000000
0.025000 0.000000 0.000000
0.025000 0.025000 0.000000
0.025000 0.050000 0.000000
0.025000 0.075000 0.000000
0.025000 0.100000 0.000000
0.025000 0.125000 0.000000
0.025000 0.150000 0.000000
0.025000 0.175000 0.000000
0.025000 0.200000 0.000000
0.025000 0.225000 0.000000
0.025000 0.250000 0.000000
0.025000 0.275000 0.000000
0.025000 0.300000 0.000000
0.025000 0.325000 0.000000
0.025000 0.350000 0.000000
0.025000 0.375000 0.000000
0.025000 0.400000 0.000000
0.025000 0.425000 0.000000
0.025000 0.450000 0.000000
0.025000 0.475000 0.000000
0.025000 0.500000 0.000000
0.025000 0.525000 0.000000
0.025000 0.550000 0.000000
0.025000 0.575000 0.000000
0.025000 0.600000 0.000000
0.025000 0.625000 0.000000
0.025000 0.650000 0.000000
0.025000 0.675000 0.000000
0.050000 -0.075000 0.000000
0.050000 -0.050000 0.000000
0.050000 -0.025000 0.000000
0.050000 0.000000 0.000000
0.050000 0.025000 0.000000
0.050000 0.050000 0.000000
0.050000 0.075000 0.000000
0.050000 0.100000 0.000000
0.050000 0.125000 0.000000
0.050000 0.150000 0.000000
0.050000 0.175000 0.000000
0.050000 0.200000 0.000000
0.050000 0.225000 0.000000
0.050000 0.250000 0.000000
0.050000 0.275000 0.000000
0.050000 0.300000 0.000000
0.050000 0.325000 0.000000
0.050000 0.350000 0.000000
0.050000 0.375000 0.000000
0.050000 0.400000 0.000000
0.050000 0.425000 0.000000
0.050000 0.450000 0.000000
0.050000 0.475000 0.000000
0.050000 0.500000 0.000000
0.050000 0.525000 0.000000
0.050000 0.550000 0.000000
0.050000 0.575000 0.000000
0.050000 0.600000 0.000000
0.050000 0.625000 0.000000
0.050000 0.650000 0.000000
0.050000 0.675000 0.000000
0.075000 -0.075000 0.000000
0.075000 -0.050000 0.000000
0.075000 -0.025000 0.000000
0.075000 0.000000 0.000000
0.075000 0.025000 0.000000
0.075000 0.050000 0.000000
0.075000 0.075000 0.000000
0.075000 0.100000 0.000000
0.075000 0.125000 0.000000
0.075000 0.150000 0.000000
0.075000 0.175000 0.000000
0.075000 0.200000 0.000000
0.075000 0.225000 0.000000
0.075000 0.250000 0.000000
0.075000 0.275000 0.000000
0.075000 0.300000 0.000000
0.075000 0.325000 0.000000
0.075000 0.350000 0.000000
0.075000 0.375000 0.000000
0.075000 0.400000 0.000000
0.075000 0.425000 0.000000
0.075000 0.450000 0.000000
0.075000 0.475000 0.000000
0.075000 0.500000 0.000000
0.075000 0.525000 0.000000
0.075000 0.550000 0.000000
0.075000 0.575000 0.000000
0.075000 0.600000 0.000000
0.075000 0.625000 0.000000
0.075000 0.650000 0.000000
0.075000 0.675000 0.000000
0.100000 -0.075000 0.000000
0.100000 -0.050000 0.000000
0.100000 -0.025000 0.000000
0.100000 0.000000 0.000000
0.100000 0.025000 0.000000
0.100000 0.050000 0.000000
0.100000 0.075000 0.000000
0.100000 0.100000 0.000000
0.100000 0.125000 0.000000
0.100000 0.150000 0.000000
0.100000 0.175000 0.000000
0.100000 0.200000 0.000000
0.100000 0.225000 0.000000
0.100000 0.250000 0.000000
0.100000 0.275000 0.000000
0.100000 0.300000 0.000000
0.100000 0.325000 0.000000
0.100000 0.350000 0.000000
0.100000 0.375000 0.000000
0.100000 0.400000 0.000000
0.100000 0.425000 0.000000
0.100000 0.450000 0.000000
0.100000 0.475000 0.000000
0.100000 0.500000 0.000000
0.100000 0.525000 0.000000
0.100000 0.550000 0.000000
0.100000 0.575000 0.000000
0.100000 0.600000 0.000000
0.100000 0.625000 0.000000
0.100000 0.650000 0.000000
0.100000 0.675000 0.000000
0.125000 -0.075000 0.000000
0.125000 -0.050000 0.000000
0.125000 -0.025000 0.000000
0.125000 0.000000 0.000000
0.125000 0.025000 0.000000
0.125000 0.050000 0.000000
0.125000 0.075000 0.000000
0.125000 0.100000 0.000000
0.125000 0.125000 0.000000
0.125000 0.150000 0.000000
0.125000 0.175000 0.000000
0.125000 0.200000 0.000000
0.125000 0.225000 0.000000
0.125000 0.250000 0.000000
0.125000 0.275000 0.000000
0.125000 0.300000 0.000000
0.125000 0.325000 0.000000
0.125000 0.350000 0.000000
0.125000 0.375000 0.000000
0.125000 0.400000 0.000000
0.125000 0.425000 0.000000
0.125000 0.450000 0.000000
0.125000 0.475000 0.000000
0.125000 0.500000 0.000000
0.125000 0.525000 0.000000
0.125000 0.550000 0.000000
0.125000 0.575000 0.000000
0.125000 0.600000 0.000000
0.125000 0.625000 0.000000
0.125000 0.650000 0.000000
0.125000 0.675000 0.000000
0.150000 -0.075000 0.000000
0.150000 -0.050000 0.000000
0.150000 -0.025000 0.000000
0.150000 0.000000 0.000000
0.150000 0.025000 0.000000
0.150000 0.050000 0.000000
0.150000 0.075000 0.000000
0.150000 0.100000 0.000000
0.150000 0.125000 0.000000
0.150000 0.150000 0.000000
0.150000 0.175000 0.000000
0.150000 0.200000 0.000000
0.150000 0.225000 0.000000
0.150000 0.250000 0.000000
0.150000 0.275000 0.000000
0.150000 0.300000 0.000000
0.150000 0.325000 0.000000
0.150000 0.350000 0.000000
0.150000 0.375000 0.000000
0.150000 0.400000 0.000000
0.150000 0.425000 0.000000
0.150000 0.450000 0.000000
0.150000 0.475000 0.000000
0.150000 0.500000 0.000000
0.150000 0.525000 0.000000
0.150000 0.550000 0.000000
0.150000 0.575000 0.000000
0.150000 0.600000 0.000000
0.150000 0.625000 0.000000
0.150000 0.650000 0.000000
0.150000 0.675000 0.000000
0.175000 -0.075000 0.000000
0.175000 -0.050000 0.000000
0.175000 -0.025000 0.000000
0.175000 0.000000 0.000000
0.175000 0.025000 0.000000
0.175000 0.050000 0.000000
0.175000 0.075000 0.000000
0.175000 0.100000 0.000000
0.175000 0.125000 0.000000
0.175000 0.150000 0.000000
0.175000 0.175000 0.000000
0.175000 0.200000 0.000000
0.175000 0.225000 0.000000
0.175000 0.250000 0.000000
0.175000 0.275000 0.000000
0.175000 0.300000 0.000000
0.175000 0.325000 0.000000
0.175000 0.350000 0.000000
0.175000 0.375000 0.000000
0.175000 0.400000 0.000000
0.175000 0.425000 0.000000
0.175000 0.450000 0.000000
0.175000 0.475000 0.000000
0.175000 0.500000 0.000000
0.175000 0.525000 0.000000
0.175000 0.550000 0.000000
0.175000 0.575000 0.000000
0.175000 0.600000 0.000000
0.175000 0.625000 0.000000
0.175000 0.650000 0.000000
0.175000 0.675000 0.000000
0.200000 -0.075000 0.000000
0.200000 -0.050000 0.000000
0.200000 -0.025000 0.000000
0.200000 0.000000 0.000000
0.200000 0.025000 0.000000
0.200000 0.050000 0.000000
0.200000 0.075000 0.000000
0.200000 0.100000 0.000000
0.200000 0.125000 0.000000
0.200000 0.150000 0.000000
0.200000 0.175000 0.000000
0.200000 0.200000 0.000000
0.200000 0.225000 0.000000
0.200000 0.250000 0.000000
[...]
<PointData>
<DataArray NumberOfComponents='1' type='Int32' Name='ParticleType' format='ascii'>
4
4
4
4
4
4
4
4
4
4
4
4
4
4
4
4
4
4
4
4
4
4
4
4
4
4
4
4
2
2
2
4
4
4
4
4
4
4
4
4
4
4
4
4
4
4
4
4
4
4
4
4
4
4
4
4
4
4
4
2
2
2
4
4
3
3
3
3
3
3
3
3
3
3
3
3
3
3
3
3
3
3
3
3
3
3
3
3
3
3
2
2
2
4
4
3
3
3
3
3
3
3
3
3
3
3
3
3
3
3
3
3
3
3
3
3
3
3
3
3
3
2
2
2
4
4
3
3
0
0
0
0
0
0
0
0
0
0
0
0
0
0
0
0
0
0
0
0
0
0
1
1
2
2
2
4
4
3
3
0
0
0
0
0
0
0
0
0
0
0
0
0
0
0
0
0
0
0
0
0
0
0
1
2
2
2
4
4
3
3
0
0
0
0
0
0
0
0
0
0
0
0
0
0
0
0
0
0
0
0
0
0
0
1
2
2
2
4
4
3
3
0
0
0
0
0
0
0
0
0
0
0
0
0
0
0
0
0
0
0
0
0
0
0
1
2
2
2
4
4
3
3
0
0
0
0
0
0
0
0
0
0
0
0
0
0
0
0
0
0
0
0
0
0
0
1
2
2
2
4
4
3
3
0
0
0
0
0
0
0
0
0
0
0
0
0
0
0
0
0
0
0
0
0
0
0
1
2
2
2
4
4
3
3
0
0
0
0
0
0
0
0
0
0
0
0
0
0
0
0
0
0
0
0
0
0
0
1
2
2
2
4
4
3
3
0
0
0
0
0
0
0
0
0
0
0
0
0
0
0
0
0
0
0
0
0
0
0
1
2
2
2
4
4
3
3
0
0
0
0
0
0
0
0
0
0
0
0
0
0
0
0
0
0
0
0
0
0
0
1
2
2
2
4
4
3
3
0
0
0
0
0
0
0
0
0
0
0
0
0
0
0
0
0
0
0
0
0
0
0
1
2
2
2
4
4
3
3
0
0
0
0
0
0
0
0
0
0
0
0
0
0
0
0
0
0
0
0
0
0
0
1
2
2
2
4
4
3
3
0
0
0
0
0
0
0
0
0
0
0
0
0
0
0
0
0
0
0
0
0
0
0
1
2
2
2
4
4
3
3
0
0
0
0
0
0
0
0
0
0
0
0
0
0
0
0
0
0
0
0
0
0
0
1
2
2
2
4
4
3
3
0
0
0
0
0
0
0
0
0
0
0
0
0
0
0
0
0
0
0
0
0
0
0
1
2
2
2
4
4
3
3
0
0
0
0
0
0
0
0
0
0
0
0
0
0
0
0
0
0
0
0
0
0
0
1
2
2
2
4
4
3
3
0
0
0
0
0
0
0
0
0
0
0
0
0
0
0
0
0
0
0
0
0
0
0
1
2
2
2
4
4
3
3
0
0
0
0
0
0
0
0
0
0
0
0
0
0
0
0
0
0
0
0
0
0
0
1
2
2
2
4
4
3
3
0
0
0
0
0
0
0
0
0
0
0
0
0
0
0
0
0
0
0
0
0
0
0
1
2
2
2
4
4
3
3
0
0
0
0
0
0
0
0
0
0
0
0
0
0
0
0
0
0
0
0
0
0
0
1
2
2
2
4
4
3
3
0
0
0
0
0
0
0
0
0
0
0
0
0
0
0
0
0
0
0
0
0
0
0
1
2
2
2
4
4
3
3
0
0
0
0
0
0
0
0
0
0
0
0
0
0
0
0
0
0
0
0
0
0
0
1
2
2
2
4
4
3
3
0
0
0
0
0
0
0
0
0
0
0
0
0
0
0
0
0
0
0
0
0
0
0
1
2
2
2
4
4
3
3
0
0
0
0
0
0
0
0
0
0
0
0
0
0
0
0
0
0
0
0
0
0
0
1
2
2
2
4
4
3
3
0
0
0
0
0
0
0
0
0
0
0
0
0
0
0
0
0
0
0
0
0
0
0
1
2
2
2
4
4
3
3
0
0
0
0
0
0
0
0
0
0
0
0
0
0
0
0
0
0
0
0
0
0
0
1
2
2
2
4
4
3
3
0
0
0
0
0
0
0
0
0
0
0
0
0
0
0
0
0
0
0
0
0
0
0
1
2
2
2
4
4
3
3
0
0
0
0
0
0
0
0
0
0
0
0
0
0
0
0
0
0
0
0
0
0
0
1
2
2
2
4
4
3
3
0
0
0
0
0
0
0
0
0
0
0
0
0
0
0
0
0
0
0
0
0
0
0
1
2
2
2
4
4
3
3
0
0
0
0
0
0
0
0
0
0
0
0
0
0
0
0
0
0
0
0
0
0
0
1
2
2
2
4
4
3
3
0
0
0
0
0
0
0
0
0
0
0
0
0
0
0
0
0
0
0
0
0
0
0
1
2
2
2
4
4
3
3
0
0
0
0
0
0
0
0
0
0
0
0
0
0
0
0
0
0
0
0
0
0
0
1
2
2
2
4
4
3
3
0
0
0
0
0
0
0
0
0
0
0
0
0
0
0
0
0
0
0
0
0
0
0
1
2
2
2
4
4
3
3
0
0
0
0
0
0
0
0
0
0
0
0
0
0
0
0
0
0
0
0
0
0
0
1
2
2
2
4
4
3
3
0
0
0
0
0
0
0
0
0
0
0
0
0
0
0
0
0
0
0
0
0
0
0
1
2
2
2
4
4
3
3
0
0
0
0
0
0
0
0
0
0
0
0
0
0
0
0
0
0
0
0
0
0
0
1
2
2
2
4
4
3
3
0
0
0
0
0
0
0
0
0
0
0
0
0
0
0
0
0
0
0
0
0
0
0
1
2
2
2
4
4
3
3
0
0
0
0
0
0
0
0
0
0
0
0
0
0
0
0
0
0
0
0
0
0
0
1
2
2
2
4
4
3
3
0
0
0
0
0
0
0
0
0
0
0
0
0
0
0
0
0
0
0
0
0
0
0
1
2
2
2
4
4
3
3
0
0
0
0
0
0
0
0
0
0
0
0
0
0
0
0
0
0
0
0
0
0
0
1
2
2
2
4
4
3
3
0
0
0
0
0
0
0
0
0
0
0
0
0
0
0
0
0
0
0
0
0
0
1
1
2
2
2
4
4
3
3
3
3
3
3
3
3
3
3
3
3
3
3
3
3
3
3
3
3
3
3
3
3
3
3
2
2
2
4
4
3
3
3
3
3
3
3
3
3
3
3
3
3
3
3
3
3
3
3
3
3
3
3
3
3
3
2
2
2
4
4
4
4
4
4
4
4
4
4
4
4
4
4
4
4
4
4
4
4
4
4
4
4
4
4
4
4
2
2
2
4
4
4
4
4
4
4
4
4
4
4
4
4
4
4
4
4
4
4
4
4
4
4
4
4
4
4
4
2
2
2
</DataArray>
<DataArray NumberOfComponents='1' type='Float32' Name='Temperature' format='ascii'>
0.000000
0.000000
0.000000
0.000000
0.000000
0.000000
0.000000
0.000000
0.000000
0.000000
0.000000
0.000000
0.000000
0.000000
0.000000
0.000000
0.000000
0.000000
0.000000
0.000000
0.000000
0.000000
0.000000
0.000000
0.000000
0.000000
0.000000
0.000000
-5.000000
-5.000000
-5.000000
0.000000
0.000000
0.000000
0.000000
0.000000
0.000000
0.000000
0.000000
0.000000
0.000000
0.000000
0.000000
0.000000
0.000000
0.000000
0.000000
0.000000
0.000000
0.000000
0.000000
0.000000
0.000000
0.000000
0.000000
0.000000
0.000000
0.000000
0.000000
-5.000000
-5.000000
-5.000000
0.000000
0.000000
0.000000
0.000000
0.000000
0.000000
0.000000
0.000000
0.000000
0.000000
0.000000
0.000000
0.000000
0.000000
0.000000
0.000000
0.000000
0.000000
0.000000
0.000000
0.000000
0.000000
0.000000
0.000000
0.000000
0.000000
0.000000
0.000000
-5.000000
-5.000000
-5.000000
0.000000
0.000000
0.000000
0.000000
0.000000
0.000000
0.000000
0.000000
0.000000
0.000000
0.000000
0.000000
0.000000
0.000000
0.000000
0.000000
0.000000
0.000000
0.000000
0.000000
0.000000
0.000000
0.000000
0.000000
0.000000
0.000000
0.000000
0.000000
-5.000000
-5.000000
-5.000000
0.000000
0.000000
0.000000
0.000000
0.391118
0.669287
0.907619
1.084477
1.207773
1.288019
1.337538
1.366879
1.383807
1.393349
1.398396
1.400365
1.399651
1.395781
1.387202
1.370690
1.340392
1.286718
1.195403
1.048302
0.821626
0.512859
0.009800
0.005983
-5.000000
-5.000000
-5.000000
0.000000
0.000000
0.000000
0.000000
0.669515
1.145508
1.554823
1.859548
2.073115
2.213264
2.300915
2.353973
2.385561
2.404092
2.414328
2.418533
2.417296
2.409802
2.393477
2.362966
2.308498
2.214032
2.055833
1.804201
1.422054
0.910664
0.066162
0.006349
-5.000000
-5.000000
-5.000000
0.000000
0.000000
0.000000
0.000000
0.908697
1.556214
2.114743
2.532883
2.828540
3.025440
3.151625
3.230980
3.280798
3.311900
3.330157
3.338169
3.336467
3.323938
3.297348
3.249919
3.169078
3.033950
2.813627
2.469911
1.957619
1.279963
0.261370
0.006782
-5.000000
-5.000000
-5.000000
0.000000
0.000000
0.000000
0.000000
1.087714
1.864902
2.538393
3.046935
3.411792
3.660948
3.827301
3.938447
4.013747
4.064608
4.096552
4.111503
4.109441
4.089025
4.047035
3.976578
3.864241
3.686945
3.409918
2.990063
2.378439
1.577983
0.428054
0.006856
-5.000000
-5.000000
-5.000000
0.000000
0.000000
0.000000
0.000000
1.215563
2.087305
2.847800
3.429659
3.856975
4.160700
4.376482
4.533088
4.649208
4.734158
4.790791
4.818664
4.816339
4.782316
4.714411
4.607559
4.450234
4.220439
3.883039
3.393199
2.700230
1.805923
0.557171
0.006967
-5.000000
-5.000000
-5.000000
0.000000
0.000000
0.000000
0.000000
1.304333
2.244592
3.073069
3.719903
4.212296
4.583501
4.869984
5.098700
5.283880
5.428670
5.529528
5.580861
5.578360
5.520418
5.407473
5.239269
5.010198
4.703833
4.288916
3.722103
2.952384
1.979710
0.654234
0.007349
-5.000000
-5.000000
-5.000000
0.000000
0.000000
0.000000
0.000000
1.368361
2.362177
3.250858
3.965782
4.538583
5.004947
5.400462
5.746583
6.047711
6.294633
6.471609
6.563526
6.560912
6.462093
6.272520
6.001252
5.654599
5.228146
4.700118
4.032417
3.175035
2.125221
0.732614
0.007425
-5.000000
-5.000000
-5.000000
0.000000
0.000000
0.000000
0.000000
1.420403
2.462986
3.414959
4.212974
4.895640
5.502163
6.065766
6.597754
7.085158
7.497391
7.797974
7.955895
7.953203
7.788187
7.474691
7.037560
6.503683
5.889812
5.191302
4.379949
3.407968
2.268306
0.806145
0.007192
-5.000000
-5.000000
-5.000000
0.000000
0.000000
0.000000
0.000000
1.470111
2.564563
3.591712
4.498017
5.332870
6.141136
6.952492
7.762413
8.530629
9.192987
9.680778
9.938658
9.935895
9.670758
9.169836
8.482246
7.667022
6.774339
5.826655
4.811291
3.683659
2.429816
0.885986
0.007560
-5.000000
-5.000000
-5.000000
0.000000
0.000000
0.000000
0.000000
1.523420
2.677613
3.797030
4.842842
5.879983
6.962066
8.114499
9.310655
10.471189
11.483675
12.233466
12.631108
12.628254
12.223167
11.460043
10.422093
9.214244
7.934834
6.645185
5.354351
4.021487
2.622256
0.978844
0.007366
-5.000000
-5.000000
-5.000000
0.000000
0.000000
0.000000
0.000000
1.582564
2.805629
4.034910
5.250938
6.539090
7.965216
9.550324
11.239819
12.903403
14.365274
15.451017
16.027622
16.024639
15.440339
14.341030
12.853494
11.142407
9.369378
7.646453
6.010210
4.423531
2.847833
1.086282
0.007600
-5.000000
-5.000000
-5.000000
0.000000
0.000000
0.000000
0.000000
1.646545
2.945508
4.297744
5.706570
7.281583
9.103736
11.189917
13.453366
15.703802
17.690015
19.167324
19.952243
19.949099
19.156170
17.665017
15.652936
13.354866
11.007724
8.783279
6.749772
4.873440
3.098329
1.204795
0.007549
-5.000000
-5.000000
-5.000000
0.000000
0.000000
0.000000
0.000000
1.712046
3.089282
4.569076
6.178822
8.053751
10.291047
12.903645
15.771213
18.640424
21.179108
23.068719
24.072868
24.069549
23.057052
21.153303
18.588547
15.671601
12.720241
9.969008
7.519196
5.340189
3.357452
1.327087
0.007234
-5.000000
-5.000000
-5.000000
0.000000
0.000000
0.000000
0.000000
1.774696
3.226828
4.828638
6.630370
8.791444
11.424113
14.537155
17.978064
21.433554
24.496099
26.776934
27.989222
27.985746
26.764807
24.469575
21.380783
17.877475
14.352686
11.100667
8.254385
5.786610
3.605475
1.444221
0.007735
-5.000000
-5.000000
-5.000000
0.000000
0.000000
0.000000
0.000000
1.830407
3.348840
5.058122
7.028036
9.438388
12.413593
15.957951
19.890948
23.848368
27.359375
29.975509
31.366426
31.362834
29.963041
27.332322
23.794940
19.789634
15.772664
12.088996
8.899169
6.179747
3.824690
1.548026
0.007684
-5.000000
-5.000000
-5.000000
0.000000
0.000000
0.000000
0.000000
1.876378
3.449080
5.245574
7.350760
9.959894
13.206007
17.088972
21.406069
25.753988
29.613667
32.490780
34.020942
34.017281
32.478111
29.586300
25.700169
21.304311
16.903142
12.880552
9.418936
6.498721
4.003585
1.633115
0.007869
-5.000000
-5.000000
-5.000000
0.000000
0.000000
0.000000
0.000000
1.911496
3.525219
5.386909
7.592102
10.346654
13.789020
17.915221
22.506480
27.132082
31.239421
34.302027
35.931278
35.927586
34.289270
31.211916
27.078087
22.404507
17.729082
13.462980
9.804391
6.737166
4.138294
1.697538
0.007443
-5.000000
-5.000000
-5.000000
0.000000
0.000000
0.000000
0.000000
1.936108
3.578249
5.484562
7.757382
10.609181
14.181469
18.467325
23.237393
28.043401
32.311406
35.494370
37.187969
37.184272
35.481595
32.283872
27.989364
23.135349
18.281037
13.855063
10.066014
6.900388
4.231234
1.742282
0.007939
-5.000000
-5.000000
-5.000000
0.000000
0.000000
0.000000
0.000000
1.951400
3.611004
5.544431
7.857883
10.767516
14.416368
18.795595
23.669643
28.580194
32.941156
36.193748
37.924591
37.920897
36.180984
32.913638
28.526169
23.567596
18.609247
14.089754
10.223789
6.999589
4.288133
1.769829
0.007801
-5.000000
-5.000000
-5.000000
0.000000
0.000000
0.000000
0.000000
1.958660
3.626488
5.572573
7.904836
10.841042
14.524838
18.946446
23.867498
28.825181
33.228003
36.511938
38.259550
38.255860
36.499186
33.200501
28.771176
23.765462
18.760081
14.198132
10.297049
7.045918
4.314848
1.782820
0.007891
-5.000000
-5.000000
-5.000000
0.000000
0.000000
0.000000
0.000000
1.958693
3.626551
5.572673
7.904978
10.841229
14.525072
18.946725
23.867815
28.825531
33.228377
36.512331
38.259951
38.256261
36.499578
33.200876
28.771525
23.765779
18.760358
14.198365
10.297234
7.046055
4.314939
1.782870
0.007892
-5.000000
-5.000000
-5.000000
0.000000
0.000000
0.000000
0.000000
1.951498
3.611192
5.544726
7.858298
10.768056
14.417030
18.796365
23.670501
28.581117
32.942128
36.194750
37.925608
37.921914
36.181986
32.914608
28.527093
23.568453
18.610015
14.090412
10.224322
6.999990
4.288402
1.769976
0.007805
-5.000000
-5.000000
-5.000000
0.000000
0.000000
0.000000
0.000000
1.936271
3.578556
5.485038
7.758035
10.610006
14.182437
18.468390
23.238503
28.044516
32.312503
35.495447
37.189033
37.185335
35.482671
32.284968
27.990477
23.136458
18.282098
13.856024
10.066826
6.901017
4.231666
1.742523
0.007949
-5.000000
-5.000000
-5.000000
0.000000
0.000000
0.000000
0.000000
1.911719
3.525635
5.387538
7.592935
10.347647
13.790089
17.916255
22.507370
27.132760
31.239875
34.302303
35.931457
35.927765
34.289546
31.212370
27.078763
22.405394
17.730110
13.464040
9.805367
6.737966
4.138863
1.697862
0.007461
-5.000000
-5.000000
-5.000000
0.000000
0.000000
0.000000
0.000000
1.876654
3.449588
5.246317
7.351695
9.960910
13.206926
17.089578
21.406167
25.753470
29.612552
32.489203
34.019118
34.015456
32.476534
29.585184
25.699649
21.304405
16.903742
12.881460
9.419930
6.499614
4.004253
1.633508
0.007900
-5.000000
-5.000000
-5.000000
0.000000
0.000000
0.000000
0.000000
1.830725
3.349416
5.058937
7.028995
9.439296
12.414150
15.957802
19.889786
23.846042
27.355947
29.971240
31.361709
31.358116
29.958772
27.328892
23.792611
19.788468
15.772509
12.089539
8.900051
6.180658
3.825417
1.548469
0.007723
-5.000000
-5.000000
-5.000000
0.000000
0.000000
0.000000
0.000000
1.775045
3.227448
4.829490
6.631308
8.792188
11.424242
14.536178
17.975561
21.429329
24.490263
26.769878
27.981518
27.978042
26.757750
24.463738
21.376556
17.874968
14.351701
11.100779
8.255098
5.787493
3.606230
1.444697
0.007794
-5.000000
-5.000000
-5.000000
0.000000
0.000000
0.000000
0.000000
1.712413
3.089929
4.569948
6.179741
8.054383
10.290894
12.902130
15.767840
18.634968
21.171713
23.059862
24.063236
24.059917
23.048194
21.145908
18.583089
15.668224
12.718717
9.968838
7.519795
5.341049
3.358219
1.327580
0.007303
-5.000000
-5.000000
-5.000000
0.000000
0.000000
0.000000
0.000000
1.646919
2.946168
4.298634
5.707512
7.282241
9.103614
11.188434
13.450029
15.698383
17.682659
19.158506
19.942650
19.939506
19.147351
17.657659
15.647514
13.351523
11.006231
8.783137
6.750395
4.874319
3.099110
1.205296
0.007608
-5.000000
-5.000000
-5.000000
0.000000
0.000000
0.000000
0.000000
1.582936
2.806292
4.035822
5.251951
6.539922
7.965445
9.549457
11.237433
12.899301
14.359566
15.444092
16.020049
16.017067
15.433412
14.335319
12.849388
11.140014
9.368498
7.646659
6.011003
4.424478
2.848633
1.086783
0.007652
-5.000000
-5.000000
-5.000000
0.000000
0.000000
0.000000
0.000000
1.523785
2.678271
3.797962
4.843949
5.881066
6.962821
8.114568
9.309727
10.469109
11.480503
12.229461
12.626657
12.623802
12.219159
11.456867
10.420007
9.213307
7.934887
6.645913
5.355391
4.022524
2.623073
0.979339
0.007416
-5.000000
-5.000000
-5.000000
0.000000
0.000000
0.000000
0.000000
1.470466
2.565210
3.592654
4.499204
5.334185
6.142397
6.953475
7.762918
8.530543
9.192322
9.679664
9.937302
9.934538
9.669642
9.169165
8.482150
7.667511
6.775300
5.827881
4.812554
3.684767
2.430638
0.886469
0.007591
-5.000000
-5.000000
-5.000000
0.000000
0.000000
0.000000
0.000000
1.420745
2.463614
3.415893
4.214197
4.897101
5.503770
6.067398
6.599295
7.086531
7.498575
7.799002
7.956837
7.954144
7.789211
7.475867
7.038920
6.505204
5.891413
5.192862
4.381344
3.409099
2.269111
0.806611
0.007230
-5.000000
-5.000000
-5.000000
0.000000
0.000000
0.000000
0.000000
1.368687
2.362778
3.251759
3.966987
4.540079
5.006696
5.402406
5.748660
6.049866
6.296828
6.473822
6.565746
6.563130
6.464300
6.274704
6.003388
5.656646
5.230045
4.701802
4.033826
3.176130
2.125985
0.733057
0.007475
-5.000000
-5.000000
-5.000000
0.000000
0.000000
0.000000
0.000000
1.304630
2.245142
3.073899
3.721026
4.213714
4.585202
4.871943
5.100880
5.286240
5.431167
5.532119
5.583499
5.580996
5.523001
5.409956
5.241604
5.012336
4.705729
4.290530
3.723409
2.953373
1.980394
0.654644
0.007446
-5.000000
-5.000000
-5.000000
0.000000
0.000000
0.000000
0.000000
1.215805
2.087758
2.848494
3.430612
3.858198
4.162191
4.378226
4.535059
4.651372
4.736476
4.793215
4.821142
4.818815
4.784731
4.716710
4.609689
4.452150
4.222100
3.884417
3.394281
2.701025
1.806465
0.557508
0.007201
-5.000000
-5.000000
-5.000000
0.000000
0.000000
0.000000
0.000000
1.087859
1.865190
2.538861
3.047611
3.412696
3.662080
3.828651
3.939993
4.015460
4.066453
4.098488
4.113485
4.111419
4.090949
4.048856
3.978250
3.865720
3.688196
3.410915
2.990800
2.378937
1.578292
0.428245
0.007257
-5.000000
-5.000000
-5.000000
0.000000
0.000000
0.000000
0.000000
0.908711
1.556278
2.114907
2.533191
2.829022
3.026104
3.152462
3.231971
3.281918
3.313119
3.331444
3.339489
3.337783
3.325212
3.298541
3.250993
3.169995
3.034677
2.814144
2.470218
1.957745
1.279969
0.261321
0.006599
-5.000000
-5.000000
-5.000000
0.000000
0.000000
0.000000
0.000000
0.669404
1.145357
1.554692
1.859494
2.073177
2.213456
2.301233
2.354402
2.386080
2.404679
2.414959
2.419186
2.417945
2.410421
2.394039
2.363441
2.308857
2.214247
2.055889
1.804105
1.421847
0.910397
0.065903
0.006405
-5.000000
-5.000000
-5.000000
0.000000
0.000000
0.000000
0.000000
0.390952
0.669035
0.907335
1.084218
1.207575
1.287898
1.337494
1.366902
1.383884
1.393465
1.398538
1.400519
1.399802
1.395913
1.387300
1.370734
1.340363
1.286598
1.195183
1.047995
0.821273
0.512514
0.009856
0.004339
-5.000000
-5.000000
-5.000000
0.000000
0.000000
0.000000
0.000000
0.000000
0.000000
0.000000
0.000000
0.000000
0.000000
0.000000
0.000000
0.000000
0.000000
0.000000
0.000000
0.000000
0.000000
0.000000
0.000000
0.000000
0.000000
0.000000
0.000000
0.000000
0.000000
0.000000
0.000000
-5.000000
-5.000000
-5.000000
0.000000
0.000000
0.000000
0.000000
0.000000
0.000000
0.000000
0.000000
0.000000
0.000000
0.000000
0.000000
0.000000
0.000000
0.000000
0.000000
0.000000
0.000000
0.000000
0.000000
0.000000
0.000000
0.000000
0.000000
0.000000
0.000000
0.000000
0.000000
-5.000000
-5.000000
-5.000000
0.000000
0.000000
0.000000
0.000000
0.000000
0.000000
0.000000
0.000000
0.000000
0.000000
0.000000
0.000000
0.000000
0.000000
0.000000
0.000000
0.000000
0.000000
0.000000
0.000000
0.000000
0.000000
0.000000
0.000000
0.000000
0.000000
0.000000
0.000000
-5.000000
-5.000000
-5.000000
0.000000
0.000000
0.000000
0.000000
0.000000
0.000000
0.000000
0.000000
0.000000
0.000000
0.000000
0.000000
0.000000
0.000000
0.000000
0.000000
0.000000
0.000000
0.000000
0.000000
0.000000
0.000000
0.000000
0.000000
0.000000
0.000000
0.000000
0.000000
-5.000000
-5.000000
-5.000000
</DataArray>
</PointData>
<Cells>
<DataArray type='Int32' Name='connectivity' format='ascii'>
0
1
2
3
4
5
6
7
8
9
10
11
12
13
14
15
16
17
18
19
20
21
22
23
24
25
26
27
28
29
30
31
32
33
34
35
36
37
38
39
40
41
42
43
44
45
46
47
48
49
50
51
52
53
54
55
56
57
58
59
60
61
62
63
64
65
66
67
68
69
70
71
72
73
74
75
76
77
78
79
80
81
82
83
84
85
86
87
88
89
90
91
92
93
94
95
96
97
98
99
100
101
102
103
104
105
106
107
108
109
110
111
112
113
114
115
116
117
118
119
120
121
122
123
124
125
126
127
128
129
130
131
132
133
134
135
136
137
138
139
140
141
142
143
144
145
146
147
148
149
150
151
152
153
154
155
156
157
158
159
160
161
162
163
164
165
166
167
168
169
170
171
172
173
174
175
176
177
178
179
180
181
182
183
184
185
186
187
188
189
190
191
192
193
194
195
196
197
198
199
200
201
202
203
204
205
206
207
208
209
210
211
212
213
214
215
216
217
218
219
220
221
222
223
224
225
226
227
228
229
230
231
232
233
234
235
236
237
238
239
240
241
242
243
244
245
246
247
248
249
250
251
252
253
254
255
256
257
258
259
260
261
262
263
264
265
266
267
268
269
270
271
272
273
274
275
276
277
278
279
280
281
282
283
284
285
286
287
288
289
290
291
292
293
294
295
296
297
298
299
300
301
302
303
304
305
306
307
308
309
310
311
312
313
314
315
316
317
318
319
320
321
322
323
324
325
326
327
328
329
330
331
332
333
334
335
336
337
338
339
340
341
342
343
344
345
346
347
348
349
350
351
352
353
354
355
356
357
358
359
360
361
362
363
364
365
366
367
368
369
370
371
372
373
374
375
376
377
378
379
380
381
382
383
384
385
386
387
388
389
390
391
392
393
394
395
396
397
398
399
400
401
402
403
404
405
406
407
408
409
410
411
412
413
414
415
416
417
418
419
420
421
422
423
424
425
426
427
428
429
430
431
432
433
434
435
436
437
438
439
440
441
442
443
444
445
446
447
448
449
450
451
452
453
454
455
456
457
458
459
460
461
462
463
464
465
466
467
468
469
470
471
472
473
474
475
476
477
478
479
480
481
482
483
484
485
486
487
488
489
490
491
492
493
494
495
496
497
498
499
500
501
502
503
504
505
506
507
508
509
510
511
512
513
514
515
516
517
518
519
520
521
522
523
524
525
526
527
528
529
530
531
532
533
534
535
536
537
538
539
540
541
542
543
544
545
546
547
548
549
550
551
552
553
554
555
556
557
558
559
560
561
562
563
564
565
566
567
568
569
570
571
572
573
574
575
576
577
578
579
580
581
582
583
584
585
586
587
588
589
590
591
592
593
594
595
596
597
598
599
600
601
602
603
604
605
606
607
608
609
610
611
612
613
614
615
616
617
618
619
620
621
622
623
624
625
626
627
628
629
630
631
632
633
634
635
636
637
638
639
640
641
642
643
644
645
646
647
648
649
650
651
652
653
654
655
656
657
658
659
660
661
662
663
664
665
666
667
668
669
670
671
672
673
674
675
676
677
678
679
680
681
682
683
684
685
686
687
688
689
690
691
692
693
694
695
696
697
698
699
700
701
702
703
704
705
706
707
708
709
710
711
712
713
714
715
716
717
718
719
720
721
722
723
724
725
726
727
728
729
730
731
732
733
734
735
736
737
738
739
740
741
742
743
744
745
746
747
748
749
750
751
752
753