<?xml version='1.0' encoding='UTF-8'?>
<VTKFile xmlns='VTK' byte_order='LittleEndian' version='0.1' type='UnstructuredGrid'>
<UnstructuredGrid>
<Piece NumberOfCells='1488' NumberOfPoints='1488'>
<Points>
<DataArray NumberOfComponents='3' type='Float32' Name='Position' format='ascii'>
-0.075000 -0.075000 0.000000
-0.075000 -0.050000 0.000000
-0.075000 -0.025000 0.000000
-0.075000 0.000000 0.000000
-0.075000 0.025000 0.000000
-0.075000 0.050000 0.000000
-0.075000 0.075000 0.000000
-0.075000 0.100000 0.000000
-0.075000 0.125000 0.000000
-0.075000 0.150000 0.000000
-0.075000 0.175000 0.000000
-0.075000 0.200000 0.000000
-0.075000 0.225000 0.000000
-0.075000 0.250000 0.000000
-0.075000 0.275000 0.000000
-0.075000 0.300000 0.000000
-0.075000 0.325000 0.000000
-0.075000 0.350000 0.000000
-0.075000 0.375000 0.000000
-0.075000 0.400000 0.000000
-0.075000 0.425000 0.000000
-0.075000 0.450000 0.000000
-0.075000 0.475000 0.000000
-0.075000 0.500000 0.000000
-0.075000 0.525000 0.000000
-0.075000 0.550000 0.000000
-0.075000 0.575000 0.000000
-0.075000 0.600000 0.000000
-0.075000 0.625000 0.000000
-0.075000 0.650000 0.000000
-0.075000 0.675000 0.000000
-0.050000 -0.075000 0.000000
-0.050000 -0.050000 0.000000
-0.050000 -0.025000 0.000000
-0.050000 0.000000 0.000000
-0.050000 0.025000 0.000000
-0.050000 0.050000 0.000000
-0.050000 0.075000 0.000000
-0.050000 0.100000 0.000000
-0.050000 0.125000 0.000000
-0.050000 0.150000 0.000000
-0.050000 0.175000 0.000000
-0.050000 0.200000 0.000000
-0.050000 0.225000 0.000000
-0.050000 0.250000 0.000000
-0.050000 0.275000 0.000000
-0.050000 0.300000 0.000000
-0.050000 0.325000 0.000000
-0.050000 0.350000 0.000000
-0.050000 0.375000 0.000000
-0.050000 0.400000 0.000000
-0.050000 0.425000 0.000000
-0.050000 0.450000 0.000000
-0.050000 0.475000 0.000000
-0.050000 0.500000 0.000000
-0.050000 0.525000 0.000000
-0.050000 0.550000 0.000000
-0.050000 0.575000 0.000000
-0.050000 0.600000 0.000000
-0.050000 0.625000 0.000000
-0.050000 0.650000 0.000000
-0.050000 0.675000 0.000000
-0.025000 -0.075000 0.000000
-0.025000 -0.050000 0.000000
-0.025000 -0.025000 0.000000
-0.025000 0.000000 0.000000
-0.025000 0.025000 0.000000
-0.025000 0.050000 0.000000
-0.025000 0.075000 0.000000
-0.025000 0.100000 0.000000
-0.025000 0.125000 0.000000
-0.025000 0.150000 0.000000
-0.025000 0.175000 0.000000
-0.025000 0.200000 0.000000
-0.025000 0.225000 0.000000
-0.025000 0.250000 0.000000
-0.025000 0.275000 0.000000
-0.025000 0.300000 0.000000
-0.025000 0.325000 0.000000
-0.025000 0.350000 0.000000
-0.025000 0.375000 0.000000
-0.025000 0.400000 0.000000
-0.025000 0.425000 0.000000
-0.025000 0.450000 0.000000
-0.025000 0.475000 0.000000
-0.025000 0.500000 0.000000
-0.025000 0.525000 0.000000
-0.025000 0.550000 0.000000
-0.025000 0.575000 0.000000
-0.025000 0.600000 0.000000
-0.025000 0.625000 0.000000
-0.025000 0.650000 0.000000
-0.025000 0.675000 0.000000
0.000000 -0.075000 0.000000
0.000000 -0.050000 0.000000
0.000000 -0.025000 0.000000
0.000000 0.000000 0.000000
0.000000 0.025000 0.000000
0.000000 0.050000 0.000000
0.000000 0.075000 0.000000
0.000000 0.100000 0.000000
0.000000 0.125000 0.000000
0.000000 0.150000 0.000000
0.000000 0.175000 0.000000
0.000000 0.200000 0.000000
0.000000 0.225000 0.000000
0.000000 0.250000 0.000000
0.000000 0.275000 0.000000
0.000000 0.300000 0.000000
0.000000 0.325000 0.000000
0.000000 0.350000 0.000000
0.000000 0.375000 0.000000
0.000000 0.400000 0.000000
0.000000 0.425000 0.000000
0.000000 0.450000 0.000000
0.000000 0.475000 0.000000
0.000000 0.500000 0.000000
0.000000 0.525000 0.000000
0.000000 0.550000 0.000000
0.000000 0.575000 0.000000
0.000000 0.600000 0.000000
0.000000 0.625000 0.000000
0.000000 0.650000 0.000000
0.000000 0.675000 0.000000
0.025000 -0.075000 0.000000
0.025000 -0.050000 0.000000
0.025000 -0.025000 0.000000
0.025000 0.000000 0.000000
0.025000 0.025000 0.000000
0.025000 0.050000 0.000000
0.025000 0.075000 0.000000
0.025000 0.100000 0.000000
0.025000 0.125000 0.000000
0.025000 0.150000 0.000000
0.025000 0.175000 0.000000
0.025000 0.200000 0.000000
0.025000 0.225000 0.000000
0.025000 0.250000 0.000000
0.025000 0.275000 0.000000
0.025000 0.300000 0.000000
0.025000 0.325000 0.000000
0.025000 0.350000 0.000000
0.025000 0.375000 0.000000
0.025000 0.400000 0.000000
0.025000 0.425000 0.000000
0.025000 0.450000 0.000000
0.025000 0.475000 0.000000
0.025000 0.500000 0.000000
0.025000 0.525000 0.000000
0.025000 0.550000 0.000000
0.025000 0.575000 0.000000
0.025000 0.600000 0.000000
0.025000 0.625000 0.000000
0.025000 0.650000 0.000000
0.025000 0.675000 0.000000
0.050000 -0.075000 0.000000
0.050000 -0.050000 0.000000
0.050000 -0.025000 0.000000
0.050000 0.000000 0.000000
0.050000 0.025000 0.000000
0.050000 0.050000 0.000000
0.050000 0.075000 0.000000
0.050000 0.100000 0.000000
0.050000 0.125000 0.000000
0.050000 0.150000 0.000000
0.050000 0.175000 0.000000
0.050000 0.200000 0.000000
0.050000 0.225000 0.000000
0.050000 0.250000 0.000000
0.050000 0.275000 0.000000
0.050000 0.300000 0.000000
0.050000 0.325000 0.000000
0.050000 0.350000 0.000000
0.050000 0.375000 0.000000
0.050000 0.400000 0.000000
0.050000 0.425000 0.000000
0.050000 0.450000 0.000000
0.050000 0.475000 0.000000
0.050000 0.500000 0.000000
0.050000 0.525000 0.000000
0.050000 0.550000 0.000000
0.050000 0.575000 0.000000
0.050000 0.600000 0.000000
0.050000 0.625000 0.000000
0.050000 0.650000 0.000000
0.050000 0.675000 0.000000
0.075000 -0.075000 0.000000
0.075000 -0.050000 0.000000
0.075000 -0.025000 0.000000
0.075000 0.000000 0.000000
0.075000 0.025000 0.000000
0.075000 0.050000 0.000000
0.075000 0.075000 0.000000
0.075000 0.100000 0.000000
0.075000 0.125000 0.000000
0.075000 0.150000 0.000000
0.075000 0.175000 0.000000
0.075000 0.200000 0.000000
0.075000 0.225000 0.000000
0.075000 0.250000 0.000000
0.075000 0.275000 0.000000
0.075000 0.300000 0.000000
0.075000 0.325000 0.000000
0.075000 0.350000 0.000000
0.075000 0.375000 0.000000
0.075000 0.400000 0.000000
0.075000 0.425000 0.000000
0.075000 0.450000 0.000000
0.075000 0.475000 0.000000
0.075000 0.500000 0.000000
0.075000 0.525000 0.000000
0.075000 0.550000 0.000000
0.075000 0.575000 0.000000
0.075000 0.600000 0.000000
0.075000 0.625000 0.000000
0.075000 0.650000 0.000000
0.075000 0.675000 0.000000
0.100000 -0.075000 0.000000
0.100000 -0.050000 0.000000
0.100000 -0.025000 0.000000
0.100000 0.000000 0.000000
0.100000 0.025000 0.000000
0.100000 0.050000 0.000000
0.100000 0.075000 0.000000
0.100000 0.100000 0.000000
0.100000 0.125000 0.000000
0.100000 0.150000 0.000000
0.100000 0.175000 0.000000
0.100000 0.200000 0.000000
0.100000 0.225000 0.000000
0.100000 0.250000 0.000000
0.100000 0.275000 0.000000
0.100000 0.300000 0.000000
0.100000 0.325000 0.000000
0.100000 0.350000 0.000000
0.100000 0.375000 0.000000
0.100000 0.400000 0.000000
0.100000 0.425000 0.000000
0.100000 0.450000 0.000000
0.100000 0.475000 0.000000
0.100000 0.500000 0.000000
0.100000 0.525000 0.000000
0.100000 0.550000 0.000000
0.100000 0.575000 0.000000
0.100000 0.600000 0.000000
0.100000 0.625000 0.000000
0.100000 0.650000 0.000000
0.100000 0.675000 0.000000
0.125000 -0.075000 0.000000
0.125000 -0.050000 0.000000
0.125000 -0.025000 0.000000
0.125000 0.000000 0.000000
0.125000 0.025000 0.000000
0.125000 0.050000 0.000000
0.125000 0.075000 0.000000
0.125000 0.100000 0.000000
0.125000 0.125000 0.000000
0.125000 0.150000 0.000000
0.125000 0.175000 0.000000
0.125000 0.200000 0.000000
0.125000 0.225000 0.000000
0.125000 0.250000 0.000000
0.125000 0.275000 0.000000
0.125000 0.300000 0.000000
0.125000 0.325000 0.000000
0.125000 0.350000 0.000000
0.125000 0.375000 0.000000
0.125000 0.400000 0.000000
0.125000 0.425000 0.000000
0.125000 0.450000 0.000000
0.125000 0.475000 0.000000
0.125000 0.500000 0.000000
0.125000 0.525000 0.000000
0.125000 0.550000 0.000000
0.125000 0.575000 0.000000
0.125000 0.600000 0.000000
0.125000 0.625000 0.000000
0.125000 0.650000 0.000000
0.125000 0.675000 0.000000
0.150000 -0.075000 0.000000
0.150000 -0.050000 0.000000
0.150000 -0.025000 0.000000
0.150000 0.000000 0.000000
0.150000 0.025000 0.000000
0.150000 0.050000 0.000000
0.150000 0.075000 0.000000
0.150000 0.100000 0.000000
0.150000 0.125000 0.000000
0.150000 0.150000 0.000000
0.150000 0.175000 0.000000
0.150000 0.200000 0.000000
0.150000 0.225000 0.000000
0.150000 0.250000 0.000000
0.150000 0.275000 0.000000
0.150000 0.300000 0.000000
0.150000 0.325000 0.000000
0.150000 0.350000 0.000000
0.150000 0.375000 0.000000
0.150000 0.400000 0.000000
0.150000 0.425000 0.000000
0.150000 0.450000 0.000000
0.150000 0.475000 0.000000
0.150000 0.500000 0.000000
0.150000 0.525000 0.000000
0.150000 0.550000 0.000000
0.150000 0.575000 0.000000
0.150000 0.600000 0.000000
0.150000 0.625000 0.000000
0.150000 0.650000 0.000000
0.150000 0.675000 0.000000
0.175000 -0.075000 0.000000
0.175000 -0.050000 0.000000
0.175000 -0.025000 0.000000
0.175000 0.000000 0.000000
0.175000 0.025000 0.000000
0.175000 0.050000 0.000000
0.175000 0.075000 0.000000
0.175000 0.100000 0.000000
0.175000 0.125000 0.000000
0.175000 0.150000 0.000000
0.175000 0.175000 0.000000
0.175000 0.200000 0.000000
0.175000 0.225000 0.000000
0.175000 0.250000 0.000000
0.175000 0.275000 0.000000
0.175000 0.300000 0.000000
0.175000 0.325000 0.000000
0.175000 0.350000 0.000000
0.175000 0.375000 0.000000
0.175000 0.400000 0.000000
0.175000 0.425000 0.000000
0.175000 0.450000 0.000000
0.175000 0.475000 0.000000
0.175000 0.500000 0.000000
0.175000 0.525000 0.000000
0.175000 0.550000 0.000000
0.175000 0.575000 0.000000
0.175000 0.600000 0.000000
0.175000 0.625000 0.000000
0.175000 0.650000 0.000000
0.175000 0.675000 0.000000
0.200000 -0.075000 0.000000
0.200000 -0.050000 0.000000
0.200000 -0.025000 0.000000
0.200000 0.000000 0.000000
0.200000 0.025000 0.000000
0.200000 0.050000 0.000000
0.200000 0.075000 0.000000
0.200000 0.100000 0.000000
0.200000 0.125000 0.000000
0.200000 0.150000 0.000000
0.200000 0.175000 0.000000
0.200000 0.200000 0.000000
0.200000 0.225000 0.000000
0.200000 0.250000 0.000000
[...]
<PointData>
<DataArray NumberOfComponents='1' type='Int32' Name='ParticleType' format='ascii'>
4
4
4
4
4
4
4
4
4
4
4
4
4
4
4
4
4
4
4
4
4
4
4
4
4
4
4
4
2
2
2
4
4
4
4
4
4
4
4
4
4
4
4
4
4
4
4
4
4
4
4
4
4
4
4
4
4
4
4
2
2
2
4
4
3
3
3
3
3
3
3
3
3
3
3
3
3
3
3
3
3
3
3
3
3
3
3
3
3
3
2
2
2
4
4
3
3
3
3
3
3
3
3
3
3
3
3
3
3
3
3
3
3
3
3
3
3
3
3
3
3
2
2
2
4
4
3
3
0
0
0
0
0
0
0
0
0
0
0
0
0
0
0
0
0
0
0
0
0
0
0
1
2
2
2
4
4
3
3
0
0
0
0
0
0
0
0
0
0
0
0
0
0
0
0
0
0
0
0
0
0
0
1
2
2
2
4
4
3
3
0
0
0
0
0
0
0
0
0
0
0
0
0
0
0
0
0
0
0
0
0
0
0
1
2
2
2
4
4
3
3
0
0
0
0
0
0
0
0
0
0
0
0
0
0
0
0
0
0
0
0
0
0
0
1
2
2
2
4
4
3
3
0
0
0
0
0
0
0
0
0
0
0
0
0
0
0
0
0
0
0
0
0
0
0
1
2
2
2
4
4
3
3
0
0
0
0
0
0
0
0
0
0
0
0
0
0
0
0
0
0
0
0
0
0
0
1
2
2
2
4
4
3
3
0
0
0
0
0
0
0
0
0
0
0
0
0
0
0
0
0
0
0
0
0
0
0
1
2
2
2
4
4
3
3
0
0
0
0
0
0
0
0
0
0
0
0
0
0
0
0
0
0
0
0
0
0
0
1
2
2
2
4
4
3
3
0
0
0
0
0
0
0
0
0
0
0
0
0
0
0
0
0
0
0
0
0
0
0
1
2
2
2
4
4
3
3
0
0
0
0
0
0
0
0
0
0
0
0
0
0
0
0
0
0
0
0
0
0
0
1
2
2
2
4
4
3
3
0
0
0
0
0
0
0
0
0
0
0
0
0
0
0
0
0
0
0
0
0
0
0
1
2
2
2
4
4
3
3
0
0
0
0
0
0
0
0
0
0
0
0
0
0
0
0
0
0
0
0
0
0
0
1
2
2
2
4
4
3
3
0
0
0
0
0
0
0
0
0
0
0
0
0
0
0
0
0
0
0
0
0
0
0
1
2
2
2
4
4
3
3
0
0
0
0
0
0
0
0
0
0
0
0
0
0
0
0
0
0
0
0
0
0
0
1
2
2
2
4
4
3
3
0
0
0
0
0
0
0
0
0
0
0
0
0
0
0
0
0
0
0
0
0
0
0
1
2
2
2
4
4
3
3
0
0
0
0
0
0
0
0
0
0
0
0
0
0
0
0
0
0
0
0
0
0
0
1
2
2
2
4
4
3
3
0
0
0
0
0
0
0
0
0
0
0
0
0
0
0
0
0
0
0
0
0
0
0
1
2
2
2
4
4
3
3
0
0
0
0
0
0
0
0
0
0
0
0
0
0
0
0
0
0
0
0
0
0
0
1
2
2
2
4
4
3
3
0
0
0
0
0
0
0
0
0
0
0
0
0
0
0
0
0
0
0
0
0
0
0
1
2
2
2
4
4
3
3
0
0
0
0
0
0
0
0
0
0
0
0
0
0
0
0
0
0
0
0
0
0
0
1
2
2
2
4
4
3
3
0
0
0
0
0
0
0
0
0
0
0
0
0
0
0
0
0
0
0
0
0
0
0
1
2
2
2
4
4
3
3
0
0
0
0
0
0
0
0
0
0
0
0
0
0
0
0
0
0
0
0
0
0
0
1
2
2
2
4
4
3
3
0
0
0
0
0
0
0
0
0
0
0
0
0
0
0
0
0
0
0
0
0
0
0
1
2
2
2
4
4
3
3
0
0
0
0
0
0
0
0
0
0
0
0
0
0
0
0
0
0
0
0
0
0
0
1
2
2
2
4
4
3
3
0
0
0
0
0
0
0
0
0
0
0
0
0
0
0
0
0
0
0
0
0
0
0
1
2
2
2
4
4
3
3
0
0
0
0
0
0
0
0
0
0
0
0
0
0
0
0
0
0
0
0
0
0
0
1
2
2
2
4
4
3
3
0
0
0
0
0
0
0
0
0
0
0
0
0
0
0
0
0
0
0
0
0
0
0
1
2
2
2
4
4
3
3
0
0
0
0
0
0
0
0
0
0
0
0
0
0
0
0
0
0
0
0
0
0
0
1
2
2
2
4
4
3
3
0
0
0
0
0
0
0
0
0
0
0
0
0
0
0
0
0
0
0
0
0
0
0
1
2
2
2
4
4
3
3
0
0
0
0
0
0
0
0
0
0
0
0
0
0
0
0
0
0
0
0
0
0
0
1
2
2
2
4
4
3
3
0
0
0
0
0
0
0
0
0
0
0
0
0
0
0
0
0
0
0
0
0
0
0
1
2
2
2
4
4
3
3
0
0
0
0
0
0
0
0
0
0
0
0
0
0
0
0
0
0
0
0
0
0
0
1
2
2
2
4
4
3
3
0
0
0
0
0
0
0
0
0
0
0
0
0
0
0
0
0
0
0
0
0
0
0
1
2
2
2
4
4
3
3
0
0
0
0
0
0
0
0
0
0
0
0
0
0
0
0
0
0
0
0
0
0
0
1
2
2
2
4
4
3
3
0
0
0
0
0
0
0
0
0
0
0
0
0
0
0
0
0
0
0
0
0
0
0
1
2
2
2
4
4
3
3
0
0
0
0
0
0
0
0
0
0
0
0
0
0
0
0
0
0
0
0
0
0
0
1
2
2
2
4
4
3
3
0
0
0
0
0
0
0
0
0
0
0
0
0
0
0
0
0
0
0
0
0
0
0
1
2
2
2
4
4
3
3
0
0
0
0
0
0
0
0
0
0
0
0
0
0
0
0
0
0
0
0
0
0
0
1
2
2
2
4
4
3
3
0
0
0
0
0
0
0
0
0
0
0
0
0
0
0
0
0
0
0
0
0
0
0
1
2
2
2
4
4
3
3
0
0
0
0
0
0
0
0
0
0
0
0
0
0
0
0
0
0
0
0
0
0
0
1
2
2
2
4
4
3
3
3
3
3
3
3
3
3
3
3
3
3
3
3
3
3
3
3
3
3
3
3
3
3
3
2
2
2
4
4
3
3
3
3
3
3
3
3
3
3
3
3
3
3
3
3
3
3
3
3
3
3
3
3
3
3
2
2
2
4
4
4
4
4
4
4
4
4
4
4
4
4
4
4
4
4
4
4
4
4
4
4
4
4
4
4
4
2
2
2
4
4
4
4
4
4
4
4
4
4
4
4
4
4
4
4
4
4
4
4
4
4
4
4
4
4
4
4
2
2
2
</DataArray>
<DataArray NumberOfComponents='1' type='Float32' Name='Temperature' format='ascii'>
0.000000
0.000000
0.000000
0.000000
0.000000
0.000000
0.000000
0.000000
0.000000
0.000000
0.000000
0.000000
0.000000
0.000000
0.000000
0.000000
0.000000
0.000000
0.000000
0.000000
0.000000
0.000000
0.000000
0.000000
0.000000
0.000000
0.000000
0.000000
-5.000000
-5.000000
-5.000000
0.000000
0.000000
0.000000
0.000000
0.000000
0.000000
0.000000
0.000000
0.000000
0.000000
0.000000
0.000000
0.000000
0.000000
0.000000
0.000000
0.000000
0.000000
0.000000
0.000000
0.000000
0.000000
0.000000
0.000000
0.000000
0.000000
0.000000
0.000000
-5.000000
-5.000000
-5.000000
0.000000
0.000000
0.000000
0.000000
0.000000
0.000000
0.000000
0.000000
0.000000
0.000000
0.000000
0.000000
0.000000
0.000000
0.000000
0.000000
0.000000
0.000000
0.000000
0.000000
0.000000
0.000000
0.000000
0.000000
0.000000
0.000000
0.000000
0.000000
-5.000000
-5.000000
-5.000000
0.000000
0.000000
0.000000
0.000000
0.000000
0.000000
0.000000
0.000000
0.000000
0.000000
0.000000
0.000000
0.000000
0.000000
0.000000
0.000000
0.000000
0.000000
0.000000
0.000000
0.000000
0.000000
0.000000
0.000000
0.000000
0.000000
0.000000
0.000000
-5.000000
-5.000000
-5.000000
0.000000
0.000000
0.000000
0.000000
1.025508
1.568059
1.908379
2.073841
2.148095
2.177925
2.189040
2.192901
2.194177
2.194589
2.194722
2.194761
2.194752
2.194678
2.194424
2.193592
2.190920
2.182678
2.158586
2.093117
1.926638
1.560207
0.665948
0.009301
-5.000000
-5.000000
-5.000000
0.000000
0.000000
0.000000
0.000000
1.567890
2.422208
2.967794
3.236715
3.358795
3.408318
3.426956
3.433524
3.435759
3.436527
3.436807
3.436902
3.436887
3.436733
3.436250
3.434779
3.430233
3.416488
3.376881
3.270870
3.006561
2.437849
1.228528
0.009370
-5.000000
-5.000000
-5.000000
0.000000
0.000000
0.000000
0.000000
1.908149
2.967739
3.652350
3.994876
4.152199
4.216806
4.241513
4.250496
4.253787
4.255101
4.255692
4.255934
4.255915
4.255594
4.254735
4.252502
4.246217
4.228039
4.176863
4.042137
3.713133
3.013678
1.603164
0.009509
-5.000000
-5.000000
-5.000000
0.000000
0.000000
0.000000
0.000000
2.073672
3.236779
3.995062
4.378956
4.557290
4.631700
4.661050
4.672569
4.677568
4.680159
4.681640
4.682345
4.682323
4.681529
4.679738
4.676094
4.667692
4.645834
4.587095
4.435830
4.072713
3.307685
1.796120
0.009434
-5.000000
-5.000000
-5.000000
0.000000
0.000000
0.000000
0.000000
2.148084
3.359192
4.152997
4.558243
4.748758
4.830397
4.864969
4.881113
4.890444
4.896798
4.901051
4.903218
4.903197
4.900938
4.896355
4.888874
4.875923
4.848865
4.783531
4.622092
4.241346
3.444878
1.886190
0.009430
-5.000000
-5.000000
-5.000000
0.000000
0.000000
0.000000
0.000000
2.178215
3.409457
4.219211
4.635736
4.835260
4.925880
4.970895
4.999101
5.021007
5.038660
5.051283
5.057850
5.057834
5.051183
5.038228
5.019417
4.993791
4.954416
4.878074
4.706517
4.314759
3.503212
1.924013
0.009664
-5.000000
-5.000000
-5.000000
0.000000
0.000000
0.000000
0.000000
2.189921
3.429708
4.247796
4.673448
4.885551
4.994996
5.066669
5.128218
5.185883
5.235794
5.272127
5.291035
5.291035
5.272069
5.235420
5.184348
5.122923
5.050099
4.946878
4.756083
4.351039
3.528981
1.939699
0.009685
-5.000000
-5.000000
-5.000000
0.000000
0.000000
0.000000
0.000000
2.194910
3.439552
4.265200
4.704541
4.942298
5.096128
5.235164
5.384010
5.536563
5.671794
5.769945
5.820545
5.820574
5.769970
5.671543
5.535168
5.378843
5.218674
5.047994
4.812651
4.381695
3.545418
1.947862
0.009478
-5.000000
-5.000000
-5.000000
0.000000
0.000000
0.000000
0.000000
2.198167
3.447781
4.284662
4.749339
5.040105
5.292265
5.588350
5.947535
6.331951
6.673938
6.918739
7.042739
7.042814
6.918894
6.673873
6.330769
5.942582
5.572052
5.244270
4.910510
4.426414
3.564530
1.955346
0.009730
-5.000000
-5.000000
-5.000000
0.000000
0.000000
0.000000
0.000000
2.201689
3.458262
4.313208
4.822049
5.211124
5.656632
6.277810
7.088931
7.981594
8.769619
9.321900
9.595280
9.595409
9.322190
8.769719
7.980572
7.084147
6.261707
5.608837
5.081683
4.499183
3.592906
1.965290
0.009545
-5.000000
-5.000000
-5.000000
0.000000
0.000000
0.000000
0.000000
2.206147
3.472357
4.353681
4.929855
5.476083
6.246813
7.452267
9.128191
11.012116
12.656302
13.766688
14.297999
14.298158
13.766992
12.656255
11.010771
9.123100
7.436068
6.199130
5.346821
4.607104
3.633242
1.978826
0.009683
-5.000000
-5.000000
-5.000000
0.000000
0.000000
0.000000
0.000000
2.211478
3.489599
4.404337
5.068062
5.825072
7.048310
9.119093
12.132996
15.621408
18.592477
20.534658
21.430780
21.430916
20.534735
18.591699
15.618805
12.126664
9.102222
7.000517
5.695956
4.745443
3.683758
1.995433
0.009597
-5.000000
-5.000000
-5.000000
0.000000
0.000000
0.000000
0.000000
2.217154
3.508080
4.459038
5.218487
6.208755
7.942226
11.006678
15.627287
21.565604
26.130291
29.029316
30.339666
30.339745
29.028991
26.128107
21.559901
15.617873
10.988467
7.894157
6.079751
4.896001
3.738315
2.013254
0.009300
-5.000000
-5.000000
-5.000000
0.000000
0.000000
0.000000
0.000000
2.222465
3.525293
4.509673
5.356685
6.557699
8.743435
12.672345
18.629135
26.169463
32.059228
35.789159
37.464054
37.464110
35.788606
32.056314
26.162504
18.618483
12.653462
8.695256
6.428843
5.034335
3.788820
2.029864
0.009648
-5.000000
-5.000000
-5.000000
0.000000
0.000000
0.000000
0.000000
2.226826
3.539236
4.549969
5.464323
6.822467
9.333194
13.845633
20.665768
29.195534
35.939986
40.227244
42.159805
42.159890
40.226704
35.936924
29.188251
20.654808
13.826655
9.285131
6.693795
5.142100
3.829010
2.043297
0.009567
-5.000000
-5.000000
-5.000000
0.000000
0.000000
0.000000
0.000000
2.229981
3.549108
4.577735
5.536175
6.992601
9.696587
14.533809
21.805276
30.842526
38.032402
42.626810
44.708642
44.708780
42.626405
38.029504
30.835403
21.794486
14.515032
9.648736
6.864108
5.214056
3.856693
2.052784
0.009682
-5.000000
-5.000000
-5.000000
0.000000
0.000000
0.000000
0.000000
2.232003
3.555262
4.594468
5.577846
7.087090
9.889335
14.883552
22.365261
31.634251
39.030798
43.771837
45.927081
45.927266
43.771561
39.028087
31.627343
22.354693
14.864986
9.841663
6.958730
5.255798
3.873369
2.058671
0.009316
-5.000000
-5.000000
-5.000000
0.000000
0.000000
0.000000
0.000000
2.233155
3.558662
4.603374
5.599124
7.133273
9.979546
15.040986
22.609952
31.973833
39.455726
44.258618
46.445581
46.445796
44.258427
39.453140
31.967074
22.599539
15.022561
9.931989
7.004993
5.277117
3.882242
2.061925
0.009699
-5.000000
-5.000000
-5.000000
0.000000
0.000000
0.000000
0.000000
2.233734
3.560319
4.607556
5.608724
7.153288
10.017207
15.104653
22.706551
32.105892
39.619814
44.446260
46.645484
46.645714
44.446112
39.617294
32.099212
22.696218
15.086300
9.969709
7.025049
5.286737
3.886407
2.063504
0.009578
-5.000000
-5.000000
-5.000000
0.000000
0.000000
0.000000
0.000000
2.233966
3.560967
4.609144
5.612253
7.160419
10.030244
15.126165
22.738607
32.149211
39.673333
44.507345
46.710546
46.710782
44.507214
39.670838
32.142561
22.728305
15.107841
9.982768
7.032196
5.290275
3.887987
2.064121
0.009645
-5.000000
-5.000000
-5.000000
0.000000
0.000000
0.000000
0.000000
2.233968
3.560973
4.609156
5.612278
7.160463
10.030316
15.126273
22.738757
32.149404
39.673565
44.507607
46.710825
46.711061
44.507476
39.671071
32.142755
22.728455
15.107949
9.982840
7.032240
5.290299
3.888000
2.064127
0.009646
-5.000000
-5.000000
-5.000000
0.000000
0.000000
0.000000
0.000000
2.233742
3.560339
4.607600
5.608809
7.153439
10.017455
15.105025
22.707068
32.106557
39.620616
44.447164
46.646443
46.646673
44.447016
39.618096
32.099878
22.696735
15.086672
9.969956
7.025200
5.286822
3.886450
2.063523
0.009581
-5.000000
-5.000000
-5.000000
0.000000
0.000000
0.000000
0.000000
2.233171
3.558703
4.603463
5.599299
7.133585
9.980054
15.041746
22.611001
31.975177
39.457339
44.260438
46.447512
46.447727
44.260247
39.454754
31.968420
22.600588
15.023322
9.932498
7.005305
5.277292
3.882331
2.061965
0.009707
-5.000000
-5.000000
-5.000000
0.000000
0.000000
0.000000
0.000000
2.232031
3.555333
4.594624
5.578152
7.087630
9.890200
14.884815
22.366958
31.636385
39.033333
43.774687
45.930108
45.930293
43.774412
39.030621
31.629477
22.356391
14.866249
9.842530
6.959271
5.256104
3.873525
2.058741
0.009331
-5.000000
-5.000000
-5.000000
0.000000
0.000000
0.000000
0.000000
2.230025
3.549219
4.577977
5.536644
6.993410
9.697823
14.535488
21.807356
30.844960
38.035182
42.629907
44.711940
44.712078
42.629502
38.032283
30.837836
21.796565
14.516711
9.649972
6.864918
5.214525
3.856934
2.052891
0.009706
-5.000000
-5.000000
-5.000000
0.000000
0.000000
0.000000
0.000000
2.226887
3.539390
4.550303
5.464960
6.823515
9.334638
13.847244
20.667194
29.196564
35.940756
40.228007
42.160662
42.160747
40.227466
35.937693
29.189279
20.656231
13.828264
9.286574
6.694843
5.142737
3.829343
2.043447
0.009597
-5.000000
-5.000000
-5.000000
0.000000
0.000000
0.000000
0.000000
2.222540
3.525485
4.510087
5.357456
6.558888
8.744807
12.673148
18.628301
26.166413
32.054447
35.783595
37.458319
37.458374
35.783040
32.051530
26.159450
18.617645
12.654263
8.696627
6.430031
5.035105
3.789232
2.030050
0.009695
-5.000000
-5.000000
-5.000000
0.000000
0.000000
0.000000
0.000000
2.217238
3.508293
4.459497
5.219328
6.209987
7.943403
11.006418
15.623594
21.557220
26.118371
29.015724
30.325639
30.325716
29.015397
26.116185
21.551514
15.614179
10.988204
7.895332
6.080982
4.896842
3.738771
2.013462
0.009354
-5.000000
-5.000000
-5.000000
0.000000
0.000000
0.000000
0.000000
2.211562
3.489813
4.404797
5.068905
5.826305
7.049488
9.118834
12.129304
15.613025
18.580559
20.521067
21.416753
21.416888
20.521141
18.579778
15.610420
12.122970
9.101961
7.001693
5.697188
4.746285
3.684215
1.995641
0.009642
-5.000000
-5.000000
-5.000000
0.000000
0.000000
0.000000
0.000000
2.206223
3.472551
4.354097
4.930629
5.477275
6.248190
7.453074
9.127361
11.009070
12.651525
13.761128
14.292268
14.292426
13.761430
12.651476
11.007722
9.122266
7.436872
6.200505
5.348013
4.607877
3.633656
1.979014
0.009724
-5.000000
-5.000000
-5.000000
0.000000
0.000000
0.000000
0.000000
2.201753
3.458422
4.313552
4.822696
5.212183
5.658088
6.279433
7.090370
7.982637
8.770403
9.322677
9.596151
9.596280
9.322966
8.770500
7.981612
7.085584
6.263329
5.610291
5.082742
4.499830
3.593246
1.965445
0.009582
-5.000000
-5.000000
-5.000000
0.000000
0.000000
0.000000
0.000000
2.198220
3.447910
4.284928
4.749836
5.040946
5.293534
5.590065
5.949649
6.334420
6.676754
6.921873
7.046074
7.046149
6.922028
6.676689
6.333238
5.944696
5.573765
5.245539
4.911349
4.426910
3.564792
1.955468
0.009753
-5.000000
-5.000000
-5.000000
0.000000
0.000000
0.000000
0.000000
2.194964
3.439667
4.265416
4.704918
4.942917
5.097077
5.236514
5.385797
5.538788
5.674421
5.772889
5.823667
5.823696
5.772914
5.674170
5.537393
5.380630
5.220023
5.048942
4.813268
4.382067
3.545627
1.947967
0.009506
-5.000000
-5.000000
-5.000000
0.000000
0.000000
0.000000
0.000000
2.189996
3.429850
4.248022
4.673785
4.886044
4.995698
5.067631
5.129475
5.187440
5.237624
5.274166
5.293187
5.293187
5.274108
5.237251
5.185905
5.124179
5.051059
4.947576
4.756569
4.351365
3.529190
1.939820
0.009723
-5.000000
-5.000000
-5.000000
0.000000
0.000000
0.000000
0.000000
2.178343
3.409682
4.219533
4.636154
4.835783
4.926525
4.971684
5.000051
5.022119
5.039919
5.052652
5.059278
5.059262
5.052552
5.039487
5.020529
4.994739
4.955201
4.878710
4.707023
4.315148
3.503492
1.924191
0.009738
-5.000000
-5.000000
-5.000000
0.000000
0.000000
0.000000
0.000000
2.148293
3.359556
4.153499
4.558857
4.749465
4.831185
4.865837
4.882061
4.891469
4.897891
4.902194
4.904388
4.904367
4.902081
4.897447
4.889897
4.876867
4.849724
4.784300
4.622760
4.241896
3.445287
1.886451
0.009606
-5.000000
-5.000000
-5.000000
0.000000
0.000000
0.000000
0.000000
2.073950
3.237267
3.995742
4.379787
4.558229
4.632714
4.662118
4.673680
4.678714
4.681334
4.682837
4.683552
4.683531
4.682725
4.680913
4.677238
4.668796
4.646885
4.588072
4.436698
4.073421
3.308188
1.796411
0.009732
-5.000000
-5.000000
-5.000000
0.000000
0.000000
0.000000
0.000000
1.908376
2.968173
3.653000
3.995712
4.153168
4.217858
4.242615
4.251627
4.254937
4.256264
4.256863
4.257110
4.257091
4.256765
4.255897
4.253648
4.247338
4.229116
4.177858
4.042992
3.713771
3.014044
1.603278
0.009376
-5.000000
-5.000000
-5.000000
0.000000
0.000000
0.000000
0.000000
1.567835
2.422235
2.967992
3.237098
3.359322
3.408935
3.427622
3.434213
3.436461
3.437236
3.437519
3.437616
3.437601
3.437445
3.436957
3.435477
3.430911
3.417122
3.377425
3.271251
3.006691
2.437689
1.228186
0.009411
-5.000000
-5.000000
-5.000000
0.000000
0.000000
0.000000
0.000000
1.025004
1.567429
1.907811
2.073415
2.147789
2.177696
2.188852
2.192732
2.194017
2.194432
2.194567
2.194607
2.194598
2.194523
2.194266
2.193427
2.190740
2.182461
2.158290
2.092672
1.925968
1.559317
0.665022
0.008162
-5.000000
-5.000000
-5.000000
0.000000
0.000000
0.000000
0.000000
0.000000
0.000000
0.000000
0.000000
0.000000
0.000000
0.000000
0.000000
0.000000
0.000000
0.000000
0.000000
0.000000
0.000000
0.000000
0.000000
0.000000
0.000000
0.000000
0.000000
0.000000
0.000000
0.000000
0.000000
-5.000000
-5.000000
-5.000000
0.000000
0.000000
0.000000
0.000000
0.000000
0.000000
0.000000
0.000000
0.000000
0.000000
0.000000
0.000000
0.000000
0.000000
0.000000
0.000000
0.000000
0.000000
0.000000
0.000000
0.000000
0.000000
0.000000
0.000000
0.000000
0.000000
0.000000
0.000000
-5.000000
-5.000000
-5.000000
0.000000
0.000000
0.000000
0.000000
0.000000
0.000000
0.000000
0.000000
0.000000
0.000000
0.000000
0.000000
0.000000
0.000000
0.000000
0.000000
0.000000
0.000000
0.000000
0.000000
0.000000
0.000000
0.000000
0.000000
0.000000
0.000000
0.000000
0.000000
-5.000000
-5.000000
-5.000000
0.000000
0.000000
0.000000
0.000000
0.000000
0.000000
0.000000
0.000000
0.000000
0.000000
0.000000
0.000000
0.000000
0.000000
0.000000
0.000000
0.000000
0.000000
0.000000
0.000000
0.000000
0.000000
0.000000
0.000000
0.000000
0.000000
0.000000
0.000000
-5.000000
-5.000000
-5.000000
</DataArray>
</PointData>
<Cells>
<DataArray type='Int32' Name='connectivity' format='ascii'>
0
1
2
3
4
5
6
7
8
9
10
11
12
13
14
15
16
17
18
19
20
21
22
23
24
25
26
27
28
29
30
31
32
33
34
35
36
37
38
39
40
41
42
43
44
45
46
47
48
49
50
51
52
53
54
55
56
57
58
59
60
61
62
63
64
65
66
67
68
69
70
71
72
73
74
75
76
77
78
79
80
81
82
83
84
85
86
87
88
89
90
91
92
93
94
95
96
97
98
99
100
101
102
103
104
105
106
107
108
109
110
111
112
113
114
115
116
117
118
119
120
121
122
123
124
125
126
127
128
129
130
131
132
133
134
135
136
137
138
139
140
141
142
143
144
145
146
147
148
149
150
151
152
153
154
155
156
157
158
159
160
161
162
163
164
165
166
167
168
169
170
171
172
173
174
175
176
177
178
179
180
181
182
183
184
185
186
187
188
189
190
191
192
193
194
195
196
197
198
199
200
201
202
203
204
205
206
207
208
209
210
211
212
213
214
215
216
217
218
219
220
221
222
223
224
225
226
227
228
229
230
231
232
233
234
235
236
237
238
239
240
241
242
243
244
245
246
247
248
249
250
251
252
253
254
255
256
257
258
259
260
261
262
263
264
265
266
267
268
269
270
271
272
273
274
275
276
277
278
279
280
281
282
283
284
285
286
287
288
289
290
291
292
293
294
295
296
297
298
299
300
301
302
303
304
305
306
307
308
309
310
311
312
313
314
315
316
317
318
319
320
321
322
323
324
325
326
327
328
329
330
331
332
333
334
335
336
337
338
339
340
341
342
343
344
345
346
347
348
349
350
351
352
353
354
355
356
357
358
359
360
361
362
363
364
365
366
367
368
369
370
371
372
373
374
375
376
377
378
379
380
381
382
383
384
385
386
387
388
389
390
391
392
393
394
395
396
397
398
399
400
401
402
403
404
405
406
407
408
409
410
411
412
413
414
415
416
417
418
419
420
421
422
423
424
425
426
427
428
429
430
431
432
433
434
435
436
437
438
439
440
441
442
443
444
445
446
447
448
449
450
451
452
453
454
455
456
457
458
459
460
461
462
463
464
465
466
467
468
469
470
471
472
473
474
475
476
477
478
479
480
481
482
483
484
485
486
487
488
489
490
491
492
493
494
495
496
497
498
499
500
501
502
503
504
505
506
507
508
509
510
511
512
513
514
515
516
517
518
519
520
521
522
523
524
525
526
527
528
529
530
531
532
533
534
535
536
537
538
539
540
541
542
543
544
545
546
547
548
549
550
551
552
553
554
555
556
557
558
559
560
561
562
563
564
565
566
567
568
569
570
571
572
573
574
575
576
577
578
579
580
581
582
583
584
585
586
587
588
589
590
591
592
593
594
595
596
597
598
599
600
601
602
603
604
605
606
607
608
609
610
611
612
613
614
615
616
617
618
619
620
621
622
623
624
625
626
627
628
629
630
631
632
633
634
635
636
637
638
639
640
641
642
643
644
645
646
647
648
649
650
651
652
653
654
655
656
657
658
659
660
661
662
663
664
665
666
667
668
669
670
671
672
673
674
675
676
677
678
679
680
681
682
683
684
685
686
687
688
689
690
691
692
693
694
695
696
697
698
699
700
701
702
703
704
705
706
707
708
709
710
711
712
713
714
715
716
717
718
719
720
721
722
723
724
725
726
727
728
729
730
731
732
733
734
735
736
737
738
739
740
741
742
743
744
745
746
747
748
749
750
751
752
753
754
755
756
757
758
759
760
761
762
763
764
765
766
767
768
769