<?xml version='1.0' encoding='UTF-8'?>
<VTKFile xmlns='VTK' byte_order='LittleEndian' version='0.1' type='UnstructuredGrid'>
<UnstructuredGrid>
<Piece NumberOfCells='1488' NumberOfPoints='1488'>
<Points>
<DataArray NumberOfComponents='3' type='Float32' Name='Position' format='ascii'>
-0.075000 -0.075000 0.000000
-0.075000 -0.050000 0.000000
-0.075000 -0.025000 0.000000
-0.075000 0.000000 0.000000
-0.075000 0.025000 0.000000
-0.075000 0.050000 0.000000
-0.075000 0.075000 0.000000
-0.075000 0.100000 0.000000
-0.075000 0.125000 0.000000
-0.075000 0.150000 0.000000
-0.075000 0.175000 0.000000
-0.075000 0.200000 0.000000
-0.075000 0.225000 0.000000
-0.075000 0.250000 0.000000
-0.075000 0.275000 0.000000
-0.075000 0.300000 0.000000
-0.075000 0.325000 0.000000
-0.075000 0.350000 0.000000
-0.075000 0.375000 0.000000
-0.075000 0.400000 0.000000
-0.075000 0.425000 0.000000
-0.075000 0.450000 0.000000
-0.075000 0.475000 0.000000
-0.075000 0.500000 0.000000
-0.075000 0.525000 0.000000
-0.075000 0.550000 0.000000
-0.075000 0.575000 0.000000
-0.075000 0.600000 0.000000
-0.075000 0.625000 0.000000
-0.075000 0.650000 0.000000
-0.075000 0.675000 0.000000
-0.050000 -0.075000 0.000000
-0.050000 -0.050000 0.000000
-0.050000 -0.025000 0.000000
-0.050000 0.000000 0.000000
-0.050000 0.025000 0.000000
-0.050000 0.050000 0.000000
-0.050000 0.075000 0.000000
-0.050000 0.100000 0.000000
-0.050000 0.125000 0.000000
-0.050000 0.150000 0.000000
-0.050000 0.175000 0.000000
-0.050000 0.200000 0.000000
-0.050000 0.225000 0.000000
-0.050000 0.250000 0.000000
-0.050000 0.275000 0.000000
-0.050000 0.300000 0.000000
-0.050000 0.325000 0.000000
-0.050000 0.350000 0.000000
-0.050000 0.375000 0.000000
-0.050000 0.400000 0.000000
-0.050000 0.425000 0.000000
-0.050000 0.450000 0.000000
-0.050000 0.475000 0.000000
-0.050000 0.500000 0.000000
-0.050000 0.525000 0.000000
-0.050000 0.550000 0.000000
-0.050000 0.575000 0.000000
-0.050000 0.600000 0.000000
-0.050000 0.625000 0.000000
-0.050000 0.650000 0.000000
-0.050000 0.675000 0.000000
-0.025000 -0.075000 0.000000
-0.025000 -0.050000 0.000000
-0.025000 -0.025000 0.000000
-0.025000 0.000000 0.000000
-0.025000 0.025000 0.000000
-0.025000 0.050000 0.000000
-0.025000 0.075000 0.000000
-0.025000 0.100000 0.000000
-0.025000 0.125000 0.000000
-0.025000 0.150000 0.000000
-0.025000 0.175000 0.000000
-0.025000 0.200000 0.000000
-0.025000 0.225000 0.000000
-0.025000 0.250000 0.000000
-0.025000 0.275000 0.000000
-0.025000 0.300000 0.000000
-0.025000 0.325000 0.000000
-0.025000 0.350000 0.000000
-0.025000 0.375000 0.000000
-0.025000 0.400000 0.000000
-0.025000 0.425000 0.000000
-0.025000 0.450000 0.000000
-0.025000 0.475000 0.000000
-0.025000 0.500000 0.000000
-0.025000 0.525000 0.000000
-0.025000 0.550000 0.000000
-0.025000 0.575000 0.000000
-0.025000 0.600000 0.000000
-0.025000 0.625000 0.000000
-0.025000 0.650000 0.000000
-0.025000 0.675000 0.000000
0.000000 -0.075000 0.000000
0.000000 -0.050000 0.000000
0.000000 -0.025000 0.000000
0.000000 0.000000 0.000000
0.000000 0.025000 0.000000
0.000000 0.050000 0.000000
0.000000 0.075000 0.000000
0.000000 0.100000 0.000000
0.000000 0.125000 0.000000
0.000000 0.150000 0.000000
0.000000 0.175000 0.000000
0.000000 0.200000 0.000000
0.000000 0.225000 0.000000
0.000000 0.250000 0.000000
0.000000 0.275000 0.000000
0.000000 0.300000 0.000000
0.000000 0.325000 0.000000
0.000000 0.350000 0.000000
0.000000 0.375000 0.000000
0.000000 0.400000 0.000000
0.000000 0.425000 0.000000
0.000000 0.450000 0.000000
0.000000 0.475000 0.000000
0.000000 0.500000 0.000000
0.000000 0.525000 0.000000
0.000000 0.550000 0.000000
0.000000 0.575000 0.000000
0.000000 0.600000 0.000000
0.000000 0.625000 0.000000
0.000000 0.650000 0.000000
0.000000 0.675000 0.000000
0.025000 -0.075000 0.000000
0.025000 -0.050000 0.000000
0.025000 -0.025000 0.000000
0.025000 0.000000 0.000000
0.025000 0.025000 0.000000
0.025000 0.050000 0.000000
0.025000 0.075000 0.000000
0.025000 0.100000 0.000000
0.025000 0.125000 0.000000
0.025000 0.150000 0.000000
0.025000 0.175000 0.000000
0.025000 0.200000 0.000000
0.025000 0.225000 0.000000
0.025000 0.250000 0.000000
0.025000 0.275000 0.000000
0.025000 0.300000 0.000000
0.025000 0.325000 0.000000
0.025000 0.350000 0.000000
0.025000 0.375000 0.000000
0.025000 0.400000 0.000000
0.025000 0.425000 0.000000
0.025000 0.450000 0.000000
0.025000 0.475000 0.000000
0.025000 0.500000 0.000000
0.025000 0.525000 0.000000
0.025000 0.550000 0.000000
0.025000 0.575000 0.000000
0.025000 0.600000 0.000000
0.025000 0.625000 0.000000
0.025000 0.650000 0.000000
0.025000 0.675000 0.000000
0.050000 -0.075000 0.000000
0.050000 -0.050000 0.000000
0.050000 -0.025000 0.000000
0.050000 0.000000 0.000000
0.050000 0.025000 0.000000
0.050000 0.050000 0.000000
0.050000 0.075000 0.000000
0.050000 0.100000 0.000000
0.050000 0.125000 0.000000
0.050000 0.150000 0.000000
0.050000 0.175000 0.000000
0.050000 0.200000 0.000000
0.050000 0.225000 0.000000
0.050000 0.250000 0.000000
0.050000 0.275000 0.000000
0.050000 0.300000 0.000000
0.050000 0.325000 0.000000
0.050000 0.350000 0.000000
0.050000 0.375000 0.000000
0.050000 0.400000 0.000000
0.050000 0.425000 0.000000
0.050000 0.450000 0.000000
0.050000 0.475000 0.000000
0.050000 0.500000 0.000000
0.050000 0.525000 0.000000
0.050000 0.550000 0.000000
0.050000 0.575000 0.000000
0.050000 0.600000 0.000000
0.050000 0.625000 0.000000
0.050000 0.650000 0.000000
0.050000 0.675000 0.000000
0.075000 -0.075000 0.000000
0.075000 -0.050000 0.000000
0.075000 -0.025000 0.000000
0.075000 0.000000 0.000000
0.075000 0.025000 0.000000
0.075000 0.050000 0.000000
0.075000 0.075000 0.000000
0.075000 0.100000 0.000000
0.075000 0.125000 0.000000
0.075000 0.150000 0.000000
0.075000 0.175000 0.000000
0.075000 0.200000 0.000000
0.075000 0.225000 0.000000
0.075000 0.250000 0.000000
0.075000 0.275000 0.000000
0.075000 0.300000 0.000000
0.075000 0.325000 0.000000
0.075000 0.350000 0.000000
0.075000 0.375000 0.000000
0.075000 0.400000 0.000000
0.075000 0.425000 0.000000
0.075000 0.450000 0.000000
0.075000 0.475000 0.000000
0.075000 0.500000 0.000000
0.075000 0.525000 0.000000
0.075000 0.550000 0.000000
0.075000 0.575000 0.000000
0.075000 0.600000 0.000000
0.075000 0.625000 0.000000
0.075000 0.650000 0.000000
0.075000 0.675000 0.000000
0.100000 -0.075000 0.000000
0.100000 -0.050000 0.000000
0.100000 -0.025000 0.000000
0.100000 0.000000 0.000000
0.100000 0.025000 0.000000
0.100000 0.050000 0.000000
0.100000 0.075000 0.000000
0.100000 0.100000 0.000000
0.100000 0.125000 0.000000
0.100000 0.150000 0.000000
0.100000 0.175000 0.000000
0.100000 0.200000 0.000000
0.100000 0.225000 0.000000
0.100000 0.250000 0.000000
0.100000 0.275000 0.000000
0.100000 0.300000 0.000000
0.100000 0.325000 0.000000
0.100000 0.350000 0.000000
0.100000 0.375000 0.000000
0.100000 0.400000 0.000000
0.100000 0.425000 0.000000
0.100000 0.450000 0.000000
0.100000 0.475000 0.000000
0.100000 0.500000 0.000000
0.100000 0.525000 0.000000
0.100000 0.550000 0.000000
0.100000 0.575000 0.000000
0.100000 0.600000 0.000000
0.100000 0.625000 0.000000
0.100000 0.650000 0.000000
0.100000 0.675000 0.000000
0.125000 -0.075000 0.000000
0.125000 -0.050000 0.000000
0.125000 -0.025000 0.000000
0.125000 0.000000 0.000000
0.125000 0.025000 0.000000
0.125000 0.050000 0.000000
0.125000 0.075000 0.000000
0.125000 0.100000 0.000000
0.125000 0.125000 0.000000
0.125000 0.150000 0.000000
0.125000 0.175000 0.000000
0.125000 0.200000 0.000000
0.125000 0.225000 0.000000
0.125000 0.250000 0.000000
0.125000 0.275000 0.000000
0.125000 0.300000 0.000000
0.125000 0.325000 0.000000
0.125000 0.350000 0.000000
0.125000 0.375000 0.000000
0.125000 0.400000 0.000000
0.125000 0.425000 0.000000
0.125000 0.450000 0.000000
0.125000 0.475000 0.000000
0.125000 0.500000 0.000000
0.125000 0.525000 0.000000
0.125000 0.550000 0.000000
0.125000 0.575000 0.000000
0.125000 0.600000 0.000000
0.125000 0.625000 0.000000
0.125000 0.650000 0.000000
0.125000 0.675000 0.000000
0.150000 -0.075000 0.000000
0.150000 -0.050000 0.000000
0.150000 -0.025000 0.000000
0.150000 0.000000 0.000000
0.150000 0.025000 0.000000
0.150000 0.050000 0.000000
0.150000 0.075000 0.000000
0.150000 0.100000 0.000000
0.150000 0.125000 0.000000
0.150000 0.150000 0.000000
0.150000 0.175000 0.000000
0.150000 0.200000 0.000000
0.150000 0.225000 0.000000
0.150000 0.250000 0.000000
0.150000 0.275000 0.000000
0.150000 0.300000 0.000000
0.150000 0.325000 0.000000
0.150000 0.350000 0.000000
0.150000 0.375000 0.000000
0.150000 0.400000 0.000000
0.150000 0.425000 0.000000
0.150000 0.450000 0.000000
0.150000 0.475000 0.000000
0.150000 0.500000 0.000000
0.150000 0.525000 0.000000
0.150000 0.550000 0.000000
0.150000 0.575000 0.000000
0.150000 0.600000 0.000000
0.150000 0.625000 0.000000
0.150000 0.650000 0.000000
0.150000 0.675000 0.000000
0.175000 -0.075000 0.000000
0.175000 -0.050000 0.000000
0.175000 -0.025000 0.000000
0.175000 0.000000 0.000000
0.175000 0.025000 0.000000
0.175000 0.050000 0.000000
0.175000 0.075000 0.000000
0.175000 0.100000 0.000000
0.175000 0.125000 0.000000
0.175000 0.150000 0.000000
0.175000 0.175000 0.000000
0.175000 0.200000 0.000000
0.175000 0.225000 0.000000
0.175000 0.250000 0.000000
0.175000 0.275000 0.000000
0.175000 0.300000 0.000000
0.175000 0.325000 0.000000
0.175000 0.350000 0.000000
0.175000 0.375000 0.000000
0.175000 0.400000 0.000000
0.175000 0.425000 0.000000
0.175000 0.450000 0.000000
0.175000 0.475000 0.000000
0.175000 0.500000 0.000000
0.175000 0.525000 0.000000
0.175000 0.550000 0.000000
0.175000 0.575000 0.000000
0.175000 0.600000 0.000000
0.175000 0.625000 0.000000
0.175000 0.650000 0.000000
0.175000 0.675000 0.000000
0.200000 -0.075000 0.000000
0.200000 -0.050000 0.000000
0.200000 -0.025000 0.000000
0.200000 0.000000 0.000000
0.200000 0.025000 0.000000
0.200000 0.050000 0.000000
0.200000 0.075000 0.000000
0.200000 0.100000 0.000000
0.200000 0.125000 0.000000
0.200000 0.150000 0.000000
0.200000 0.175000 0.000000
0.200000 0.200000 0.000000
0.200000 0.225000 0.000000
0.200000 0.250000 0.000000
[...]
<PointData>
<DataArray NumberOfComponents='1' type='Int32' Name='ParticleType' format='ascii'>
4
4
4
4
4
4
4
4
4
4
4
4
4
4
4
4
4
4
4
4
4
4
4
4
4
4
4
4
2
2
2
4
4
4
4
4
4
4
4
4
4
4
4
4
4
4
4
4
4
4
4
4
4
4
4
4
4
4
4
2
2
2
4
4
3
3
3
3
3
3
3
3
3
3
3
3
3
3
3
3
3
3
3
3
3
3
3
3
3
3
2
2
2
4
4
3
3
3
3
3
3
3
3
3
3
3
3
3
3
3
3
3
3
3
3
3
3
3
3
3
3
2
2
2
4
4
3
3
0
0
0
0
0
0
0
0
0
0
0
0
0
0
0
0
0
0
0
0
0
0
0
1
2
2
2
4
4
3
3
0
0
0
0
0
0
0
0
0
0
0
0
0
0
0
0
0
0
0
0
0
0
0
1
2
2
2
4
4
3
3
0
0
0
0
0
0
0
0
0
0
0
0
0
0
0
0
0
0
0
0
0
0
0
1
2
2
2
4
4
3
3
0
0
0
0
0
0
0
0
0
0
0
0
0
0
0
0
0
0
0
0
0
0
0
1
2
2
2
4
4
3
3
0
0
0
0
0
0
0
0
0
0
0
0
0
0
0
0
0
0
0
0
0
0
0
1
2
2
2
4
4
3
3
0
0
0
0
0
0
0
0
0
0
0
0
0
0
0
0
0
0
0
0
0
0
0
1
2
2
2
4
4
3
3
0
0
0
0
0
0
0
0
0
0
0
0
0
0
0
0
0
0
0
0
0
0
0
1
2
2
2
4
4
3
3
0
0
0
0
0
0
0
0
0
0
0
0
0
0
0
0
0
0
0
0
0
0
0
1
2
2
2
4
4
3
3
0
0
0
0
0
0
0
0
0
0
0
0
0
0
0
0
0
0
0
0
0
0
0
1
2
2
2
4
4
3
3
0
0
0
0
0
0
0
0
0
0
0
0
0
0
0
0
0
0
0
0
0
0
0
1
2
2
2
4
4
3
3
0
0
0
0
0
0
0
0
0
0
0
0
0
0
0
0
0
0
0
0
0
0
0
1
2
2
2
4
4
3
3
0
0
0
0
0
0
0
0
0
0
0
0
0
0
0
0
0
0
0
0
0
0
0
1
2
2
2
4
4
3
3
0
0
0
0
0
0
0
0
0
0
0
0
0
0
0
0
0
0
0
0
0
0
0
1
2
2
2
4
4
3
3
0
0
0
0
0
0
0
0
0
0
0
0
0
0
0
0
0
0
0
0
0
0
0
1
2
2
2
4
4
3
3
0
0
0
0
0
0
0
0
0
0
0
0
0
0
0
0
0
0
0
0
0
0
0
1
2
2
2
4
4
3
3
0
0
0
0
0
0
0
0
0
0
0
0
0
0
0
0
0
0
0
0
0
0
0
1
2
2
2
4
4
3
3
0
0
0
0
0
0
0
0
0
0
0
0
0
0
0
0
0
0
0
0
0
0
0
1
2
2
2
4
4
3
3
0
0
0
0
0
0
0
0
0
0
0
0
0
0
0
0
0
0
0
0
0
0
0
1
2
2
2
4
4
3
3
0
0
0
0
0
0
0
0
0
0
0
0
0
0
0
0
0
0
0
0
0
0
0
1
2
2
2
4
4
3
3
0
0
0
0
0
0
0
0
0
0
0
0
0
0
0
0
0
0
0
0
0
0
0
1
2
2
2
4
4
3
3
0
0
0
0
0
0
0
0
0
0
0
0
0
0
0
0
0
0
0
0
0
0
0
1
2
2
2
4
4
3
3
0
0
0
0
0
0
0
0
0
0
0
0
0
0
0
0
0
0
0
0
0
0
0
1
2
2
2
4
4
3
3
0
0
0
0
0
0
0
0
0
0
0
0
0
0
0
0
0
0
0
0
0
0
0
1
2
2
2
4
4
3
3
0
0
0
0
0
0
0
0
0
0
0
0
0
0
0
0
0
0
0
0
0
0
0
1
2
2
2
4
4
3
3
0
0
0
0
0
0
0
0
0
0
0
0
0
0
0
0
0
0
0
0
0
0
0
1
2
2
2
4
4
3
3
0
0
0
0
0
0
0
0
0
0
0
0
0
0
0
0
0
0
0
0
0
0
0
1
2
2
2
4
4
3
3
0
0
0
0
0
0
0
0
0
0
0
0
0
0
0
0
0
0
0
0
0
0
0
1
2
2
2
4
4
3
3
0
0
0
0
0
0
0
0
0
0
0
0
0
0
0
0
0
0
0
0
0
0
0
1
2
2
2
4
4
3
3
0
0
0
0
0
0
0
0
0
0
0
0
0
0
0
0
0
0
0
0
0
0
0
1
2
2
2
4
4
3
3
0
0
0
0
0
0
0
0
0
0
0
0
0
0
0
0
0
0
0
0
0
0
0
1
2
2
2
4
4
3
3
0
0
0
0
0
0
0
0
0
0
0
0
0
0
0
0
0
0
0
0
0
0
0
1
2
2
2
4
4
3
3
0
0
0
0
0
0
0
0
0
0
0
0
0
0
0
0
0
0
0
0
0
0
0
1
2
2
2
4
4
3
3
0
0
0
0
0
0
0
0
0
0
0
0
0
0
0
0
0
0
0
0
0
0
0
1
2
2
2
4
4
3
3
0
0
0
0
0
0
0
0
0
0
0
0
0
0
0
0
0
0
0
0
0
0
0
1
2
2
2
4
4
3
3
0
0
0
0
0
0
0
0
0
0
0
0
0
0
0
0
0
0
0
0
0
0
0
1
2
2
2
4
4
3
3
0
0
0
0
0
0
0
0
0
0
0
0
0
0
0
0
0
0
0
0
0
0
0
1
2
2
2
4
4
3
3
0
0
0
0
0
0
0
0
0
0
0
0
0
0
0
0
0
0
0
0
0
0
0
1
2
2
2
4
4
3
3
0
0
0
0
0
0
0
0
0
0
0
0
0
0
0
0
0
0
0
0
0
0
0
1
2
2
2
4
4
3
3
0
0
0
0
0
0
0
0
0
0
0
0
0
0
0
0
0
0
0
0
0
0
0
1
2
2
2
4
4
3
3
0
0
0
0
0
0
0
0
0
0
0
0
0
0
0
0
0
0
0
0
0
0
0
1
2
2
2
4
4
3
3
3
3
3
3
3
3
3
3
3
3
3
3
3
3
3
3
3
3
3
3
3
3
3
3
2
2
2
4
4
3
3
3
3
3
3
3
3
3
3
3
3
3
3
3
3
3
3
3
3
3
3
3
3
3
3
2
2
2
4
4
4
4
4
4
4
4
4
4
4
4
4
4
4
4
4
4
4
4
4
4
4
4
4
4
4
4
2
2
2
4
4
4
4
4
4
4
4
4
4
4
4
4
4
4
4
4
4
4
4
4
4
4
4
4
4
4
4
2
2
2
</DataArray>
<DataArray NumberOfComponents='1' type='Float32' Name='Temperature' format='ascii'>
0.000000
0.000000
0.000000
0.000000
0.000000
0.000000
0.000000
0.000000
0.000000
0.000000
0.000000
0.000000
0.000000
0.000000
0.000000
0.000000
0.000000
0.000000
0.000000
0.000000
0.000000
0.000000
0.000000
0.000000
0.000000
0.000000
0.000000
0.000000
-5.000000
-5.000000
-5.000000
0.000000
0.000000
0.000000
0.000000
0.000000
0.000000
0.000000
0.000000
0.000000
0.000000
0.000000
0.000000
0.000000
0.000000
0.000000
0.000000
0.000000
0.000000
0.000000
0.000000
0.000000
0.000000
0.000000
0.000000
0.000000
0.000000
0.000000
0.000000
-5.000000
-5.000000
-5.000000
0.000000
0.000000
0.000000
0.000000
0.000000
0.000000
0.000000
0.000000
0.000000
0.000000
0.000000
0.000000
0.000000
0.000000
0.000000
0.000000
0.000000
0.000000
0.000000
0.000000
0.000000
0.000000
0.000000
0.000000
0.000000
0.000000
0.000000
0.000000
-5.000000
-5.000000
-5.000000
0.000000
0.000000
0.000000
0.000000
0.000000
0.000000
0.000000
0.000000
0.000000
0.000000
0.000000
0.000000
0.000000
0.000000
0.000000
0.000000
0.000000
0.000000
0.000000
0.000000
0.000000
0.000000
0.000000
0.000000
0.000000
0.000000
0.000000
0.000000
-5.000000
-5.000000
-5.000000
0.000000
0.000000
0.000000
0.000000
0.524531
0.877946
1.159233
1.347399
1.463901
1.530162
1.565438
1.583258
1.591969
1.596160
1.598116
1.598834
1.598608
1.597211
1.593729
1.585942
1.569096
1.533897
1.463748
1.332760
1.101188
0.745007
0.019643
0.007542
-5.000000
-5.000000
-5.000000
0.000000
0.000000
0.000000
0.000000
0.877956
1.470542
1.944801
2.263468
2.461875
2.575555
2.636786
2.668358
2.684347
2.692467
2.696512
2.698113
2.697724
2.694959
2.688302
2.674058
2.644279
2.583446
2.464046
2.244000
1.861702
1.286561
0.308865
0.007795
-5.000000
-5.000000
-5.000000
0.000000
0.000000
0.000000
0.000000
1.159459
1.945196
2.576698
3.003678
3.271687
3.427210
3.512873
3.558871
3.583787
3.597663
3.605285
3.608596
3.608067
3.603177
3.592021
3.569903
3.526539
3.441694
3.279596
2.986174
2.486416
1.742056
0.568182
0.008104
-5.000000
-5.000000
-5.000000
0.000000
0.000000
0.000000
0.000000
1.348344
2.265273
3.005762
3.510347
3.830984
4.021244
4.130525
4.193707
4.231885
4.255972
4.270708
4.277674
4.277043
4.268194
4.249261
4.215426
4.155560
4.047041
3.849387
3.501412
2.920768
2.063723
0.755995
0.008111
-5.000000
-5.000000
-5.000000
0.000000
0.000000
0.000000
0.000000
1.466557
2.467224
3.279716
3.839219
4.201868
4.425705
4.564070
4.653896
4.716364
4.761070
4.790913
4.805862
4.805165
4.788134
4.753654
4.698211
4.611976
4.472752
4.238772
3.845542
3.206530
2.273876
0.878858
0.008165
-5.000000
-5.000000
-5.000000
0.000000
0.000000
0.000000
0.000000
1.536310
2.588451
3.448857
4.050946
4.454468
4.720754
4.905055
5.043576
5.154117
5.241252
5.302732
5.334542
5.333811
5.299810
5.233432
5.134972
4.999444
4.809200
4.525231
4.083137
3.394322
2.407478
0.955489
0.008470
-5.000000
-5.000000
-5.000000
0.000000
0.000000
0.000000
0.000000
1.577998
2.664008
3.561685
4.206339
4.662661
4.995790
5.261708
5.492496
5.697031
5.868268
5.992746
6.058169
6.057428
5.989767
5.860257
5.677377
5.447194
5.163439
4.795716
4.283410
3.537053
2.501185
1.006461
0.008514
-5.000000
-5.000000
-5.000000
0.000000
0.000000
0.000000
0.000000
1.606552
2.720187
3.656082
4.355838
4.892672
5.338171
5.748851
6.148031
6.526510
6.854128
7.095709
7.223492
7.222751
7.092716
6.846039
6.506619
6.102161
5.649395
5.135834
4.509421
3.679993
2.585147
1.048416
0.008287
-5.000000
-5.000000
-5.000000
0.000000
0.000000
0.000000
0.000000
1.631687
2.774602
3.758716
4.537651
5.199426
5.827497
6.480175
7.165765
7.842644
8.438921
8.881099
9.115291
9.114543
8.878073
8.430747
7.822578
7.119569
6.380115
5.624043
4.814136
3.858230
2.681370
1.093080
0.008592
-5.000000
-5.000000
-5.000000
0.000000
0.000000
0.000000
0.000000
1.658838
2.837295
3.885344
4.775709
5.620102
6.522403
7.546144
8.677219
9.821559
10.838553
11.593346
11.992472
11.991680
11.590183
10.830140
9.801165
8.630632
7.445620
6.318286
5.233626
4.093981
2.803074
1.147252
0.008394
-5.000000
-5.000000
-5.000000
0.000000
0.000000
0.000000
0.000000
1.690090
2.911778
4.040761
5.076311
6.163962
7.438673
8.975239
10.730589
12.534309
14.143796
15.335738
15.963901
15.963009
15.332264
14.134859
12.513244
10.683313
8.874100
7.233955
5.776578
4.392700
2.953853
1.213000
0.008573
-5.000000
-5.000000
-5.000000
0.000000
0.000000
0.000000
0.000000
1.724923
2.995962
4.219014
5.425777
6.804004
8.529219
10.694370
13.223277
15.849663
18.195647
19.927451
20.836605
20.835555
19.923484
18.185882
15.827541
13.174943
10.592368
8.323808
6.415754
4.740374
3.127373
1.287912
0.008495
-5.000000
-5.000000
-5.000000
0.000000
0.000000
0.000000
0.000000
1.761040
3.083673
4.405670
5.793416
7.480189
9.686020
12.525065
15.888201
19.412100
22.553257
24.865343
26.075771
26.074538
24.860804
22.542514
19.388700
15.838596
12.422073
9.479874
7.091092
5.106267
3.309286
1.366184
0.008178
-5.000000
-5.000000
-5.000000
0.000000
0.000000
0.000000
0.000000
1.795393
3.167025
4.582766
6.141440
8.118495
10.774460
14.241582
18.377614
22.723454
26.600479
29.451997
30.943207
30.941817
29.446968
26.588914
22.699008
18.326973
14.137767
10.567693
7.728647
5.452676
3.481914
1.440610
0.008598
-5.000000
-5.000000
-5.000000
0.000000
0.000000
0.000000
0.000000
1.825252
3.239098
4.734857
6.437955
8.657586
11.685248
15.664348
20.423656
25.427829
29.896436
33.184465
34.904397
34.902909
33.179132
29.884363
25.402744
20.372389
15.560033
11.478079
8.267158
5.747810
3.630101
1.504863
0.008524
-5.000000
-5.000000
-5.000000
0.000000
0.000000
0.000000
0.000000
1.848970
3.295859
4.853338
6.666105
9.066946
12.367637
16.716657
21.920298
27.390822
32.279204
35.879186
37.763718
37.762191
35.873731
32.266927
27.365483
21.868786
16.612150
12.160283
8.676123
5.974872
3.745429
1.555318
0.008670
-5.000000
-5.000000
-5.000000
0.000000
0.000000
0.000000
0.000000
1.866195
3.336638
4.937297
6.825332
9.348151
12.829161
17.418368
22.906874
28.674467
33.830431
37.630256
39.620813
39.619285
37.624796
33.818139
28.649109
22.855352
17.313861
12.621766
8.957086
6.133306
3.827049
1.591417
0.008264
-5.000000
-5.000000
-5.000000
0.000000
0.000000
0.000000
0.000000
1.877590
3.363292
4.991356
6.926181
9.523314
13.112120
17.842592
23.496678
29.435898
34.746404
38.662039
40.714291
40.712779
38.656622
34.734176
29.410617
23.445241
17.738162
12.904750
9.132114
6.233626
3.879526
1.614934
0.008705
-5.000000
-5.000000
-5.000000
0.000000
0.000000
0.000000
0.000000
1.884280
3.378764
5.022292
6.983006
9.620505
13.266881
18.071741
23.812140
29.840344
35.230901
39.206644
41.291006
41.289510
39.201274
35.218742
29.815147
23.760791
17.967388
13.059548
9.229235
6.290135
3.909512
1.628525
0.008572
-5.000000
-5.000000
-5.000000
0.000000
0.000000
0.000000
0.000000
1.887325
3.385744
5.036097
7.008070
9.662881
13.333642
18.169689
23.946011
30.011100
35.434805
39.435464
41.533155
41.531669
39.430120
35.422686
29.985952
23.894713
18.065381
13.126333
9.271581
6.315052
3.922877
1.634639
0.008650
-5.000000
-5.000000
-5.000000
0.000000
0.000000
0.000000
0.000000
1.887343
3.385783
5.036164
7.008174
9.663034
13.333852
18.169964
23.946351
30.011503
35.435262
39.435960
41.533673
41.532186
39.430616
35.423143
29.986354
23.895053
18.065655
13.126543
9.271734
6.315155
3.922940
1.634672
0.008651
-5.000000
-5.000000
-5.000000
0.000000
0.000000
0.000000
0.000000
1.884338
3.378882
5.022496
6.983323
9.620965
13.267505
18.072543
23.813121
29.841492
35.232192
39.208042
41.292460
41.290964
39.202671
35.220033
29.816294
23.761772
17.968190
13.060172
9.229693
6.290447
3.909706
1.628625
0.008575
-5.000000
-5.000000
-5.000000
0.000000
0.000000
0.000000
0.000000
1.877690
3.363496
4.991704
6.926714
9.524069
13.113116
17.843828
23.498136
29.437549
34.748217
38.663972
40.716290
40.714778
38.658555
34.735988
29.412268
23.446698
17.739397
12.905745
9.132866
6.234151
3.879856
1.615107
0.008714
-5.000000
-5.000000
-5.000000
0.000000
0.000000
0.000000
0.000000
1.866341
3.336933
4.937792
6.826069
9.349151
12.830405
17.419796
22.908412
28.676057
33.832046
37.631891
39.622463
39.620935
37.626430
33.819753
28.650697
22.856889
17.315288
12.623007
8.958081
6.134031
3.827518
1.591667
0.008280
-5.000000
-5.000000
-5.000000
0.000000
0.000000
0.000000
0.000000
1.849162
3.296243
4.853966
6.667005
9.068087
12.368904
16.717861
21.921246
27.391400
32.279420
35.879142
37.763546
37.762018
35.873685
32.267141
27.366058
21.869732
16.613351
12.161546
8.677257
5.975757
3.746024
1.555643
0.008698
-5.000000
-5.000000
-5.000000
0.000000
0.000000
0.000000
0.000000
1.825486
3.239558
4.735592
6.438955
8.658732
11.686267
15.664842
20.423240
25.426302
29.893878
33.181167
34.900728
34.899239
33.175832
29.881803
25.401216
20.371970
15.560524
11.479093
8.268295
5.748791
3.630795
1.505253
0.008559
-5.000000
-5.000000
-5.000000
0.000000
0.000000
0.000000
0.000000
1.795658
3.167542
4.583571
6.142479
8.119547
10.775068
14.241100
18.375423
22.719252
26.594437
29.444644
30.935202
30.933811
29.439614
26.582871
22.694804
18.324780
14.137282
10.568295
7.729689
5.453694
3.482671
1.441047
0.008652
-5.000000
-5.000000
-5.000000
0.000000
0.000000
0.000000
0.000000
1.761323
3.084222
4.406510
5.794464
7.481151
9.686310
12.523856
15.884693
19.405905
22.544628
24.854996
26.064572
26.063339
24.850455
22.533884
19.382503
15.835087
12.420861
9.480159
7.092043
5.107291
3.310075
1.366646
0.008240
-5.000000
-5.000000
-5.000000
0.000000
0.000000
0.000000
0.000000
1.725210
2.996517
4.219861
5.426835
6.804978
8.529522
10.693175
13.219783
15.843482
18.187033
19.917119
20.825422
20.824372
19.913151
18.177267
15.821359
13.171447
10.591169
8.324105
6.416715
4.741407
3.128168
1.288377
0.008548
-5.000000
-5.000000
-5.000000
0.000000
0.000000
0.000000
0.000000
1.690367
2.912315
4.041593
5.077385
6.165054
7.439326
8.974805
10.728449
12.530159
14.137807
15.328440
15.955951
15.955059
15.324965
14.128869
12.509092
10.681170
8.873662
7.234599
5.777657
4.393748
2.954633
1.213449
0.008619
-5.000000
-5.000000
-5.000000
0.000000
0.000000
0.000000
0.000000
1.659097
2.837801
3.886141
4.776786
5.621337
6.523520
7.546744
8.676914
9.820150
10.836115
11.590170
11.988926
11.988134
11.587005
10.827700
9.799752
8.630324
7.446214
6.319393
5.234845
4.095029
2.803817
1.147670
0.008437
-5.000000
-5.000000
-5.000000
0.000000
0.000000
0.000000
0.000000
1.631928
2.775072
3.759464
4.538701
5.200741
5.828957
6.481588
7.166934
7.843453
8.439375
8.881298
9.115364
9.114615
8.878270
8.431199
7.823383
7.120732
6.381519
5.625490
4.815430
3.859245
2.682060
1.093462
0.008618
-5.000000
-5.000000
-5.000000
0.000000
0.000000
0.000000
0.000000
1.606785
2.720634
3.656789
4.356841
4.893983
5.339762
5.750658
6.149972
6.528522
6.856181
7.097794
7.225597
7.224856
7.094799
6.848090
6.508626
6.104094
5.651188
5.137404
4.510699
3.680949
2.585784
1.048769
0.008320
-5.000000
-5.000000
-5.000000
0.000000
0.000000
0.000000
0.000000
1.578235
2.664453
3.562374
4.207302
4.663922
4.997358
5.263572
5.494629
5.699399
5.870829
5.995450
6.060949
6.060207
5.992468
5.862814
5.679738
5.449314
5.165282
4.797250
4.284621
3.537947
2.501784
1.006802
0.008558
-5.000000
-5.000000
-5.000000
0.000000
0.000000
0.000000
0.000000
1.536557
2.588908
3.449547
4.051885
4.455673
4.722235
4.906811
5.045597
5.156379
5.243717
5.305345
5.337233
5.336502
5.302420
5.235891
5.137223
5.001444
4.810921
4.526656
4.084263
3.395158
2.408050
0.955829
0.008556
-5.000000
-5.000000
-5.000000
0.000000
0.000000
0.000000
0.000000
1.466797
2.467667
3.280380
3.840111
4.202992
4.427059
4.565647
4.655684
4.718341
4.763204
4.793160
4.808169
4.807471
4.790379
4.755779
4.700171
4.613733
4.474277
4.240044
3.846550
3.207277
2.274386
0.879173
0.008370
-5.000000
-5.000000
-5.000000
0.000000
0.000000
0.000000
0.000000
1.348525
2.265618
3.006299
3.511086
3.831926
4.022377
4.131832
4.195167
4.233478
4.257672
4.272483
4.279487
4.278855
4.269964
4.250950
4.216996
4.156979
4.048275
3.850407
3.502197
2.921317
2.064067
0.756198
0.008462
-5.000000
-5.000000
-5.000000
0.000000
0.000000
0.000000
0.000000
1.159501
1.945317
2.576948
3.004091
3.272272
3.427954
3.513753
3.559863
3.584868
3.598812
3.606481
3.609814
3.609283
3.604366
3.593157
3.570957
3.527481
3.442487
3.280204
2.986572
2.486606
1.742087
0.568132
0.007945
-5.000000
-5.000000
-5.000000
0.000000
0.000000
0.000000
0.000000
0.877820
1.470370
1.944672
2.263445
2.461983
2.575788
2.637124
2.668776
2.684824
2.692985
2.697057
2.698670
2.698280
2.695499
2.688807
2.674507
2.644645
2.583695
2.464142
2.243921
1.861463
1.286218
0.308527
0.007844
-5.000000
-5.000000
-5.000000
0.000000
0.000000
0.000000
0.000000
0.524280
0.877579
1.158838
1.347051
1.463633
1.529978
1.565323
1.583194
1.591940
1.596155
1.598124
1.598849
1.598622
1.597216
1.593714
1.585893
1.568992
1.533712
1.463457
1.332349
1.100677
0.744456
0.019131
0.006136
-5.000000
-5.000000
-5.000000
0.000000
0.000000
0.000000
0.000000
0.000000
0.000000
0.000000
0.000000
0.000000
0.000000
0.000000
0.000000
0.000000
0.000000
0.000000
0.000000
0.000000
0.000000
0.000000
0.000000
0.000000
0.000000
0.000000
0.000000
0.000000
0.000000
0.000000
0.000000
-5.000000
-5.000000
-5.000000
0.000000
0.000000
0.000000
0.000000
0.000000
0.000000
0.000000
0.000000
0.000000
0.000000
0.000000
0.000000
0.000000
0.000000
0.000000
0.000000
0.000000
0.000000
0.000000
0.000000
0.000000
0.000000
0.000000
0.000000
0.000000
0.000000
0.000000
0.000000
-5.000000
-5.000000
-5.000000
0.000000
0.000000
0.000000
0.000000
0.000000
0.000000
0.000000
0.000000
0.000000
0.000000
0.000000
0.000000
0.000000
0.000000
0.000000
0.000000
0.000000
0.000000
0.000000
0.000000
0.000000
0.000000
0.000000
0.000000
0.000000
0.000000
0.000000
0.000000
-5.000000
-5.000000
-5.000000
0.000000
0.000000
0.000000
0.000000
0.000000
0.000000
0.000000
0.000000
0.000000
0.000000
0.000000
0.000000
0.000000
0.000000
0.000000
0.000000
0.000000
0.000000
0.000000
0.000000
0.000000
0.000000
0.000000
0.000000
0.000000
0.000000
0.000000
0.000000
-5.000000
-5.000000
-5.000000
</DataArray>
</PointData>
<Cells>
<DataArray type='Int32' Name='connectivity' format='ascii'>
0
1
2
3
4
5
6
7
8
9
10
11
12
13
14
15
16
17
18
19
20
21
22
23
24
25
26
27
28
29
30
31
32
33
34
35
36
37
38
39
40
41
42
43
44
45
46
47
48
49
50
51
52
53
54
55
56
57
58
59
60
61
62
63
64
65
66
67
68
69
70
71
72
73
74
75
76
77
78
79
80
81
82
83
84
85
86
87
88
89
90
91
92
93
94
95
96
97
98
99
100
101
102
103
104
105
106
107
108
109
110
111
112
113
114
115
116
117
118
119
120
121
122
123
124
125
126
127
128
129
130
131
132
133
134
135
136
137
138
139
140
141
142
143
144
145
146
147
148
149
150
151
152
153
154
155
156
157
158
159
160
161
162
163
164
165
166
167
168
169
170
171
172
173
174
175
176
177
178
179
180
181
182
183
184
185
186
187
188
189
190
191
192
193
194
195
196
197
198
199
200
201
202
203
204
205
206
207
208
209
210
211
212
213
214
215
216
217
218
219
220
221
222
223
224
225
226
227
228
229
230
231
232
233
234
235
236
237
238
239
240
241
242
243
244
245
246
247
248
249
250
251
252
253
254
255
256
257
258
259
260
261
262
263
264
265
266
267
268
269
270
271
272
273
274
275
276
277
278
279
280
281
282
283
284
285
286
287
288
289
290
291
292
293
294
295
296
297
298
299
300
301
302
303
304
305
306
307
308
309
310
311
312
313
314
315
316
317
318
319
320
321
322
323
324
325
326
327
328
329
330
331
332
333
334
335
336
337
338
339
340
341
342
343
344
345
346
347
348
349
350
351
352
353
354
355
356
357
358
359
360
361
362
363
364
365
366
367
368
369
370
371
372
373
374
375
376
377
378
379
380
381
382
383
384
385
386
387
388
389
390
391
392
393
394
395
396
397
398
399
400
401
402
403
404
405
406
407
408
409
410
411
412
413
414
415
416
417
418
419
420
421
422
423
424
425
426
427
428
429
430
431
432
433
434
435
436
437
438
439
440
441
442
443
444
445
446
447
448
449
450
451
452
453
454
455
456
457
458
459
460
461
462
463
464
465
466
467
468
469
470
471
472
473
474
475
476
477
478
479
480
481
482
483
484
485
486
487
488
489
490
491
492
493
494
495
496
497
498
499
500
501
502
503
504
505
506
507
508
509
510
511
512
513
514
515
516
517
518
519
520
521
522
523
524
525
526
527
528
529
530
531
532
533
534
535
536
537
538
539
540
541
542
543
544
545
546
547
548
549
550
551
552
553
554
555
556
557
558
559
560
561
562
563
564
565
566
567
568
569
570
571
572
573
574
575
576
577
578
579
580
581
582
583
584
585
586
587
588
589
590
591
592
593
594
595
596
597
598
599
600
601
602
603
604
605
606
607
608
609
610
611
612
613
614
615
616
617
618
619
620
621
622
623
624
625
626
627
628
629
630
631
632
633
634
635
636
637
638
639
640
641
642
643
644
645
646
647
648
649
650
651
652
653
654
655
656
657
658
659
660
661
662
663
664
665
666
667
668
669
670
671
672
673
674
675
676
677
678
679
680
681
682
683
684
685
686
687
688
689
690
691
692
693
694
695
696
697
698
699
700
701
702
703
704
705
706
707
708
709
710
711
712
713
714
715
716
717
718
719
720
721
722
723
724
725
726
727
728
729
730
731
732
733
734
735
736
737
738
739
740
741
742
743
744
745
746
747
748
749
750
751
752
753
754
755
756
757
758