<?xml version='1.0' encoding='UTF-8'?>
<VTKFile xmlns='VTK' byte_order='LittleEndian' version='0.1' type='UnstructuredGrid'>
<UnstructuredGrid>
<Piece NumberOfCells='1488' NumberOfPoints='1488'>
<Points>
<DataArray NumberOfComponents='3' type='Float32' Name='Position' format='ascii'>
-0.075000 -0.075000 0.000000
-0.075000 -0.050000 0.000000
-0.075000 -0.025000 0.000000
-0.075000 0.000000 0.000000
-0.075000 0.025000 0.000000
-0.075000 0.050000 0.000000
-0.075000 0.075000 0.000000
-0.075000 0.100000 0.000000
-0.075000 0.125000 0.000000
-0.075000 0.150000 0.000000
-0.075000 0.175000 0.000000
-0.075000 0.200000 0.000000
-0.075000 0.225000 0.000000
-0.075000 0.250000 0.000000
-0.075000 0.275000 0.000000
-0.075000 0.300000 0.000000
-0.075000 0.325000 0.000000
-0.075000 0.350000 0.000000
-0.075000 0.375000 0.000000
-0.075000 0.400000 0.000000
-0.075000 0.425000 0.000000
-0.075000 0.450000 0.000000
-0.075000 0.475000 0.000000
-0.075000 0.500000 0.000000
-0.075000 0.525000 0.000000
-0.075000 0.550000 0.000000
-0.075000 0.575000 0.000000
-0.075000 0.600000 0.000000
-0.075000 0.625000 0.000000
-0.075000 0.650000 0.000000
-0.075000 0.675000 0.000000
-0.050000 -0.075000 0.000000
-0.050000 -0.050000 0.000000
-0.050000 -0.025000 0.000000
-0.050000 0.000000 0.000000
-0.050000 0.025000 0.000000
-0.050000 0.050000 0.000000
-0.050000 0.075000 0.000000
-0.050000 0.100000 0.000000
-0.050000 0.125000 0.000000
-0.050000 0.150000 0.000000
-0.050000 0.175000 0.000000
-0.050000 0.200000 0.000000
-0.050000 0.225000 0.000000
-0.050000 0.250000 0.000000
-0.050000 0.275000 0.000000
-0.050000 0.300000 0.000000
-0.050000 0.325000 0.000000
-0.050000 0.350000 0.000000
-0.050000 0.375000 0.000000
-0.050000 0.400000 0.000000
-0.050000 0.425000 0.000000
-0.050000 0.450000 0.000000
-0.050000 0.475000 0.000000
-0.050000 0.500000 0.000000
-0.050000 0.525000 0.000000
-0.050000 0.550000 0.000000
-0.050000 0.575000 0.000000
-0.050000 0.600000 0.000000
-0.050000 0.625000 0.000000
-0.050000 0.650000 0.000000
-0.050000 0.675000 0.000000
-0.025000 -0.075000 0.000000
-0.025000 -0.050000 0.000000
-0.025000 -0.025000 0.000000
-0.025000 0.000000 0.000000
-0.025000 0.025000 0.000000
-0.025000 0.050000 0.000000
-0.025000 0.075000 0.000000
-0.025000 0.100000 0.000000
-0.025000 0.125000 0.000000
-0.025000 0.150000 0.000000
-0.025000 0.175000 0.000000
-0.025000 0.200000 0.000000
-0.025000 0.225000 0.000000
-0.025000 0.250000 0.000000
-0.025000 0.275000 0.000000
-0.025000 0.300000 0.000000
-0.025000 0.325000 0.000000
-0.025000 0.350000 0.000000
-0.025000 0.375000 0.000000
-0.025000 0.400000 0.000000
-0.025000 0.425000 0.000000
-0.025000 0.450000 0.000000
-0.025000 0.475000 0.000000
-0.025000 0.500000 0.000000
-0.025000 0.525000 0.000000
-0.025000 0.550000 0.000000
-0.025000 0.575000 0.000000
-0.025000 0.600000 0.000000
-0.025000 0.625000 0.000000
-0.025000 0.650000 0.000000
-0.025000 0.675000 0.000000
0.000000 -0.075000 0.000000
0.000000 -0.050000 0.000000
0.000000 -0.025000 0.000000
0.000000 0.000000 0.000000
0.000000 0.025000 0.000000
0.000000 0.050000 0.000000
0.000000 0.075000 0.000000
0.000000 0.100000 0.000000
0.000000 0.125000 0.000000
0.000000 0.150000 0.000000
0.000000 0.175000 0.000000
0.000000 0.200000 0.000000
0.000000 0.225000 0.000000
0.000000 0.250000 0.000000
0.000000 0.275000 0.000000
0.000000 0.300000 0.000000
0.000000 0.325000 0.000000
0.000000 0.350000 0.000000
0.000000 0.375000 0.000000
0.000000 0.400000 0.000000
0.000000 0.425000 0.000000
0.000000 0.450000 0.000000
0.000000 0.475000 0.000000
0.000000 0.500000 0.000000
0.000000 0.525000 0.000000
0.000000 0.550000 0.000000
0.000000 0.575000 0.000000
0.000000 0.600000 0.000000
0.000000 0.625000 0.000000
0.000000 0.650000 0.000000
0.000000 0.675000 0.000000
0.025000 -0.075000 0.000000
0.025000 -0.050000 0.000000
0.025000 -0.025000 0.000000
0.025000 0.000000 0.000000
0.025000 0.025000 0.000000
0.025000 0.050000 0.000000
0.025000 0.075000 0.000000
0.025000 0.100000 0.000000
0.025000 0.125000 0.000000
0.025000 0.150000 0.000000
0.025000 0.175000 0.000000
0.025000 0.200000 0.000000
0.025000 0.225000 0.000000
0.025000 0.250000 0.000000
0.025000 0.275000 0.000000
0.025000 0.300000 0.000000
0.025000 0.325000 0.000000
0.025000 0.350000 0.000000
0.025000 0.375000 0.000000
0.025000 0.400000 0.000000
0.025000 0.425000 0.000000
0.025000 0.450000 0.000000
0.025000 0.475000 0.000000
0.025000 0.500000 0.000000
0.025000 0.525000 0.000000
0.025000 0.550000 0.000000
0.025000 0.575000 0.000000
0.025000 0.600000 0.000000
0.025000 0.625000 0.000000
0.025000 0.650000 0.000000
0.025000 0.675000 0.000000
0.050000 -0.075000 0.000000
0.050000 -0.050000 0.000000
0.050000 -0.025000 0.000000
0.050000 0.000000 0.000000
0.050000 0.025000 0.000000
0.050000 0.050000 0.000000
0.050000 0.075000 0.000000
0.050000 0.100000 0.000000
0.050000 0.125000 0.000000
0.050000 0.150000 0.000000
0.050000 0.175000 0.000000
0.050000 0.200000 0.000000
0.050000 0.225000 0.000000
0.050000 0.250000 0.000000
0.050000 0.275000 0.000000
0.050000 0.300000 0.000000
0.050000 0.325000 0.000000
0.050000 0.350000 0.000000
0.050000 0.375000 0.000000
0.050000 0.400000 0.000000
0.050000 0.425000 0.000000
0.050000 0.450000 0.000000
0.050000 0.475000 0.000000
0.050000 0.500000 0.000000
0.050000 0.525000 0.000000
0.050000 0.550000 0.000000
0.050000 0.575000 0.000000
0.050000 0.600000 0.000000
0.050000 0.625000 0.000000
0.050000 0.650000 0.000000
0.050000 0.675000 0.000000
0.075000 -0.075000 0.000000
0.075000 -0.050000 0.000000
0.075000 -0.025000 0.000000
0.075000 0.000000 0.000000
0.075000 0.025000 0.000000
0.075000 0.050000 0.000000
0.075000 0.075000 0.000000
0.075000 0.100000 0.000000
0.075000 0.125000 0.000000
0.075000 0.150000 0.000000
0.075000 0.175000 0.000000
0.075000 0.200000 0.000000
0.075000 0.225000 0.000000
0.075000 0.250000 0.000000
0.075000 0.275000 0.000000
0.075000 0.300000 0.000000
0.075000 0.325000 0.000000
0.075000 0.350000 0.000000
0.075000 0.375000 0.000000
0.075000 0.400000 0.000000
0.075000 0.425000 0.000000
0.075000 0.450000 0.000000
0.075000 0.475000 0.000000
0.075000 0.500000 0.000000
0.075000 0.525000 0.000000
0.075000 0.550000 0.000000
0.075000 0.575000 0.000000
0.075000 0.600000 0.000000
0.075000 0.625000 0.000000
0.075000 0.650000 0.000000
0.075000 0.675000 0.000000
0.100000 -0.075000 0.000000
0.100000 -0.050000 0.000000
0.100000 -0.025000 0.000000
0.100000 0.000000 0.000000
0.100000 0.025000 0.000000
0.100000 0.050000 0.000000
0.100000 0.075000 0.000000
0.100000 0.100000 0.000000
0.100000 0.125000 0.000000
0.100000 0.150000 0.000000
0.100000 0.175000 0.000000
0.100000 0.200000 0.000000
0.100000 0.225000 0.000000
0.100000 0.250000 0.000000
0.100000 0.275000 0.000000
0.100000 0.300000 0.000000
0.100000 0.325000 0.000000
0.100000 0.350000 0.000000
0.100000 0.375000 0.000000
0.100000 0.400000 0.000000
0.100000 0.425000 0.000000
0.100000 0.450000 0.000000
0.100000 0.475000 0.000000
0.100000 0.500000 0.000000
0.100000 0.525000 0.000000
0.100000 0.550000 0.000000
0.100000 0.575000 0.000000
0.100000 0.600000 0.000000
0.100000 0.625000 0.000000
0.100000 0.650000 0.000000
0.100000 0.675000 0.000000
0.125000 -0.075000 0.000000
0.125000 -0.050000 0.000000
0.125000 -0.025000 0.000000
0.125000 0.000000 0.000000
0.125000 0.025000 0.000000
0.125000 0.050000 0.000000
0.125000 0.075000 0.000000
0.125000 0.100000 0.000000
0.125000 0.125000 0.000000
0.125000 0.150000 0.000000
0.125000 0.175000 0.000000
0.125000 0.200000 0.000000
0.125000 0.225000 0.000000
0.125000 0.250000 0.000000
0.125000 0.275000 0.000000
0.125000 0.300000 0.000000
0.125000 0.325000 0.000000
0.125000 0.350000 0.000000
0.125000 0.375000 0.000000
0.125000 0.400000 0.000000
0.125000 0.425000 0.000000
0.125000 0.450000 0.000000
0.125000 0.475000 0.000000
0.125000 0.500000 0.000000
0.125000 0.525000 0.000000
0.125000 0.550000 0.000000
0.125000 0.575000 0.000000
0.125000 0.600000 0.000000
0.125000 0.625000 0.000000
0.125000 0.650000 0.000000
0.125000 0.675000 0.000000
0.150000 -0.075000 0.000000
0.150000 -0.050000 0.000000
0.150000 -0.025000 0.000000
0.150000 0.000000 0.000000
0.150000 0.025000 0.000000
0.150000 0.050000 0.000000
0.150000 0.075000 0.000000
0.150000 0.100000 0.000000
0.150000 0.125000 0.000000
0.150000 0.150000 0.000000
0.150000 0.175000 0.000000
0.150000 0.200000 0.000000
0.150000 0.225000 0.000000
0.150000 0.250000 0.000000
0.150000 0.275000 0.000000
0.150000 0.300000 0.000000
0.150000 0.325000 0.000000
0.150000 0.350000 0.000000
0.150000 0.375000 0.000000
0.150000 0.400000 0.000000
0.150000 0.425000 0.000000
0.150000 0.450000 0.000000
0.150000 0.475000 0.000000
0.150000 0.500000 0.000000
0.150000 0.525000 0.000000
0.150000 0.550000 0.000000
0.150000 0.575000 0.000000
0.150000 0.600000 0.000000
0.150000 0.625000 0.000000
0.150000 0.650000 0.000000
0.150000 0.675000 0.000000
0.175000 -0.075000 0.000000
0.175000 -0.050000 0.000000
0.175000 -0.025000 0.000000
0.175000 0.000000 0.000000
0.175000 0.025000 0.000000
0.175000 0.050000 0.000000
0.175000 0.075000 0.000000
0.175000 0.100000 0.000000
0.175000 0.125000 0.000000
0.175000 0.150000 0.000000
0.175000 0.175000 0.000000
0.175000 0.200000 0.000000
0.175000 0.225000 0.000000
0.175000 0.250000 0.000000
0.175000 0.275000 0.000000
0.175000 0.300000 0.000000
0.175000 0.325000 0.000000
0.175000 0.350000 0.000000
0.175000 0.375000 0.000000
0.175000 0.400000 0.000000
0.175000 0.425000 0.000000
0.175000 0.450000 0.000000
0.175000 0.475000 0.000000
0.175000 0.500000 0.000000
0.175000 0.525000 0.000000
0.175000 0.550000 0.000000
0.175000 0.575000 0.000000
0.175000 0.600000 0.000000
0.175000 0.625000 0.000000
0.175000 0.650000 0.000000
0.175000 0.675000 0.000000
0.200000 -0.075000 0.000000
0.200000 -0.050000 0.000000
0.200000 -0.025000 0.000000
0.200000 0.000000 0.000000
0.200000 0.025000 0.000000
0.200000 0.050000 0.000000
0.200000 0.075000 0.000000
0.200000 0.100000 0.000000
0.200000 0.125000 0.000000
0.200000 0.150000 0.000000
0.200000 0.175000 0.000000
0.200000 0.200000 0.000000
0.200000 0.225000 0.000000
0.200000 0.250000 0.000000
[...]
<PointData>
<DataArray NumberOfComponents='1' type='Int32' Name='ParticleType' format='ascii'>
4
4
4
4
4
4
4
4
4
4
4
4
4
4
4
4
4
4
4
4
4
4
4
4
4
4
4
4
2
2
2
4
4
4
4
4
4
4
4
4
4
4
4
4
4
4
4
4
4
4
4
4
4
4
4
4
4
4
4
2
2
2
4
4
3
3
3
3
3
3
3
3
3
3
3
3
3
3
3
3
3
3
3
3
3
3
3
3
3
3
2
2
2
4
4
3
3
3
3
3
3
3
3
3
3
3
3
3
3
3
3
3
3
3
3
3
3
3
3
3
3
2
2
2
4
4
3
3
0
0
0
0
0
0
0
0
0
0
0
0
0
0
0
0
0
0
0
0
0
1
1
2
2
2
2
4
4
3
3
0
0
0
0
0
0
0
0
0
0
0
0
0
0
0
0
0
0
0
0
0
0
1
2
2
2
2
4
4
3
3
0
0
0
0
0
0
0
0
0
0
0
0
0
0
0
0
0
0
0
0
0
0
1
2
2
2
2
4
4
3
3
0
0
0
0
0
0
0
0
0
0
0
0
0
0
0
0
0
0
0
0
0
0
1
2
2
2
2
4
4
3
3
0
0
0
0
0
0
0
0
0
0
0
0
0
0
0
0
0
0
0
0
0
0
1
2
2
2
2
4
4
3
3
0
0
0
0
0
0
0
0
0
0
0
0
0
0
0
0
0
0
0
0
0
0
1
2
2
2
2
4
4
3
3
0
0
0
0
0
0
0
0
0
0
0
0
0
0
0
0
0
0
0
0
0
0
1
2
2
2
2
4
4
3
3
0
0
0
0
0
0
0
0
0
0
0
0
0
0
0
0
0
0
0
0
0
0
1
2
2
2
2
4
4
3
3
0
0
0
0
0
0
0
0
0
0
0
0
0
0
0
0
0
0
0
0
0
0
0
2
2
2
2
4
4
3
3
0
0
0
0
0
0
0
0
0
0
0
0
0
0
0
0
0
0
0
0
0
0
0
2
2
2
2
4
4
3
3
0
0
0
0
0
0
0
0
0
0
0
0
0
0
0
0
0
0
0
0
0
0
0
1
2
2
2
4
4
3
3
0
0
0
0
0
0
0
0
0
0
0
0
0
0
0
0
0
0
0
0
0
0
0
1
2
2
2
4
4
3
3
0
0
0
0
0
0
0
0
0
0
0
0
0
0
0
0
0
0
0
0
0
0
0
1
2
2
2
4
4
3
3
0
0
0
0
0
0
0
0
0
0
0
0
0
0
0
0
0
0
0
0
0
0
0
1
2
2
2
4
4
3
3
0
0
0
0
0
0
0
0
0
0
0
0
0
0
0
0
0
0
0
0
0
0
0
1
2
2
2
4
4
3
3
0
0
0
0
0
0
0
0
0
0
0
0
0
0
0
0
0
0
0
0
0
0
0
1
2
2
2
4
4
3
3
0
0
0
0
0
0
0
0
0
0
0
0
0
0
0
0
0
0
0
0
0
0
0
1
2
2
2
4
4
3
3
0
0
0
0
0
0
0
0
0
0
0
0
0
0
0
0
0
0
0
0
0
0
0
1
2
2
2
4
4
3
3
0
0
0
0
0
0
0
0
0
0
0
0
0
0
0
0
0
0
0
0
0
0
0
1
2
2
2
4
4
3
3
0
0
0
0
0
0
0
0
0
0
0
0
0
0
0
0
0
0
0
0
0
0
0
1
2
2
2
4
4
3
3
0
0
0
0
0
0
0
0
0
0
0
0
0
0
0
0
0
0
0
0
0
0
0
1
2
2
2
4
4
3
3
0
0
0
0
0
0
0
0
0
0
0
0
0
0
0
0
0
0
0
0
0
0
0
1
2
2
2
4
4
3
3
0
0
0
0
0
0
0
0
0
0
0
0
0
0
0
0
0
0
0
0
0
0
0
1
2
2
2
4
4
3
3
0
0
0
0
0
0
0
0
0
0
0
0
0
0
0
0
0
0
0
0
0
0
0
1
2
2
2
4
4
3
3
0
0
0
0
0
0
0
0
0
0
0
0
0
0
0
0
0
0
0
0
0
0
0
1
2
2
2
4
4
3
3
0
0
0
0
0
0
0
0
0
0
0
0
0
0
0
0
0
0
0
0
0
0
0
1
2
2
2
4
4
3
3
0
0
0
0
0
0
0
0
0
0
0
0
0
0
0
0
0
0
0
0
0
0
0
1
2
2
2
4
4
3
3
0
0
0
0
0
0
0
0
0
0
0
0
0
0
0
0
0
0
0
0
0
0
0
1
2
2
2
4
4
3
3
0
0
0
0
0
0
0
0
0
0
0
0
0
0
0
0
0
0
0
0
0
0
0
1
2
2
2
4
4
3
3
0
0
0
0
0
0
0
0
0
0
0
0
0
0
0
0
0
0
0
0
0
0
0
1
2
2
2
4
4
3
3
0
0
0
0
0
0
0
0
0
0
0
0
0
0
0
0
0
0
0
0
0
0
0
2
2
2
2
4
4
3
3
0
0
0
0
0
0
0
0
0
0
0
0
0
0
0
0
0
0
0
0
0
0
0
2
2
2
2
4
4
3
3
0
0
0
0
0
0
0
0
0
0
0
0
0
0
0
0
0
0
0
0
0
0
1
2
2
2
2
4
4
3
3
0
0
0
0
0
0
0
0
0
0
0
0
0
0
0
0
0
0
0
0
0
0
1
2
2
2
2
4
4
3
3
0
0
0
0
0
0
0
0
0
0
0
0
0
0
0
0
0
0
0
0
0
0
1
2
2
2
2
4
4
3
3
0
0
0
0
0
0
0
0
0
0
0
0
0
0
0
0
0
0
0
0
0
0
1
2
2
2
2
4
4
3
3
0
0
0
0
0
0
0
0
0
0
0
0
0
0
0
0
0
0
0
0
0
0
1
2
2
2
2
4
4
3
3
0
0
0
0
0
0
0
0
0
0
0
0
0
0
0
0
0
0
0
0
0
0
1
2
2
2
2
4
4
3
3
0
0
0
0
0
0
0
0
0
0
0
0
0
0
0
0
0
0
0
0
0
0
1
2
2
2
2
4
4
3
3
0
0
0
0
0
0
0
0
0
0
0
0
0
0
0
0
0
0
0
0
0
1
1
2
2
2
2
4
4
3
3
3
3
3
3
3
3
3
3
3
3
3
3
3
3
3
3
3
3
3
3
3
3
3
3
2
2
2
4
4
3
3
3
3
3
3
3
3
3
3
3
3
3
3
3
3
3
3
3
3
3
3
3
3
3
3
2
2
2
4
4
4
4
4
4
4
4
4
4
4
4
4
4
4
4
4
4
4
4
4
4
4
4
4
4
4
4
2
2
2
4
4
4
4
4
4
4
4
4
4
4
4
4
4
4
4
4
4
4
4
4
4
4
4
4
4
4
4
2
2
2
</DataArray>
<DataArray NumberOfComponents='1' type='Float32' Name='Temperature' format='ascii'>
0.000000
0.000000
0.000000
0.000000
0.000000
0.000000
0.000000
0.000000
0.000000
0.000000
0.000000
0.000000
0.000000
0.000000
0.000000
0.000000
0.000000
0.000000
0.000000
0.000000
0.000000
0.000000
0.000000
0.000000
0.000000
0.000000
0.000000
0.000000
-5.000000
-5.000000
-5.000000
0.000000
0.000000
0.000000
0.000000
0.000000
0.000000
0.000000
0.000000
0.000000
0.000000
0.000000
0.000000
0.000000
0.000000
0.000000
0.000000
0.000000
0.000000
0.000000
0.000000
0.000000
0.000000
0.000000
0.000000
0.000000
0.000000
0.000000
0.000000
-5.000000
-5.000000
-5.000000
0.000000
0.000000
0.000000
0.000000
0.000000
0.000000
0.000000
0.000000
0.000000
0.000000
0.000000
0.000000
0.000000
0.000000
0.000000
0.000000
0.000000
0.000000
0.000000
0.000000
0.000000
0.000000
0.000000
0.000000
0.000000
0.000000
0.000000
0.000000
-5.000000
-5.000000
-5.000000
0.000000
0.000000
0.000000
0.000000
0.000000
0.000000
0.000000
0.000000
0.000000
0.000000
0.000000
0.000000
0.000000
0.000000
0.000000
0.000000
0.000000
0.000000
0.000000
0.000000
0.000000
0.000000
0.000000
0.000000
0.000000
0.000000
0.000000
0.000000
-5.000000
-5.000000
-5.000000
0.000000
0.000000
0.000000
0.000000
0.164164
0.293903
0.424603
0.547851
0.662853
0.767623
0.860485
0.939826
1.004140
1.052055
1.082360
1.094052
1.086366
1.058784
1.011013
0.942887
0.854198
0.744396
0.612493
0.454933
0.275552
0.009984
0.006332
-2.124298
-5.000000
-5.000000
-5.000000
0.000000
0.000000
0.000000
0.000000
0.297178
0.531817
0.768682
0.992328
1.201385
1.392216
1.561714
1.706840
1.824738
1.912782
1.968663
1.990479
1.976809
1.926748
1.839856
1.716007
1.555093
1.356520
1.119115
0.838024
0.521782
0.083061
0.006531
-2.360945
-5.000000
-5.000000
-5.000000
0.000000
0.000000
0.000000
0.000000
0.436886
0.782209
1.131292
1.461617
1.771202
2.054624
2.307142
2.524031
2.700789
2.833248
2.917744
2.951287
2.931712
2.857739
2.728929
2.545460
2.307722
2.015616
1.668422
1.261441
0.806148
0.217696
0.007559
-2.437476
-5.000000
-5.000000
-5.000000
0.000000
0.000000
0.000000
0.000000
0.577689
1.034878
1.497962
1.937420
2.350695
2.730488
3.070222
3.363201
3.602940
3.783385
3.899216
3.946144
3.921160
3.822662
3.650411
3.405252
3.088579
2.701443
2.244177
1.713092
1.120382
0.390778
0.008231
-2.439421
-5.000000
-5.000000
-5.000000
0.000000
0.000000
0.000000
0.000000
0.721515
1.293409
1.874050
2.426952
2.949016
3.430937
3.864037
4.239277
4.547754
4.781094
4.931933
4.994404
4.964524
4.840413
4.622263
4.311998
3.912582
3.426888
2.856836
2.199938
1.466734
0.590798
0.008605
-2.420916
-5.000000
-5.000000
-5.000000
0.000000
0.000000
0.000000
0.000000
0.869010
1.559008
2.261426
2.932847
3.569668
4.160422
4.694026
5.158671
5.542544
5.834440
6.024512
6.104989
6.070762
5.919712
5.652705
5.273179
4.786279
4.197420
3.510758
2.725234
1.847395
0.817805
0.008905
-2.392381
-5.000000
-5.000000
-5.000000
0.000000
0.000000
0.000000
0.000000
1.020845
1.832910
2.661949
3.457626
4.215872
4.922888
5.564860
6.126747
6.593287
6.949908
7.183795
7.284926
7.246887
7.067355
6.748111
6.294547
5.714604
5.017030
4.209124
3.292177
2.267203
1.080039
0.009544
-2.350684
-5.000000
-5.000000
-5.000000
0.000000
0.000000
0.000000
0.000000
1.177267
2.115558
3.076262
4.002124
4.888647
5.719528
6.477888
7.144991
7.701588
8.129187
8.411524
8.535963
8.494611
8.284957
7.909926
7.377275
6.698328
5.885969
4.951815
3.901352
2.731819
1.395586
0.009782
-2.274804
-5.000000
-5.000000
-5.000000
0.000000
0.000000
0.000000
0.000000
1.337946
2.406326
3.503388
4.564961
5.586154
6.548003
7.430249
8.210027
8.863593
9.368021
9.703139
9.853362
9.809139
9.567785
9.133565
8.516961
7.733185
6.799950
5.734361
4.548469
3.241703
1.783786
0.046322
-2.106023
-5.000000
-5.000000
-5.000000
0.000000
0.000000
0.000000
0.000000
1.501816
2.703239
3.940323
5.142015
6.303061
7.401701
8.414035
9.312697
10.069012
10.655178
11.046723
11.224820
11.178107
10.903732
10.407452
9.702758
8.809124
7.749550
6.547367
5.222888
3.784076
2.233834
0.447091
-1.775318
-5.000000
-5.000000
-5.000000
0.000000
0.000000
0.000000
0.000000
1.667006
3.002846
4.381867
5.726211
7.030293
8.269472
9.416013
10.437773
11.300828
11.972167
12.422721
12.630202
12.581323
12.273064
11.712784
10.917172
9.910182
8.720281
7.377135
5.909122
4.335536
2.689666
0.859939
-0.008883
-5.000000
-5.000000
-5.000000
0.000000
0.000000
0.000000
0.000000
1.830869
3.300283
4.820712
6.307656
7.755231
9.135881
10.417945
11.564358
12.535762
13.293751
13.804497
14.042124
13.991355
13.649000
13.024081
12.136571
11.014978
9.693188
8.206863
6.591177
4.873132
3.105041
1.172074
-0.008534
-5.000000
-5.000000
-5.000000
0.000000
0.000000
0.000000
0.000000
1.990105
3.589494
5.247791
6.874121
8.462324
9.981980
11.397516
12.666944
13.745465
14.589262
15.159726
15.427384
15.374963
14.999108
14.310502
13.332395
12.097784
10.645788
9.017586
7.253845
5.386821
3.472371
1.402019
-0.007553
-5.000000
-5.000000
-5.000000
0.000000
0.000000
0.000000
0.000000
2.140964
3.863612
5.652843
7.411795
9.134064
10.786486
12.329719
13.717014
14.898300
15.824515
16.452416
16.749041
16.695183
16.287328
15.537769
14.472911
13.130059
11.553274
9.788792
7.881905
5.868836
3.805621
1.589941
-0.004729
-5.000000
-5.000000
-5.000000
0.000000
0.000000
0.000000
0.000000
2.279499
4.115419
6.025098
7.906216
9.752151
11.527203
13.188524
14.684932
15.961437
16.964081
17.645294
17.968860
17.913768
17.476353
16.670410
15.525283
14.082266
12.389972
10.499226
8.459403
6.310121
4.108221
1.758578
-0.003550
-5.000000
-5.000000
-5.000000
0.000000
0.000000
0.000000
0.000000
2.401832
4.337826
6.353997
8.343224
10.298702
12.182478
13.948584
15.541880
16.902988
17.973578
18.702219
19.049786
18.993656
18.530033
17.674052
16.457674
14.925744
13.130914
11.128061
8.970148
6.699803
4.374752
1.906620
-0.002082
-5.000000
-5.000000
-5.000000
0.000000
0.000000
0.000000
0.000000
2.504396
4.524320
6.629847
8.709844
10.757352
12.732529
14.586768
16.261596
17.693926
18.821740
19.590340
19.958146
19.901177
19.415524
18.517453
17.241134
15.634408
13.753325
11.656172
9.398931
7.026775
4.598231
2.030609
-0.002130
-5.000000
-5.000000
-5.000000
0.000000
0.000000
0.000000
0.000000
2.584138
4.669330
6.844365
8.994996
11.114150
13.160506
15.083405
16.821768
18.309613
19.482039
20.281802
20.665403
20.607798
20.104991
19.174131
17.851113
16.186115
14.237838
12.067228
9.732623
7.281187
4.772081
2.127085
-0.000517
-5.000000
-5.000000
-5.000000
0.000000
0.000000
0.000000
0.000000
2.638663
4.768489
6.991064
9.190016
11.358191
13.453260
15.423157
17.205014
18.730869
19.933844
20.754949
21.149371
21.091337
20.576793
19.623492
18.268511
16.563627
14.569360
12.348474
9.960923
7.455233
4.891010
2.193069
-0.000390
-5.000000
-5.000000
-5.000000
0.000000
0.000000
0.000000
0.000000
2.666333
4.818809
7.065508
9.288981
11.482032
13.601820
15.595564
17.399492
18.944634
20.163110
20.995045
21.394959
21.336709
20.816212
19.851526
18.480327
16.755206
14.737603
12.491206
10.076786
7.543564
4.951368
2.226561
-0.000024
-5.000000
-5.000000
-5.000000
0.000000
0.000000
0.000000
0.000000
2.666316
4.818775
7.065450
9.288892
11.481905
13.601648
15.595342
17.399219
18.944313
20.162749
20.994654
21.394552
21.336302
20.815819
19.851161
18.480001
16.754926
14.737373
12.491025
10.076651
7.543470
4.951309
2.226531
-0.000021
-5.000000
-5.000000
-5.000000
0.000000
0.000000
0.000000
0.000000
2.638613
4.768388
6.990892
9.189753
11.357813
13.452748
15.422497
17.204204
18.729917
19.932771
20.753787
21.148161
21.090125
20.575624
19.622406
18.267541
16.562795
14.568675
12.347936
9.960521
7.454953
4.890836
2.192981
-0.000382
-5.000000
-5.000000
-5.000000
0.000000
0.000000
0.000000
0.000000
2.584056
4.669164
6.844084
8.994566
11.113532
13.159669
15.082328
16.820444
18.308058
19.480286
20.279904
20.663426
20.605817
20.103080
19.172357
17.849529
16.184756
14.236721
12.066351
9.731970
7.280734
4.771800
2.126947
-0.000497
-5.000000
-5.000000
-5.000000
0.000000
0.000000
0.000000
0.000000
2.504285
4.524096
6.629468
8.709262
10.756518
12.731397
14.585310
16.259805
17.691820
18.819365
19.587769
19.955469
19.898494
19.412936
18.515051
17.238989
15.632569
13.751816
11.654990
9.398056
7.026173
4.597863
2.030433
-0.002091
-5.000000
-5.000000
-5.000000
0.000000
0.000000
0.000000
0.000000
2.401698
4.337554
6.353537
8.342517
10.297685
12.181098
13.946804
15.539691
16.900413
17.970674
18.699074
19.046510
18.990373
18.526866
17.671113
16.455051
14.923499
13.129077
11.126632
8.969105
6.699101
4.374339
1.906434
-0.002016
-5.000000
-5.000000
-5.000000
0.000000
0.000000
0.000000
0.000000
2.279350
4.115116
6.024583
7.905420
9.751003
11.525640
13.186504
14.682444
15.958506
16.960773
17.641710
17.965126
17.910025
17.472743
16.667062
15.522300
14.079720
12.387905
10.497646
8.458289
6.309420
4.107850
1.758438
-0.003460
-5.000000
-5.000000
-5.000000
0.000000
0.000000
0.000000
0.000000
2.140811
3.863298
5.652305
7.410957
9.132848
10.784823
12.327561
13.714350
14.895157
15.820963
16.448562
16.745024
16.691157
16.283446
15.534171
14.469714
13.127348
11.551110
9.787208
7.880897
5.868320
3.805433
1.589915
-0.004584
-5.000000
-5.000000
-5.000000
0.000000
0.000000
0.000000
0.000000
1.989960
3.589191
5.247266
6.873294
8.461112
9.980310
11.395338
12.664245
13.742271
14.585645
15.155797
15.423286
15.370854
14.995148
14.306838
13.329152
12.095069
10.643698
9.016217
7.253240
5.386824
3.472610
1.402165
-0.007370
-5.000000
-5.000000
-5.000000
0.000000
0.000000
0.000000
0.000000
1.830743
3.300015
4.820237
6.306894
7.754098
9.134302
10.415869
11.561769
12.532685
13.290256
13.800693
14.038151
13.987370
13.645162
13.020539
12.133459
11.012428
9.691363
8.205988
6.591432
4.874289
3.105721
1.170408
-0.008372
-5.000000
-5.000000
-5.000000
0.000000
0.000000
0.000000
0.000000
1.666910
3.002634
4.381475
5.725562
7.029306
8.268072
9.414149
10.435428
11.298023
11.968966
12.419227
12.626547
12.577655
12.269534
11.709537
10.914348
9.907947
8.718893
7.377026
5.910786
4.338911
2.691339
0.855933
-0.007839
-5.000000
-5.000000
-5.000000
0.000000
0.000000
0.000000
0.000000
1.501756
2.703096
3.940038
5.141515
6.302268
7.400547
8.412469
9.310700
10.066602
10.652410
11.043689
11.221638
11.174911
10.900659
10.404636
9.700342
8.807304
7.748685
6.548137
5.226263
3.790368
2.239282
0.443180
-1.775233
-5.000000
-5.000000
-5.000000
0.000000
0.000000
0.000000
0.000000
1.337926
2.406258
3.503219
4.564627
5.585584
6.547133
7.429033
8.208444
8.861656
9.365774
9.700661
9.850754
9.806514
9.565263
9.131263
8.515015
7.731805
6.799559
5.735806
4.553147
3.250639
1.794584
0.053837
-2.104932
-5.000000
-5.000000
-5.000000
0.000000
0.000000
0.000000
0.000000
1.177284
2.115560
3.076206
4.001953
4.888299
5.718948
6.477032
7.143840
7.700148
8.127494
8.409638
8.533966
8.492595
8.283017
7.908160
7.375801
6.697341
5.885878
4.953448
3.906099
2.740661
1.407579
0.009755
-2.273574
-5.000000
-5.000000
-5.000000
0.000000
0.000000
0.000000
0.000000
1.020890
1.832969
2.661987
3.457596
4.215722
4.922571
5.564338
6.126001
6.592320
6.948743
7.182478
7.283516
7.245454
7.065970
6.746847
6.293494
5.713917
5.017034
4.210450
3.295833
2.273580
1.088388
0.009535
-2.349709
-5.000000
-5.000000
-5.000000
0.000000
0.000000
0.000000
0.000000
0.869074
1.559106
2.261531
2.932922
3.569672
4.160316
4.693781
5.158268
5.541981
5.833732
6.023688
6.104092
6.069837
5.918805
5.651863
5.272461
4.785788
4.197371
3.511536
2.727390
1.850943
0.821878
0.009212
-2.391792
-5.000000
-5.000000
-5.000000
0.000000
0.000000
0.000000
0.000000
0.721586
1.293524
1.874190
2.427089
2.949120
3.430979
3.863992
4.239129
4.547500
4.780740
4.931497
4.993909
4.963997
4.839878
4.621742
4.311517
3.912197
3.426715
2.857081
2.200848
1.468265
0.592440
0.008792
-2.420589
-5.000000
-5.000000
-5.000000
0.000000
0.000000
0.000000
0.000000
0.577755
1.034989
1.498106
1.937577
2.350845
2.730609
3.070297
3.363216
3.602890
3.783272
3.899047
3.945930
3.920912
3.822385
3.650106
3.404921
3.088237
2.701141
2.244020
1.713205
1.120779
0.391301
0.008285
-2.439275
-5.000000
-5.000000
-5.000000
0.000000
0.000000
0.000000
0.000000
0.436940
0.782301
1.131415
1.461759
1.771350
2.054764
2.307262
2.524122
2.700846
2.833268
2.917728
2.951239
2.931630
2.857618
2.728756
2.545218
2.307399
2.015227
1.668021
1.261116
0.805974
0.217682
0.007505
-2.437427
-5.000000
-5.000000
-5.000000
0.000000
0.000000
0.000000
0.000000
0.297214
0.531880
0.768768
0.992431
1.201498
1.392331
1.561824
1.706938
1.824820
1.912846
1.968707
1.990500
1.976803
1.926704
1.839757
1.715829
1.554815
1.356136
1.118651
0.837549
0.521394
0.082840
0.006738
-2.360930
-5.000000
-5.000000
-5.000000
0.000000
0.000000
0.000000
0.000000
0.164182
0.293935
0.424648
0.547906
0.662916
0.767689
0.860552
0.939890
1.004199
1.052106
1.082402
1.094081
1.086377
1.058770
1.010959
0.942775
0.854011
0.744122
0.612144
0.454551
0.275216
0.009999
0.006209
-2.124304
-5.000000
-5.000000
-5.000000
0.000000
0.000000
0.000000
0.000000
0.000000
0.000000
0.000000
0.000000
0.000000
0.000000
0.000000
0.000000
0.000000
0.000000
0.000000
0.000000
0.000000
0.000000
0.000000
0.000000
0.000000
0.000000
0.000000
0.000000
0.000000
0.000000
0.000000
0.000000
-5.000000
-5.000000
-5.000000
0.000000
0.000000
0.000000
0.000000
0.000000
0.000000
0.000000
0.000000
0.000000
0.000000
0.000000
0.000000
0.000000
0.000000
0.000000
0.000000
0.000000
0.000000
0.000000
0.000000
0.000000
0.000000
0.000000
0.000000
0.000000
0.000000
0.000000
0.000000
-5.000000
-5.000000
-5.000000
0.000000
0.000000
0.000000
0.000000
0.000000
0.000000
0.000000
0.000000
0.000000
0.000000
0.000000
0.000000
0.000000
0.000000
0.000000
0.000000
0.000000
0.000000
0.000000
0.000000
0.000000
0.000000
0.000000
0.000000
0.000000
0.000000
0.000000
0.000000
-5.000000
-5.000000
-5.000000
0.000000
0.000000
0.000000
0.000000
0.000000
0.000000
0.000000
0.000000
0.000000
0.000000
0.000000
0.000000
0.000000
0.000000
0.000000
0.000000
0.000000
0.000000
0.000000
0.000000
0.000000
0.000000
0.000000
0.000000
0.000000
0.000000
0.000000
0.000000
-5.000000
-5.000000
-5.000000
</DataArray>
</PointData>
<Cells>
<DataArray type='Int32' Name='connectivity' format='ascii'>
0
1
2
3
4
5
6
7
8
9
10
11
12
13
14
15
16
17
18
19
20
21
22
23
24
25
26
27
28
29
30
31
32
33
34
35
36
37
38
39
40
41
42
43
44
45
46
47
48
49
50
51
52
53
54
55
56
57
58
59
60
61
62
63
64
65
66
67
68
69
70
71
72
73
74
75
76
77
78
79
80
81
82
83
84
85
86
87
88
89
90
91
92
93
94
95
96
97
98
99
100
101
102
103
104
105
106
107
108
109
110
111
112
113
114
115
116
117
118
119
120
121
122
123
124
125
126
127
128
129
130
131
132
133
134
135
136
137
138
139
140
141
142
143
144
145
146
147
148
149
150
151
152
153
154
155
156
157
158
159
160
161
162
163
164
165
166
167
168
169
170
171
172
173
174
175
176
177
178
179
180
181
182
183
184
185
186
187
188
189
190
191
192
193
194
195
196
197
198
199
200
201
202
203
204
205
206
207
208
209
210
211
212
213
214
215
216
217
218
219
220
221
222
223
224
225
226
227
228
229
230
231
232
233
234
235
236
237
238
239
240
241
242
243
244
245
246
247
248
249
250
251
252
253
254
255
256
257
258
259
260
261
262
263
264
265
266
267
268
269
270
271
272
273
274
275
276
277
278
279
280
281
282
283
284
285
286
287
288
289
290
291
292
293
294
295
296
297
298
299
300
301
302
303
304
305
306
307
308
309
310
311
312
313
314
315
316
317
318
319
320
321
322
323
324
325
326
327
328
329
330
331
332
333
334
335
336
337
338
339
340
341
342
343
344
345
346
347
348
349
350
351
352
353
354
355
356
357
358
359
360
361
362
363
364
365
366
367
368
369
370
371
372
373
374
375
376
377
378
379
380
381
382
383
384
385
386
387
388
389
390
391
392
393
394
395
396
397
398
399
400
401
402
403
404
405
406
407
408
409
410
411
412
413
414
415
416
417
418
419
420
421
422
423
424
425
426
427
428
429
430
431
432
433
434
435
436
437
438
439
440
441
442
443
444
445
446
447
448
449
450
451
452
453
454
455
456
457
458
459
460
461
462
463
464
465
466
467
468
469
470
471
472
473
474
475
476
477
478
479
480
481
482
483
484
485
486
487
488
489
490
491
492
493
494
495
496
497
498
499
500
501
502
503
504
505
506
507
508
509
510
511
512
513
514
515
516
517
518
519
520
521
522
523
524
525
526
527
528
529
530
531
532
533
534
535
536
537
538
539
540
541
542
543
544
545
546
547
548
549
550
551
552
553
554
555
556
557
558
559
560
561
562
563
564
565
566
567
568
569
570
571
572
573
574
575
576
577
578
579
580
581
582
583
584
585
586
587
588
589
590
591
592
593
594
595
596
597
598
599
600
601
602
603
604
605
606
607
608
609
610
611
612
613
614
615
616
617
618
619
620
621
622
623
624
625
626
627
628
629
630
631
632
633
634
635
636
637
638
639
640
641
642
643
644
645
646
647
648
649
650
651
652
653
654
655
656
657
658
659
660
661
662
663
664
665
666
667
668
669
670
671
672
673
674
675
676
677
678
679
680
681
682
683
684
685
686
687
688
689
690
691
692
693
694
695
696
697
698
699
700
701
702
703
704
705
706
707
708
709
710
711
712
713
714
715
716
717
718
719
720
721
722
723
724
725
726
727
728
729
730
731
732
733
734
735
736
737
738
739
740
741
742
743
744
745
746