<?xml version='1.0' encoding='UTF-8'?>
<VTKFile xmlns='VTK' byte_order='LittleEndian' version='0.1' type='UnstructuredGrid'>
<UnstructuredGrid>
<Piece NumberOfCells='1488' NumberOfPoints='1488'>
<Points>
<DataArray NumberOfComponents='3' type='Float32' Name='Position' format='ascii'>
-0.075000 -0.075000 0.000000
-0.075000 -0.050000 0.000000
-0.075000 -0.025000 0.000000
-0.075000 0.000000 0.000000
-0.075000 0.025000 0.000000
-0.075000 0.050000 0.000000
-0.075000 0.075000 0.000000
-0.075000 0.100000 0.000000
-0.075000 0.125000 0.000000
-0.075000 0.150000 0.000000
-0.075000 0.175000 0.000000
-0.075000 0.200000 0.000000
-0.075000 0.225000 0.000000
-0.075000 0.250000 0.000000
-0.075000 0.275000 0.000000
-0.075000 0.300000 0.000000
-0.075000 0.325000 0.000000
-0.075000 0.350000 0.000000
-0.075000 0.375000 0.000000
-0.075000 0.400000 0.000000
-0.075000 0.425000 0.000000
-0.075000 0.450000 0.000000
-0.075000 0.475000 0.000000
-0.075000 0.500000 0.000000
-0.075000 0.525000 0.000000
-0.075000 0.550000 0.000000
-0.075000 0.575000 0.000000
-0.075000 0.600000 0.000000
-0.075000 0.625000 0.000000
-0.075000 0.650000 0.000000
-0.075000 0.675000 0.000000
-0.050000 -0.075000 0.000000
-0.050000 -0.050000 0.000000
-0.050000 -0.025000 0.000000
-0.050000 0.000000 0.000000
-0.050000 0.025000 0.000000
-0.050000 0.050000 0.000000
-0.050000 0.075000 0.000000
-0.050000 0.100000 0.000000
-0.050000 0.125000 0.000000
-0.050000 0.150000 0.000000
-0.050000 0.175000 0.000000
-0.050000 0.200000 0.000000
-0.050000 0.225000 0.000000
-0.050000 0.250000 0.000000
-0.050000 0.275000 0.000000
-0.050000 0.300000 0.000000
-0.050000 0.325000 0.000000
-0.050000 0.350000 0.000000
-0.050000 0.375000 0.000000
-0.050000 0.400000 0.000000
-0.050000 0.425000 0.000000
-0.050000 0.450000 0.000000
-0.050000 0.475000 0.000000
-0.050000 0.500000 0.000000
-0.050000 0.525000 0.000000
-0.050000 0.550000 0.000000
-0.050000 0.575000 0.000000
-0.050000 0.600000 0.000000
-0.050000 0.625000 0.000000
-0.050000 0.650000 0.000000
-0.050000 0.675000 0.000000
-0.025000 -0.075000 0.000000
-0.025000 -0.050000 0.000000
-0.025000 -0.025000 0.000000
-0.025000 0.000000 0.000000
-0.025000 0.025000 0.000000
-0.025000 0.050000 0.000000
-0.025000 0.075000 0.000000
-0.025000 0.100000 0.000000
-0.025000 0.125000 0.000000
-0.025000 0.150000 0.000000
-0.025000 0.175000 0.000000
-0.025000 0.200000 0.000000
-0.025000 0.225000 0.000000
-0.025000 0.250000 0.000000
-0.025000 0.275000 0.000000
-0.025000 0.300000 0.000000
-0.025000 0.325000 0.000000
-0.025000 0.350000 0.000000
-0.025000 0.375000 0.000000
-0.025000 0.400000 0.000000
-0.025000 0.425000 0.000000
-0.025000 0.450000 0.000000
-0.025000 0.475000 0.000000
-0.025000 0.500000 0.000000
-0.025000 0.525000 0.000000
-0.025000 0.550000 0.000000
-0.025000 0.575000 0.000000
-0.025000 0.600000 0.000000
-0.025000 0.625000 0.000000
-0.025000 0.650000 0.000000
-0.025000 0.675000 0.000000
0.000000 -0.075000 0.000000
0.000000 -0.050000 0.000000
0.000000 -0.025000 0.000000
0.000000 0.000000 0.000000
0.000000 0.025000 0.000000
0.000000 0.050000 0.000000
0.000000 0.075000 0.000000
0.000000 0.100000 0.000000
0.000000 0.125000 0.000000
0.000000 0.150000 0.000000
0.000000 0.175000 0.000000
0.000000 0.200000 0.000000
0.000000 0.225000 0.000000
0.000000 0.250000 0.000000
0.000000 0.275000 0.000000
0.000000 0.300000 0.000000
0.000000 0.325000 0.000000
0.000000 0.350000 0.000000
0.000000 0.375000 0.000000
0.000000 0.400000 0.000000
0.000000 0.425000 0.000000
0.000000 0.450000 0.000000
0.000000 0.475000 0.000000
0.000000 0.500000 0.000000
0.000000 0.525000 0.000000
0.000000 0.550000 0.000000
0.000000 0.575000 0.000000
0.000000 0.600000 0.000000
0.000000 0.625000 0.000000
0.000000 0.650000 0.000000
0.000000 0.675000 0.000000
0.025000 -0.075000 0.000000
0.025000 -0.050000 0.000000
0.025000 -0.025000 0.000000
0.025000 0.000000 0.000000
0.025000 0.025000 0.000000
0.025000 0.050000 0.000000
0.025000 0.075000 0.000000
0.025000 0.100000 0.000000
0.025000 0.125000 0.000000
0.025000 0.150000 0.000000
0.025000 0.175000 0.000000
0.025000 0.200000 0.000000
0.025000 0.225000 0.000000
0.025000 0.250000 0.000000
0.025000 0.275000 0.000000
0.025000 0.300000 0.000000
0.025000 0.325000 0.000000
0.025000 0.350000 0.000000
0.025000 0.375000 0.000000
0.025000 0.400000 0.000000
0.025000 0.425000 0.000000
0.025000 0.450000 0.000000
0.025000 0.475000 0.000000
0.025000 0.500000 0.000000
0.025000 0.525000 0.000000
0.025000 0.550000 0.000000
0.025000 0.575000 0.000000
0.025000 0.600000 0.000000
0.025000 0.625000 0.000000
0.025000 0.650000 0.000000
0.025000 0.675000 0.000000
0.050000 -0.075000 0.000000
0.050000 -0.050000 0.000000
0.050000 -0.025000 0.000000
0.050000 0.000000 0.000000
0.050000 0.025000 0.000000
0.050000 0.050000 0.000000
0.050000 0.075000 0.000000
0.050000 0.100000 0.000000
0.050000 0.125000 0.000000
0.050000 0.150000 0.000000
0.050000 0.175000 0.000000
0.050000 0.200000 0.000000
0.050000 0.225000 0.000000
0.050000 0.250000 0.000000
0.050000 0.275000 0.000000
0.050000 0.300000 0.000000
0.050000 0.325000 0.000000
0.050000 0.350000 0.000000
0.050000 0.375000 0.000000
0.050000 0.400000 0.000000
0.050000 0.425000 0.000000
0.050000 0.450000 0.000000
0.050000 0.475000 0.000000
0.050000 0.500000 0.000000
0.050000 0.525000 0.000000
0.050000 0.550000 0.000000
0.050000 0.575000 0.000000
0.050000 0.600000 0.000000
0.050000 0.625000 0.000000
0.050000 0.650000 0.000000
0.050000 0.675000 0.000000
0.075000 -0.075000 0.000000
0.075000 -0.050000 0.000000
0.075000 -0.025000 0.000000
0.075000 0.000000 0.000000
0.075000 0.025000 0.000000
0.075000 0.050000 0.000000
0.075000 0.075000 0.000000
0.075000 0.100000 0.000000
0.075000 0.125000 0.000000
0.075000 0.150000 0.000000
0.075000 0.175000 0.000000
0.075000 0.200000 0.000000
0.075000 0.225000 0.000000
0.075000 0.250000 0.000000
0.075000 0.275000 0.000000
0.075000 0.300000 0.000000
0.075000 0.325000 0.000000
0.075000 0.350000 0.000000
0.075000 0.375000 0.000000
0.075000 0.400000 0.000000
0.075000 0.425000 0.000000
0.075000 0.450000 0.000000
0.075000 0.475000 0.000000
0.075000 0.500000 0.000000
0.075000 0.525000 0.000000
0.075000 0.550000 0.000000
0.075000 0.575000 0.000000
0.075000 0.600000 0.000000
0.075000 0.625000 0.000000
0.075000 0.650000 0.000000
0.075000 0.675000 0.000000
0.100000 -0.075000 0.000000
0.100000 -0.050000 0.000000
0.100000 -0.025000 0.000000
0.100000 0.000000 0.000000
0.100000 0.025000 0.000000
0.100000 0.050000 0.000000
0.100000 0.075000 0.000000
0.100000 0.100000 0.000000
0.100000 0.125000 0.000000
0.100000 0.150000 0.000000
0.100000 0.175000 0.000000
0.100000 0.200000 0.000000
0.100000 0.225000 0.000000
0.100000 0.250000 0.000000
0.100000 0.275000 0.000000
0.100000 0.300000 0.000000
0.100000 0.325000 0.000000
0.100000 0.350000 0.000000
0.100000 0.375000 0.000000
0.100000 0.400000 0.000000
0.100000 0.425000 0.000000
0.100000 0.450000 0.000000
0.100000 0.475000 0.000000
0.100000 0.500000 0.000000
0.100000 0.525000 0.000000
0.100000 0.550000 0.000000
0.100000 0.575000 0.000000
0.100000 0.600000 0.000000
0.100000 0.625000 0.000000
0.100000 0.650000 0.000000
0.100000 0.675000 0.000000
0.125000 -0.075000 0.000000
0.125000 -0.050000 0.000000
0.125000 -0.025000 0.000000
0.125000 0.000000 0.000000
0.125000 0.025000 0.000000
0.125000 0.050000 0.000000
0.125000 0.075000 0.000000
0.125000 0.100000 0.000000
0.125000 0.125000 0.000000
0.125000 0.150000 0.000000
0.125000 0.175000 0.000000
0.125000 0.200000 0.000000
0.125000 0.225000 0.000000
0.125000 0.250000 0.000000
0.125000 0.275000 0.000000
0.125000 0.300000 0.000000
0.125000 0.325000 0.000000
0.125000 0.350000 0.000000
0.125000 0.375000 0.000000
0.125000 0.400000 0.000000
0.125000 0.425000 0.000000
0.125000 0.450000 0.000000
0.125000 0.475000 0.000000
0.125000 0.500000 0.000000
0.125000 0.525000 0.000000
0.125000 0.550000 0.000000
0.125000 0.575000 0.000000
0.125000 0.600000 0.000000
0.125000 0.625000 0.000000
0.125000 0.650000 0.000000
0.125000 0.675000 0.000000
0.150000 -0.075000 0.000000
0.150000 -0.050000 0.000000
0.150000 -0.025000 0.000000
0.150000 0.000000 0.000000
0.150000 0.025000 0.000000
0.150000 0.050000 0.000000
0.150000 0.075000 0.000000
0.150000 0.100000 0.000000
0.150000 0.125000 0.000000
0.150000 0.150000 0.000000
0.150000 0.175000 0.000000
0.150000 0.200000 0.000000
0.150000 0.225000 0.000000
0.150000 0.250000 0.000000
0.150000 0.275000 0.000000
0.150000 0.300000 0.000000
0.150000 0.325000 0.000000
0.150000 0.350000 0.000000
0.150000 0.375000 0.000000
0.150000 0.400000 0.000000
0.150000 0.425000 0.000000
0.150000 0.450000 0.000000
0.150000 0.475000 0.000000
0.150000 0.500000 0.000000
0.150000 0.525000 0.000000
0.150000 0.550000 0.000000
0.150000 0.575000 0.000000
0.150000 0.600000 0.000000
0.150000 0.625000 0.000000
0.150000 0.650000 0.000000
0.150000 0.675000 0.000000
0.175000 -0.075000 0.000000
0.175000 -0.050000 0.000000
0.175000 -0.025000 0.000000
0.175000 0.000000 0.000000
0.175000 0.025000 0.000000
0.175000 0.050000 0.000000
0.175000 0.075000 0.000000
0.175000 0.100000 0.000000
0.175000 0.125000 0.000000
0.175000 0.150000 0.000000
0.175000 0.175000 0.000000
0.175000 0.200000 0.000000
0.175000 0.225000 0.000000
0.175000 0.250000 0.000000
0.175000 0.275000 0.000000
0.175000 0.300000 0.000000
0.175000 0.325000 0.000000
0.175000 0.350000 0.000000
0.175000 0.375000 0.000000
0.175000 0.400000 0.000000
0.175000 0.425000 0.000000
0.175000 0.450000 0.000000
0.175000 0.475000 0.000000
0.175000 0.500000 0.000000
0.175000 0.525000 0.000000
0.175000 0.550000 0.000000
0.175000 0.575000 0.000000
0.175000 0.600000 0.000000
0.175000 0.625000 0.000000
0.175000 0.650000 0.000000
0.175000 0.675000 0.000000
0.200000 -0.075000 0.000000
0.200000 -0.050000 0.000000
0.200000 -0.025000 0.000000
0.200000 0.000000 0.000000
0.200000 0.025000 0.000000
0.200000 0.050000 0.000000
0.200000 0.075000 0.000000
0.200000 0.100000 0.000000
0.200000 0.125000 0.000000
0.200000 0.150000 0.000000
0.200000 0.175000 0.000000
0.200000 0.200000 0.000000
0.200000 0.225000 0.000000
0.200000 0.250000 0.000000
[...]
<PointData>
<DataArray NumberOfComponents='1' type='Int32' Name='ParticleType' format='ascii'>
4
4
4
4
4
4
4
4
4
4
4
4
4
4
4
4
4
4
4
4
4
4
4
4
4
4
4
4
2
2
2
4
4
4
4
4
4
4
4
4
4
4
4
4
4
4
4
4
4
4
4
4
4
4
4
4
4
4
4
2
2
2
4
4
3
3
3
3
3
3
3
3
3
3
3
3
3
3
3
3
3
3
3
3
3
3
3
3
3
3
2
2
2
4
4
3
3
3
3
3
3
3
3
3
3
3
3
3
3
3
3
3
3
3
3
3
3
3
3
3
3
2
2
2
4
4
3
3
0
0
0
0
0
0
0
0
0
0
0
0
0
0
0
0
0
0
0
0
0
1
2
2
2
2
2
4
4
3
3
0
0
0
0
0
0
0
0
0
0
0
0
0
0
0
0
0
0
0
0
0
1
2
2
2
2
2
4
4
3
3
0
0
0
0
0
0
0
0
0
0
0
0
0
0
0
0
0
0
0
0
0
1
2
2
2
2
2
4
4
3
3
0
0
0
0
0
0
0
0
0
0
0
0
0
0
0
0
0
0
0
0
0
1
2
2
2
2
2
4
4
3
3
0
0
0
0
0
0
0
0
0
0
0
0
0
0
0
0
0
0
0
0
0
0
1
2
2
2
2
4
4
3
3
0
0
0
0
0
0
0
0
0
0
0
0
0
0
0
0
0
0
0
0
0
0
1
2
2
2
2
4
4
3
3
0
0
0
0
0
0
0
0
0
0
0
0
0
0
0
0
0
0
0
0
0
0
1
2
2
2
2
4
4
3
3
0
0
0
0
0
0
0
0
0
0
0
0
0
0
0
0
0
0
0
0
0
0
1
2
2
2
2
4
4
3
3
0
0
0
0
0
0
0
0
0
0
0
0
0
0
0
0
0
0
0
0
0
0
1
2
2
2
2
4
4
3
3
0
0
0
0
0
0
0
0
0
0
0
0
0
0
0
0
0
0
0
0
0
0
1
2
2
2
2
4
4
3
3
0
0
0
0
0
0
0
0
0
0
0
0
0
0
0
0
0
0
0
0
0
0
1
2
2
2
2
4
4
3
3
0
0
0
0
0
0
0
0
0
0
0
0
0
0
0
0
0
0
0
0
0
0
1
2
2
2
2
4
4
3
3
0
0
0
0
0
0
0
0
0
0
0
0
0
0
0
0
0
0
0
0
0
0
1
2
2
2
2
4
4
3
3
0
0
0
0
0
0
0
0
0
0
0
0
0
0
0
0
0
0
0
0
0
0
1
2
2
2
2
4
4
3
3
0
0
0
0
0
0
0
0
0
0
0
0
0
0
0
0
0
0
0
0
0
0
1
2
2
2
2
4
4
3
3
0
0
0
0
0
0
0
0
0
0
0
0
0
0
0
0
0
0
0
0
0
0
1
2
2
2
2
4
4
3
3
0
0
0
0
0
0
0
0
0
0
0
0
0
0
0
0
0
0
0
0
0
0
1
2
2
2
2
4
4
3
3
0
0
0
0
0
0
0
0
0
0
0
0
0
0
0
0
0
0
0
0
0
0
1
2
2
2
2
4
4
3
3
0
0
0
0
0
0
0
0
0
0
0
0
0
0
0
0
0
0
0
0
0
0
1
2
2
2
2
4
4
3
3
0
0
0
0
0
0
0
0
0
0
0
0
0
0
0
0
0
0
0
0
0
0
1
2
2
2
2
4
4
3
3
0
0
0
0
0
0
0
0
0
0
0
0
0
0
0
0
0
0
0
0
0
0
1
2
2
2
2
4
4
3
3
0
0
0
0
0
0
0
0
0
0
0
0
0
0
0
0
0
0
0
0
0
0
1
2
2
2
2
4
4
3
3
0
0
0
0
0
0
0
0
0
0
0
0
0
0
0
0
0
0
0
0
0
0
1
2
2
2
2
4
4
3
3
0
0
0
0
0
0
0
0
0
0
0
0
0
0
0
0
0
0
0
0
0
0
1
2
2
2
2
4
4
3
3
0
0
0
0
0
0
0
0
0
0
0
0
0
0
0
0
0
0
0
0
0
0
1
2
2
2
2
4
4
3
3
0
0
0
0
0
0
0
0
0
0
0
0
0
0
0
0
0
0
0
0
0
0
1
2
2
2
2
4
4
3
3
0
0
0
0
0
0
0
0
0
0
0
0
0
0
0
0
0
0
0
0
0
0
1
2
2
2
2
4
4
3
3
0
0
0
0
0
0
0
0
0
0
0
0
0
0
0
0
0
0
0
0
0
0
1
2
2
2
2
4
4
3
3
0
0
0
0
0
0
0
0
0
0
0
0
0
0
0
0
0
0
0
0
0
0
1
2
2
2
2
4
4
3
3
0
0
0
0
0
0
0
0
0
0
0
0
0
0
0
0
0
0
0
0
0
0
1
2
2
2
2
4
4
3
3
0
0
0
0
0
0
0
0
0
0
0
0
0
0
0
0
0
0
0
0
0
0
1
2
2
2
2
4
4
3
3
0
0
0
0
0
0
0
0
0
0
0
0
0
0
0
0
0
0
0
0
0
0
1
2
2
2
2
4
4
3
3
0
0
0
0
0
0
0
0
0
0
0
0
0
0
0
0
0
0
0
0
0
0
1
2
2
2
2
4
4
3
3
0
0
0
0
0
0
0
0
0
0
0
0
0
0
0
0
0
0
0
0
0
0
1
2
2
2
2
4
4
3
3
0
0
0
0
0
0
0
0
0
0
0
0
0
0
0
0
0
0
0
0
0
0
1
2
2
2
2
4
4
3
3
0
0
0
0
0
0
0
0
0
0
0
0
0
0
0
0
0
0
0
0
0
0
1
2
2
2
2
4
4
3
3
0
0
0
0
0
0
0
0
0
0
0
0
0
0
0
0
0
0
0
0
0
1
2
2
2
2
2
4
4
3
3
0
0
0
0
0
0
0
0
0
0
0
0
0
0
0
0
0
0
0
0
0
1
2
2
2
2
2
4
4
3
3
0
0
0
0
0
0
0
0
0
0
0
0
0
0
0
0
0
0
0
0
0
1
2
2
2
2
2
4
4
3
3
0
0
0
0
0
0
0
0
0
0
0
0
0
0
0
0
0
0
0
0
0
1
2
2
2
2
2
4
4
3
3
3
3
3
3
3
3
3
3
3
3
3
3
3
3
3
3
3
3
3
3
3
3
3
3
2
2
2
4
4
3
3
3
3
3
3
3
3
3
3
3
3
3
3
3
3
3
3
3
3
3
3
3
3
3
3
2
2
2
4
4
4
4
4
4
4
4
4
4
4
4
4
4
4
4
4
4
4
4
4
4
4
4
4
4
4
4
2
2
2
4
4
4
4
4
4
4
4
4
4
4
4
4
4
4
4
4
4
4
4
4
4
4
4
4
4
4
4
2
2
2
</DataArray>
<DataArray NumberOfComponents='1' type='Float32' Name='Temperature' format='ascii'>
0.000000
0.000000
0.000000
0.000000
0.000000
0.000000
0.000000
0.000000
0.000000
0.000000
0.000000
0.000000
0.000000
0.000000
0.000000
0.000000
0.000000
0.000000
0.000000
0.000000
0.000000
0.000000
0.000000
0.000000
0.000000
0.000000
0.000000
0.000000
-5.000000
-5.000000
-5.000000
0.000000
0.000000
0.000000
0.000000
0.000000
0.000000
0.000000
0.000000
0.000000
0.000000
0.000000
0.000000
0.000000
0.000000
0.000000
0.000000
0.000000
0.000000
0.000000
0.000000
0.000000
0.000000
0.000000
0.000000
0.000000
0.000000
0.000000
0.000000
-5.000000
-5.000000
-5.000000
0.000000
0.000000
0.000000
0.000000
0.000000
0.000000
0.000000
0.000000
0.000000
0.000000
0.000000
0.000000
0.000000
0.000000
0.000000
0.000000
0.000000
0.000000
0.000000
0.000000
0.000000
0.000000
0.000000
0.000000
0.000000
0.000000
0.000000
0.000000
-5.000000
-5.000000
-5.000000
0.000000
0.000000
0.000000
0.000000
0.000000
0.000000
0.000000
0.000000
0.000000
0.000000
0.000000
0.000000
0.000000
0.000000
0.000000
0.000000
0.000000
0.000000
0.000000
0.000000
0.000000
0.000000
0.000000
0.000000
0.000000
0.000000
0.000000
0.000000
-5.000000
-5.000000
-5.000000
0.000000
0.000000
0.000000
0.000000
0.134354
0.240499
0.347343
0.447906
0.541404
0.626054
0.700323
0.762751
0.812009
0.846927
0.866522
0.870023
0.856890
0.826813
0.779681
0.715491
0.634117
0.534988
0.415599
0.275861
0.080027
0.009265
-1.107160
-2.436545
-5.000000
-5.000000
-5.000000
0.000000
0.000000
0.000000
0.000000
0.242888
0.434480
0.627547
0.809243
0.978198
1.131180
1.265425
1.378293
1.467387
1.530592
1.566135
1.572630
1.549110
1.495039
1.410267
1.294890
1.148910
0.971713
0.759879
0.513170
0.181285
0.009350
-1.421360
-2.820544
-5.000000
-5.000000
-5.000000
0.000000
0.000000
0.000000
0.000000
0.356206
0.637229
0.920403
1.186929
1.434800
1.659278
1.856312
2.022032
2.152923
2.245888
2.298330
2.308228
2.274186
2.195460
2.071924
1.903922
1.691895
1.435769
1.132747
0.781438
0.335720
0.009498
-1.493678
-2.930536
-5.000000
-5.000000
-5.000000
0.000000
0.000000
0.000000
0.000000
0.469144
0.839275
1.212272
1.563386
1.889983
2.185830
2.445594
2.664182
2.836966
2.959872
3.029489
3.043168
2.999102
2.896377
2.734959
2.515587
2.239467
1.907709
1.519723
1.073747
0.547147
0.009818
-1.331226
-2.840644
-5.000000
-5.000000
-5.000000
0.000000
0.000000
0.000000
0.000000
0.582512
1.042112
1.505315
1.941412
2.347144
2.714782
3.037712
3.309614
3.524743
3.678048
3.765302
3.783234
3.729639
3.603452
3.404783
3.134867
2.795886
2.390571
1.921546
1.390190
0.799994
0.074603
-0.009172
-2.655152
-5.000000
-5.000000
-5.000000
0.000000
0.000000
0.000000
0.000000
0.695934
1.245058
1.798551
2.319746
2.804769
3.244398
3.630743
3.956255
4.214077
4.398179
4.503521
4.526215
4.463661
4.314656
4.079473
3.759872
3.359064
2.881499
2.333069
1.718303
1.061543
0.293544
-0.005400
-2.524800
-5.000000
-5.000000
-5.000000
0.000000
0.000000
0.000000
0.000000
0.809037
1.447450
2.091020
2.697154
3.261371
3.772967
4.222779
4.602039
4.902782
5.118001
5.241847
5.269818
5.198918
5.027806
4.756903
4.388469
3.926662
3.377471
2.749312
2.050178
1.308420
0.464827
-0.001469
-2.459769
-5.000000
-5.000000
-5.000000
0.000000
0.000000
0.000000
0.000000
0.921235
1.648237
2.381206
3.071680
3.714583
4.297748
4.810754
5.243625
5.587297
5.833795
5.976471
6.010208
5.931614
5.739195
5.433491
5.017195
4.495273
3.874980
3.166497
2.380290
1.544443
0.605323
0.001005
-2.432628
-5.000000
-5.000000
-5.000000
0.000000
0.000000
0.000000
0.000000
1.031758
1.846043
2.667118
3.440751
4.161289
4.815129
5.390614
5.876581
6.262885
6.540601
6.702289
6.742226
6.656623
6.443813
6.104415
5.641477
5.060628
4.370140
3.581517
2.706977
1.774915
0.738768
0.003258
-2.413335
-5.000000
-5.000000
-5.000000
0.000000
0.000000
0.000000
0.000000
1.139657
2.039167
2.946295
3.801187
4.597633
5.320632
5.957328
6.495400
6.923650
7.232228
7.412919
7.459408
7.367507
7.135362
6.763628
6.255630
5.617532
4.858436
3.990930
3.028774
2.000928
0.868353
0.004730
-2.396909
-5.000000
-5.000000
-5.000000
0.000000
0.000000
0.000000
0.000000
1.243824
2.225623
3.215862
4.149268
5.019099
5.809013
6.504997
7.093617
7.562661
7.901386
8.100834
8.154115
8.056650
7.806383
7.403969
6.852935
6.159873
5.334563
4.390521
3.342940
2.221421
0.994450
0.006378
-2.381639
-5.000000
-5.000000
-5.000000
0.000000
0.000000
0.000000
0.000000
1.343018
2.403187
3.472600
4.480828
5.420632
6.274395
7.027007
7.663978
8.172133
8.539883
8.757565
8.817741
8.715453
8.448442
8.017326
7.425774
6.680702
5.792439
4.775286
3.645741
2.434023
1.115944
0.007271
-2.367223
-5.000000
-5.000000
-5.000000
0.000000
0.000000
0.000000
0.000000
1.435905
2.569471
3.713049
4.791390
5.796794
6.710456
7.516240
8.198672
8.743678
9.138882
9.373963
9.440974
9.334601
9.052378
8.594868
7.965821
7.172390
6.225328
5.139578
3.932790
2.635731
1.231214
0.008118
-2.353695
-5.000000
-5.000000
-5.000000
0.000000
0.000000
0.000000
0.000000
1.521105
2.722003
3.933630
5.076322
6.141959
7.110651
7.965325
8.689606
9.268600
9.689213
9.940526
10.014128
9.904377
9.608615
9.127329
8.464309
7.626861
6.626047
5.477307
4.199278
2.823180
1.338361
0.008626
-2.341226
-5.000000
-5.000000
-5.000000
0.000000
0.000000
0.000000
0.000000
1.597247
2.858323
4.130779
5.331009
6.450523
7.468460
8.366917
9.128713
9.738227
10.181724
10.447759
10.527508
10.415042
10.107522
9.605357
8.912340
8.035867
6.987202
5.782152
4.440161
2.992805
1.435364
0.008892
-2.330007
-5.000000
-5.000000
-5.000000
0.000000
0.000000
0.000000
0.000000
1.663018
2.976079
4.301090
5.551043
6.717129
7.777654
8.713994
9.508279
10.144260
10.607655
10.886564
10.971813
10.857225
10.539808
10.019891
9.301252
8.391323
7.301493
6.047815
4.650370
3.140997
1.520165
0.009128
-2.320241
-5.000000
-5.000000
-5.000000
0.000000
0.000000
0.000000
0.000000
1.717223
3.073130
4.441461
5.732406
6.936896
8.032550
9.000154
9.821269
10.479131
10.959007
11.248626
11.338529
11.222337
10.896932
10.362572
9.623009
8.685684
7.562052
6.268322
4.825055
3.264268
1.590752
0.009345
-2.312133
-5.000000
-5.000000
-5.000000
0.000000
0.000000
0.000000
0.000000
1.758834
3.147633
4.549223
5.871645
7.105629
8.228267
9.219894
10.061634
10.736327
11.228896
11.526787
11.620321
11.502965
11.171503
10.626141
9.870605
8.912333
7.762814
6.438356
4.959861
3.359463
1.645288
0.009467
-2.305883
-5.000000
-5.000000
-5.000000
0.000000
0.000000
0.000000
0.000000
1.787036
3.198130
4.622264
5.966022
7.220001
8.360935
9.368852
10.224579
10.910689
11.411869
11.715371
11.811367
11.693219
11.357645
10.804816
10.038442
9.065962
7.898891
6.553605
5.051236
3.423993
1.682254
0.009533
-2.301654
-5.000000
-5.000000
-5.000000
0.000000
0.000000
0.000000
0.000000
1.801266
3.223609
4.659118
6.013643
7.277709
8.427874
9.444007
10.306786
10.998643
11.504148
11.810449
11.907640
11.789028
11.451295
10.894596
10.122645
9.142894
7.966893
6.611074
5.096706
3.456047
1.700591
0.009564
-2.299559
-5.000000
-5.000000
-5.000000
0.000000
0.000000
0.000000
0.000000
1.801236
3.223555
4.659039
6.013538
7.277579
8.427716
9.443818
10.306560
10.998370
11.503811
11.810025
11.907099
11.788333
11.450407
10.893484
10.121293
9.141322
7.965165
6.609313
5.095082
3.454762
1.699795
0.009519
-2.299648
-5.000000
-5.000000
-5.000000
0.000000
0.000000
0.000000
0.000000
1.786947
3.197970
4.622029
5.965713
7.219615
8.360468
9.368294
10.223913
10.909884
11.410879
11.714129
11.809786
11.691193
11.355063
10.801584
10.034521
9.061408
7.893896
6.548519
5.046550
3.420290
1.679965
0.009519
-2.301908
-5.000000
-5.000000
-5.000000
0.000000
0.000000
0.000000
0.000000
1.758689
3.147373
4.548842
5.871143
7.105003
8.227511
9.218993
10.060560
10.735034
11.227314
11.524812
11.617818
11.499772
11.167450
10.621089
9.864497
8.905259
7.755075
6.430496
4.952635
3.353764
1.641770
0.009456
-2.306274
-5.000000
-5.000000
-5.000000
0.000000
0.000000
0.000000
0.000000
1.717028
3.072779
4.440947
5.731730
6.936055
8.031536
8.998949
9.819840
10.477420
10.956925
11.246047
11.335284
11.218225
10.891745
10.356142
9.615273
8.676764
7.552333
6.258487
4.816040
3.257174
1.586380
0.009316
-2.312624
-5.000000
-5.000000
-5.000000
0.000000
0.000000
0.000000
0.000000
1.662780
2.975650
4.300462
5.550218
6.716105
7.776422
8.712536
9.506559
10.142217
10.605190
10.883538
10.968041
10.852489
10.533884
10.012601
9.292537
8.381333
7.290665
6.036908
4.640411
3.133182
1.515353
0.009066
-2.320793
-5.000000
-5.000000
-5.000000
0.000000
0.000000
0.000000
0.000000
1.596974
2.857830
4.130059
5.330065
6.449353
7.467058
8.365265
9.126777
9.735946
10.179002
10.444455
10.523438
10.409989
10.101266
9.597728
8.903294
8.025570
6.976111
5.771040
4.430060
2.984903
1.430502
0.008866
-2.330581
-5.000000
-5.000000
-5.000000
0.000000
0.000000
0.000000
0.000000
1.520806
2.721464
3.932843
5.075291
6.140685
7.109129
7.963541
8.687530
9.266178
9.686356
9.937106
10.009973
9.899289
9.602393
9.119825
8.455496
7.616914
6.615410
5.466716
4.189699
2.815710
1.333765
0.008436
-2.341788
-5.000000
-5.000000
-5.000000
0.000000
0.000000
0.000000
0.000000
1.435588
2.568902
3.712220
4.790305
5.795456
6.708864
7.514385
8.196531
8.741206
9.136004
9.370569
9.436917
9.329710
9.046486
8.587852
7.957675
7.163285
6.215671
5.130030
3.924203
2.629062
1.227119
0.007961
-2.354206
-5.000000
-5.000000
-5.000000
0.000000
0.000000
0.000000
0.000000
1.342694
2.402605
3.471752
4.479721
5.419270
6.272781
7.025137
7.661838
8.169689
8.537078
8.754312
8.813923
8.710933
8.443087
8.011046
7.418576
6.672745
5.784080
4.767087
3.638416
2.428366
1.112493
0.007218
-2.367645
-5.000000
-5.000000
-5.000000
0.000000
0.000000
0.000000
0.000000
1.243502
2.225043
3.215019
4.148168
5.017750
5.807421
6.503163
7.091535
7.560310
7.898728
8.097806
8.150630
8.052606
7.801684
7.398554
6.846822
6.153204
5.327633
4.383786
3.336970
2.216848
0.991687
0.006259
-2.381961
-5.000000
-5.000000
-5.000000
0.000000
0.000000
0.000000
0.000000
1.139344
2.038604
2.945477
3.800121
4.596328
5.319098
5.955571
6.493422
6.921443
7.229769
7.410168
7.456307
7.363989
7.131362
6.759110
6.250619
5.612149
4.852917
3.985628
3.024126
1.997404
0.866260
0.005161
-2.397131
-5.000000
-5.000000
-5.000000
0.000000
0.000000
0.000000
0.000000
1.031460
1.845508
2.666341
3.439741
4.160056
4.813683
5.388967
5.874742
6.260855
6.538373
6.699842
6.739528
6.653633
6.440494
6.100752
5.637499
5.056435
4.365917
3.577531
2.703550
1.772369
0.737277
0.003014
-2.413496
-5.000000
-5.000000
-5.000000
0.000000
0.000000
0.000000
0.000000
0.920958
1.647741
2.380485
3.070744
3.713443
4.296416
4.809244
5.241950
5.585466
5.831814
5.974334
6.007902
5.929122
5.736501
5.430594
5.014128
4.492120
3.871887
3.163675
2.377982
1.542853
0.604499
0.000991
-2.432678
-5.000000
-5.000000
-5.000000
0.000000
0.000000
0.000000
0.000000
0.808786
1.447000
2.090366
2.696306
3.260340
3.771765
4.221422
4.600544
4.901163
5.116270
5.240012
5.267879
5.196875
5.025658
4.754661
4.386169
3.924376
3.375327
2.747494
2.048918
1.307859
0.464849
-0.001463
-2.459651
-5.000000
-5.000000
-5.000000
0.000000
0.000000
0.000000
0.000000
0.695712
1.244659
1.797972
2.318996
2.803858
3.243339
3.629551
3.954948
4.212673
4.396695
4.501971
4.524610
4.462010
4.312970
4.077770
3.758191
3.357472
2.880114
2.332087
1.717985
1.062065
0.294814
-0.004496
-2.524494
-5.000000
-5.000000
-5.000000
0.000000
0.000000
0.000000
0.000000
0.582321
1.041768
1.504817
1.940768
2.346362
2.713874
3.036693
3.308501
3.523555
3.676803
3.764018
3.781928
3.728326
3.602149
3.403513
3.133668
2.794822
2.389752
1.921179
1.390528
0.801409
0.077024
-0.008519
-2.654800
-5.000000
-5.000000
-5.000000
0.000000
0.000000
0.000000
0.000000
0.468985
0.838990
1.211859
1.562853
1.889336
2.185079
2.444753
2.663267
2.835994
2.958860
3.028456
3.042132
2.998081
2.895389
2.734029
2.514751
2.238779
1.907263
1.519695
1.074343
0.548680
0.009827
-1.330718
-2.840368
-5.000000
-5.000000
-5.000000
0.000000
0.000000
0.000000
0.000000
0.356082
0.637006
0.920079
1.186511
1.434293
1.658690
1.855655
2.021318
2.152167
2.245104
2.297537
2.307441
2.273421
2.194736
2.071263
1.903354
1.691461
1.435529
1.132815
0.781890
0.336791
0.009527
-1.493390
-2.930374
-5.000000
-5.000000
-5.000000
0.000000
0.000000
0.000000
0.000000
0.242800
0.434322
0.627319
0.808947
0.977840
1.130765
1.264961
1.377789
1.466853
1.530041
1.565579
1.572082
1.548583
1.494548
1.409828
1.294525
1.148643
0.971571
0.759905
0.513372
0.181686
0.009366
-1.421227
-2.820460
-5.000000
-5.000000
-5.000000
0.000000
0.000000
0.000000
0.000000
0.134303
0.240407
0.347210
0.447734
0.541196
0.625813
0.700054
0.762458
0.811700
0.846608
0.866200
0.869707
0.856587
0.826532
0.779433
0.715288
0.633968
0.534901
0.415574
0.275878
0.080051
0.009283
-1.107105
-2.436508
-5.000000
-5.000000
-5.000000
0.000000
0.000000
0.000000
0.000000
0.000000
0.000000
0.000000
0.000000
0.000000
0.000000
0.000000
0.000000
0.000000
0.000000
0.000000
0.000000
0.000000
0.000000
0.000000
0.000000
0.000000
0.000000
0.000000
0.000000
0.000000
0.000000
0.000000
0.000000
-5.000000
-5.000000
-5.000000
0.000000
0.000000
0.000000
0.000000
0.000000
0.000000
0.000000
0.000000
0.000000
0.000000
0.000000
0.000000
0.000000
0.000000
0.000000
0.000000
0.000000
0.000000
0.000000
0.000000
0.000000
0.000000
0.000000
0.000000
0.000000
0.000000
0.000000
0.000000
-5.000000
-5.000000
-5.000000
0.000000
0.000000
0.000000
0.000000
0.000000
0.000000
0.000000
0.000000
0.000000
0.000000
0.000000
0.000000
0.000000
0.000000
0.000000
0.000000
0.000000
0.000000
0.000000
0.000000
0.000000
0.000000
0.000000
0.000000
0.000000
0.000000
0.000000
0.000000
-5.000000
-5.000000
-5.000000
0.000000
0.000000
0.000000
0.000000
0.000000
0.000000
0.000000
0.000000
0.000000
0.000000
0.000000
0.000000
0.000000
0.000000
0.000000
0.000000
0.000000
0.000000
0.000000
0.000000
0.000000
0.000000
0.000000
0.000000
0.000000
0.000000
0.000000
0.000000
-5.000000
-5.000000
-5.000000
</DataArray>
</PointData>
<Cells>
<DataArray type='Int32' Name='connectivity' format='ascii'>
0
1
2
3
4
5
6
7
8
9
10
11
12
13
14
15
16
17
18
19
20
21
22
23
24
25
26
27
28
29
30
31
32
33
34
35
36
37
38
39
40
41
42
43
44
45
46
47
48
49
50
51
52
53
54
55
56
57
58
59
60
61
62
63
64
65
66
67
68
69
70
71
72
73
74
75
76
77
78
79
80
81
82
83
84
85
86
87
88
89
90
91
92
93
94
95
96
97
98
99
100
101
102
103
104
105
106
107
108
109
110
111
112
113
114
115
116
117
118
119
120
121
122
123
124
125
126
127
128
129
130
131
132
133
134
135
136
137
138
139
140
141
142
143
144
145
146
147
148
149
150
151
152
153
154
155
156
157
158
159
160
161
162
163
164
165
166
167
168
169
170
171
172
173
174
175
176
177
178
179
180
181
182
183
184
185
186
187
188
189
190
191
192
193
194
195
196
197
198
199
200
201
202
203
204
205
206
207
208
209
210
211
212
213
214
215
216
217
218
219
220
221
222
223
224
225
226
227
228
229
230
231
232
233
234
235
236
237
238
239
240
241
242
243
244
245
246
247
248
249
250
251
252
253
254
255
256
257
258
259
260
261
262
263
264
265
266
267
268
269
270
271
272
273
274
275
276
277
278
279
280
281
282
283
284
285
286
287
288
289
290
291
292
293
294
295
296
297
298
299
300
301
302
303
304
305
306
307
308
309
310
311
312
313
314
315
316
317
318
319
320
321
322
323
324
325
326
327
328
329
330
331
332
333
334
335
336
337
338
339
340
341
342
343
344
345
346
347
348
349
350
351
352
353
354
355
356
357
358
359
360
361
362
363
364
365
366
367
368
369
370
371
372
373
374
375
376
377
378
379
380
381
382
383
384
385
386
387
388
389
390
391
392
393
394
395
396
397
398
399
400
401
402
403
404
405
406
407
408
409
410
411
412
413
414
415
416
417
418
419
420
421
422
423
424
425
426
427
428
429
430
431
432
433
434
435
436
437
438
439
440
441
442
443
444
445
446
447
448
449
450
451
452
453
454
455
456
457
458
459
460
461
462
463
464
465
466
467
468
469
470
471
472
473
474
475
476
477
478
479
480
481
482
483
484
485
486
487
488
489
490
491
492
493
494
495
496
497
498
499
500
501
502
503
504
505
506
507
508
509
510
511
512
513
514
515
516
517
518
519
520
521
522
523
524
525
526
527
528
529
530
531
532
533
534
535
536
537
538
539
540
541
542
543
544
545
546
547
548
549
550
551
552
553
554
555
556
557
558
559
560
561
562
563
564
565
566
567
568
569
570
571
572
573
574
575
576
577
578
579
580
581
582
583
584
585
586
587
588
589
590
591
592
593
594
595
596
597
598
599
600
601
602
603
604
605
606
607
608
609
610
611
612
613
614
615
616
617
618
619
620
621
622
623
624
625
626
627
628
629
630
631
632
633
634
635
636
637
638
639
640
641
642
643
644
645
646
647
648
649
650
651
652
653
654
655
656
657
658
659
660
661
662
663
664
665
666
667
668
669
670
671
672
673
674
675
676
677
678
679
680
681
682
683
684
685
686
687
688
689
690
691
692
693
694
695
696
697
698
699
700
701
702
703
704
705
706
707
708
709
710
711
712
713
714
715
716
717
718
719
720
721
722
723
724
725
726
727
728
729
730
731
732
733
734
735
736
737
738
739
740
741
742
743
744
745
746
747
748
749
750
751
752
753
754
755
756
757
758
759
760
761
762
763
764
765
766
767
768
769
770
771
772
773
774
775
776
777
778
779
780
781
782
783
784
785
786
787
788
789
790