<?xml version='1.0' encoding='UTF-8'?>
<VTKFile xmlns='VTK' byte_order='LittleEndian' version='0.1' type='UnstructuredGrid'>
<UnstructuredGrid>
<Piece NumberOfCells='1488' NumberOfPoints='1488'>
<Points>
<DataArray NumberOfComponents='3' type='Float32' Name='Position' format='ascii'>
-0.075000 -0.075000 0.000000
-0.075000 -0.050000 0.000000
-0.075000 -0.025000 0.000000
-0.075000 0.000000 0.000000
-0.075000 0.025000 0.000000
-0.075000 0.050000 0.000000
-0.075000 0.075000 0.000000
-0.075000 0.100000 0.000000
-0.075000 0.125000 0.000000
-0.075000 0.150000 0.000000
-0.075000 0.175000 0.000000
-0.075000 0.200000 0.000000
-0.075000 0.225000 0.000000
-0.075000 0.250000 0.000000
-0.075000 0.275000 0.000000
-0.075000 0.300000 0.000000
-0.075000 0.325000 0.000000
-0.075000 0.350000 0.000000
-0.075000 0.375000 0.000000
-0.075000 0.400000 0.000000
-0.075000 0.425000 0.000000
-0.075000 0.450000 0.000000
-0.075000 0.475000 0.000000
-0.075000 0.500000 0.000000
-0.075000 0.525000 0.000000
-0.075000 0.550000 0.000000
-0.075000 0.575000 0.000000
-0.075000 0.600000 0.000000
-0.075000 0.625000 0.000000
-0.075000 0.650000 0.000000
-0.075000 0.675000 0.000000
-0.050000 -0.075000 0.000000
-0.050000 -0.050000 0.000000
-0.050000 -0.025000 0.000000
-0.050000 0.000000 0.000000
-0.050000 0.025000 0.000000
-0.050000 0.050000 0.000000
-0.050000 0.075000 0.000000
-0.050000 0.100000 0.000000
-0.050000 0.125000 0.000000
-0.050000 0.150000 0.000000
-0.050000 0.175000 0.000000
-0.050000 0.200000 0.000000
-0.050000 0.225000 0.000000
-0.050000 0.250000 0.000000
-0.050000 0.275000 0.000000
-0.050000 0.300000 0.000000
-0.050000 0.325000 0.000000
-0.050000 0.350000 0.000000
-0.050000 0.375000 0.000000
-0.050000 0.400000 0.000000
-0.050000 0.425000 0.000000
-0.050000 0.450000 0.000000
-0.050000 0.475000 0.000000
-0.050000 0.500000 0.000000
-0.050000 0.525000 0.000000
-0.050000 0.550000 0.000000
-0.050000 0.575000 0.000000
-0.050000 0.600000 0.000000
-0.050000 0.625000 0.000000
-0.050000 0.650000 0.000000
-0.050000 0.675000 0.000000
-0.025000 -0.075000 0.000000
-0.025000 -0.050000 0.000000
-0.025000 -0.025000 0.000000
-0.025000 0.000000 0.000000
-0.025000 0.025000 0.000000
-0.025000 0.050000 0.000000
-0.025000 0.075000 0.000000
-0.025000 0.100000 0.000000
-0.025000 0.125000 0.000000
-0.025000 0.150000 0.000000
-0.025000 0.175000 0.000000
-0.025000 0.200000 0.000000
-0.025000 0.225000 0.000000
-0.025000 0.250000 0.000000
-0.025000 0.275000 0.000000
-0.025000 0.300000 0.000000
-0.025000 0.325000 0.000000
-0.025000 0.350000 0.000000
-0.025000 0.375000 0.000000
-0.025000 0.400000 0.000000
-0.025000 0.425000 0.000000
-0.025000 0.450000 0.000000
-0.025000 0.475000 0.000000
-0.025000 0.500000 0.000000
-0.025000 0.525000 0.000000
-0.025000 0.550000 0.000000
-0.025000 0.575000 0.000000
-0.025000 0.600000 0.000000
-0.025000 0.625000 0.000000
-0.025000 0.650000 0.000000
-0.025000 0.675000 0.000000
0.000000 -0.075000 0.000000
0.000000 -0.050000 0.000000
0.000000 -0.025000 0.000000
0.000000 0.000000 0.000000
0.000000 0.025000 0.000000
0.000000 0.050000 0.000000
0.000000 0.075000 0.000000
0.000000 0.100000 0.000000
0.000000 0.125000 0.000000
0.000000 0.150000 0.000000
0.000000 0.175000 0.000000
0.000000 0.200000 0.000000
0.000000 0.225000 0.000000
0.000000 0.250000 0.000000
0.000000 0.275000 0.000000
0.000000 0.300000 0.000000
0.000000 0.325000 0.000000
0.000000 0.350000 0.000000
0.000000 0.375000 0.000000
0.000000 0.400000 0.000000
0.000000 0.425000 0.000000
0.000000 0.450000 0.000000
0.000000 0.475000 0.000000
0.000000 0.500000 0.000000
0.000000 0.525000 0.000000
0.000000 0.550000 0.000000
0.000000 0.575000 0.000000
0.000000 0.600000 0.000000
0.000000 0.625000 0.000000
0.000000 0.650000 0.000000
0.000000 0.675000 0.000000
0.025000 -0.075000 0.000000
0.025000 -0.050000 0.000000
0.025000 -0.025000 0.000000
0.025000 0.000000 0.000000
0.025000 0.025000 0.000000
0.025000 0.050000 0.000000
0.025000 0.075000 0.000000
0.025000 0.100000 0.000000
0.025000 0.125000 0.000000
0.025000 0.150000 0.000000
0.025000 0.175000 0.000000
0.025000 0.200000 0.000000
0.025000 0.225000 0.000000
0.025000 0.250000 0.000000
0.025000 0.275000 0.000000
0.025000 0.300000 0.000000
0.025000 0.325000 0.000000
0.025000 0.350000 0.000000
0.025000 0.375000 0.000000
0.025000 0.400000 0.000000
0.025000 0.425000 0.000000
0.025000 0.450000 0.000000
0.025000 0.475000 0.000000
0.025000 0.500000 0.000000
0.025000 0.525000 0.000000
0.025000 0.550000 0.000000
0.025000 0.575000 0.000000
0.025000 0.600000 0.000000
0.025000 0.625000 0.000000
0.025000 0.650000 0.000000
0.025000 0.675000 0.000000
0.050000 -0.075000 0.000000
0.050000 -0.050000 0.000000
0.050000 -0.025000 0.000000
0.050000 0.000000 0.000000
0.050000 0.025000 0.000000
0.050000 0.050000 0.000000
0.050000 0.075000 0.000000
0.050000 0.100000 0.000000
0.050000 0.125000 0.000000
0.050000 0.150000 0.000000
0.050000 0.175000 0.000000
0.050000 0.200000 0.000000
0.050000 0.225000 0.000000
0.050000 0.250000 0.000000
0.050000 0.275000 0.000000
0.050000 0.300000 0.000000
0.050000 0.325000 0.000000
0.050000 0.350000 0.000000
0.050000 0.375000 0.000000
0.050000 0.400000 0.000000
0.050000 0.425000 0.000000
0.050000 0.450000 0.000000
0.050000 0.475000 0.000000
0.050000 0.500000 0.000000
0.050000 0.525000 0.000000
0.050000 0.550000 0.000000
0.050000 0.575000 0.000000
0.050000 0.600000 0.000000
0.050000 0.625000 0.000000
0.050000 0.650000 0.000000
0.050000 0.675000 0.000000
0.075000 -0.075000 0.000000
0.075000 -0.050000 0.000000
0.075000 -0.025000 0.000000
0.075000 0.000000 0.000000
0.075000 0.025000 0.000000
0.075000 0.050000 0.000000
0.075000 0.075000 0.000000
0.075000 0.100000 0.000000
0.075000 0.125000 0.000000
0.075000 0.150000 0.000000
0.075000 0.175000 0.000000
0.075000 0.200000 0.000000
0.075000 0.225000 0.000000
0.075000 0.250000 0.000000
0.075000 0.275000 0.000000
0.075000 0.300000 0.000000
0.075000 0.325000 0.000000
0.075000 0.350000 0.000000
0.075000 0.375000 0.000000
0.075000 0.400000 0.000000
0.075000 0.425000 0.000000
0.075000 0.450000 0.000000
0.075000 0.475000 0.000000
0.075000 0.500000 0.000000
0.075000 0.525000 0.000000
0.075000 0.550000 0.000000
0.075000 0.575000 0.000000
0.075000 0.600000 0.000000
0.075000 0.625000 0.000000
0.075000 0.650000 0.000000
0.075000 0.675000 0.000000
0.100000 -0.075000 0.000000
0.100000 -0.050000 0.000000
0.100000 -0.025000 0.000000
0.100000 0.000000 0.000000
0.100000 0.025000 0.000000
0.100000 0.050000 0.000000
0.100000 0.075000 0.000000
0.100000 0.100000 0.000000
0.100000 0.125000 0.000000
0.100000 0.150000 0.000000
0.100000 0.175000 0.000000
0.100000 0.200000 0.000000
0.100000 0.225000 0.000000
0.100000 0.250000 0.000000
0.100000 0.275000 0.000000
0.100000 0.300000 0.000000
0.100000 0.325000 0.000000
0.100000 0.350000 0.000000
0.100000 0.375000 0.000000
0.100000 0.400000 0.000000
0.100000 0.425000 0.000000
0.100000 0.450000 0.000000
0.100000 0.475000 0.000000
0.100000 0.500000 0.000000
0.100000 0.525000 0.000000
0.100000 0.550000 0.000000
0.100000 0.575000 0.000000
0.100000 0.600000 0.000000
0.100000 0.625000 0.000000
0.100000 0.650000 0.000000
0.100000 0.675000 0.000000
0.125000 -0.075000 0.000000
0.125000 -0.050000 0.000000
0.125000 -0.025000 0.000000
0.125000 0.000000 0.000000
0.125000 0.025000 0.000000
0.125000 0.050000 0.000000
0.125000 0.075000 0.000000
0.125000 0.100000 0.000000
0.125000 0.125000 0.000000
0.125000 0.150000 0.000000
0.125000 0.175000 0.000000
0.125000 0.200000 0.000000
0.125000 0.225000 0.000000
0.125000 0.250000 0.000000
0.125000 0.275000 0.000000
0.125000 0.300000 0.000000
0.125000 0.325000 0.000000
0.125000 0.350000 0.000000
0.125000 0.375000 0.000000
0.125000 0.400000 0.000000
0.125000 0.425000 0.000000
0.125000 0.450000 0.000000
0.125000 0.475000 0.000000
0.125000 0.500000 0.000000
0.125000 0.525000 0.000000
0.125000 0.550000 0.000000
0.125000 0.575000 0.000000
0.125000 0.600000 0.000000
0.125000 0.625000 0.000000
0.125000 0.650000 0.000000
0.125000 0.675000 0.000000
0.150000 -0.075000 0.000000
0.150000 -0.050000 0.000000
0.150000 -0.025000 0.000000
0.150000 0.000000 0.000000
0.150000 0.025000 0.000000
0.150000 0.050000 0.000000
0.150000 0.075000 0.000000
0.150000 0.100000 0.000000
0.150000 0.125000 0.000000
0.150000 0.150000 0.000000
0.150000 0.175000 0.000000
0.150000 0.200000 0.000000
0.150000 0.225000 0.000000
0.150000 0.250000 0.000000
0.150000 0.275000 0.000000
0.150000 0.300000 0.000000
0.150000 0.325000 0.000000
0.150000 0.350000 0.000000
0.150000 0.375000 0.000000
0.150000 0.400000 0.000000
0.150000 0.425000 0.000000
0.150000 0.450000 0.000000
0.150000 0.475000 0.000000
0.150000 0.500000 0.000000
0.150000 0.525000 0.000000
0.150000 0.550000 0.000000
0.150000 0.575000 0.000000
0.150000 0.600000 0.000000
0.150000 0.625000 0.000000
0.150000 0.650000 0.000000
0.150000 0.675000 0.000000
0.175000 -0.075000 0.000000
0.175000 -0.050000 0.000000
0.175000 -0.025000 0.000000
0.175000 0.000000 0.000000
0.175000 0.025000 0.000000
0.175000 0.050000 0.000000
0.175000 0.075000 0.000000
0.175000 0.100000 0.000000
0.175000 0.125000 0.000000
0.175000 0.150000 0.000000
0.175000 0.175000 0.000000
0.175000 0.200000 0.000000
0.175000 0.225000 0.000000
0.175000 0.250000 0.000000
0.175000 0.275000 0.000000
0.175000 0.300000 0.000000
0.175000 0.325000 0.000000
0.175000 0.350000 0.000000
0.175000 0.375000 0.000000
0.175000 0.400000 0.000000
0.175000 0.425000 0.000000
0.175000 0.450000 0.000000
0.175000 0.475000 0.000000
0.175000 0.500000 0.000000
0.175000 0.525000 0.000000
0.175000 0.550000 0.000000
0.175000 0.575000 0.000000
0.175000 0.600000 0.000000
0.175000 0.625000 0.000000
0.175000 0.650000 0.000000
0.175000 0.675000 0.000000
0.200000 -0.075000 0.000000
0.200000 -0.050000 0.000000
0.200000 -0.025000 0.000000
0.200000 0.000000 0.000000
0.200000 0.025000 0.000000
0.200000 0.050000 0.000000
0.200000 0.075000 0.000000
0.200000 0.100000 0.000000
0.200000 0.125000 0.000000
0.200000 0.150000 0.000000
0.200000 0.175000 0.000000
0.200000 0.200000 0.000000
0.200000 0.225000 0.000000
0.200000 0.250000 0.000000
[...]
<PointData>
<DataArray NumberOfComponents='1' type='Int32' Name='ParticleType' format='ascii'>
4
4
4
4
4
4
4
4
4
4
4
4
4
4
4
4
4
4
4
4
4
4
4
4
4
4
4
4
2
2
2
4
4
4
4
4
4
4
4
4
4
4
4
4
4
4
4
4
4
4
4
4
4
4
4
4
4
4
4
2
2
2
4
4
3
3
3
3
3
3
3
3
3
3
3
3
3
3
3
3
3
3
3
3
3
3
3
3
3
3
2
2
2
4
4
3
3
3
3
3
3
3
3
3
3
3
3
3
3
3
3
3
3
3
3
3
3
3
3
3
3
2
2
2
4
4
3
3
0
0
0
0
0
0
0
0
0
0
0
0
0
0
0
0
0
0
0
0
0
1
1
2
2
2
2
4
4
3
3
0
0
0
0
0
0
0
0
0
0
0
0
0
0
0
0
0
0
0
0
0
0
1
2
2
2
2
4
4
3
3
0
0
0
0
0
0
0
0
0
0
0
0
0
0
0
0
0
0
0
0
0
0
1
2
2
2
2
4
4
3
3
0
0
0
0
0
0
0
0
0
0
0
0
0
0
0
0
0
0
0
0
0
0
1
2
2
2
2
4
4
3
3
0
0
0
0
0
0
0
0
0
0
0
0
0
0
0
0
0
0
0
0
0
0
1
2
2
2
2
4
4
3
3
0
0
0
0
0
0
0
0
0
0
0
0
0
0
0
0
0
0
0
0
0
0
1
2
2
2
2
4
4
3
3
0
0
0
0
0
0
0
0
0
0
0
0
0
0
0
0
0
0
0
0
0
0
1
2
2
2
2
4
4
3
3
0
0
0
0
0
0
0
0
0
0
0
0
0
0
0
0
0
0
0
0
0
0
1
2
2
2
2
4
4
3
3
0
0
0
0
0
0
0
0
0
0
0
0
0
0
0
0
0
0
0
0
0
0
1
2
2
2
2
4
4
3
3
0
0
0
0
0
0
0
0
0
0
0
0
0
0
0
0
0
0
0
0
0
0
0
2
2
2
2
4
4
3
3
0
0
0
0
0
0
0
0
0
0
0
0
0
0
0
0
0
0
0
0
0
0
0
2
2
2
2
4
4
3
3
0
0
0
0
0
0
0
0
0
0
0
0
0
0
0
0
0
0
0
0
0
0
0
2
2
2
2
4
4
3
3
0
0
0
0
0
0
0
0
0
0
0
0
0
0
0
0
0
0
0
0
0
0
0
1
2
2
2
4
4
3
3
0
0
0
0
0
0
0
0
0
0
0
0
0
0
0
0
0
0
0
0
0
0
0
1
2
2
2
4
4
3
3
0
0
0
0
0
0
0
0
0
0
0
0
0
0
0
0
0
0
0
0
0
0
0
1
2
2
2
4
4
3
3
0
0
0
0
0
0
0
0
0
0
0
0
0
0
0
0
0
0
0
0
0
0
0
1
2
2
2
4
4
3
3
0
0
0
0
0
0
0
0
0
0
0
0
0
0
0
0
0
0
0
0
0
0
0
1
2
2
2
4
4
3
3
0
0
0
0
0
0
0
0
0
0
0
0
0
0
0
0
0
0
0
0
0
0
0
1
2
2
2
4
4
3
3
0
0
0
0
0
0
0
0
0
0
0
0
0
0
0
0
0
0
0
0
0
0
0
1
2
2
2
4
4
3
3
0
0
0
0
0
0
0
0
0
0
0
0
0
0
0
0
0
0
0
0
0
0
0
1
2
2
2
4
4
3
3
0
0
0
0
0
0
0
0
0
0
0
0
0
0
0
0
0
0
0
0
0
0
0
1
2
2
2
4
4
3
3
0
0
0
0
0
0
0
0
0
0
0
0
0
0
0
0
0
0
0
0
0
0
0
1
2
2
2
4
4
3
3
0
0
0
0
0
0
0
0
0
0
0
0
0
0
0
0
0
0
0
0
0
0
0
1
2
2
2
4
4
3
3
0
0
0
0
0
0
0
0
0
0
0
0
0
0
0
0
0
0
0
0
0
0
0
1
2
2
2
4
4
3
3
0
0
0
0
0
0
0
0
0
0
0
0
0
0
0
0
0
0
0
0
0
0
0
1
2
2
2
4
4
3
3
0
0
0
0
0
0
0
0
0
0
0
0
0
0
0
0
0
0
0
0
0
0
0
1
2
2
2
4
4
3
3
0
0
0
0
0
0
0
0
0
0
0
0
0
0
0
0
0
0
0
0
0
0
0
1
2
2
2
4
4
3
3
0
0
0
0
0
0
0
0
0
0
0
0
0
0
0
0
0
0
0
0
0
0
0
1
2
2
2
4
4
3
3
0
0
0
0
0
0
0
0
0
0
0
0
0
0
0
0
0
0
0
0
0
0
0
1
2
2
2
4
4
3
3
0
0
0
0
0
0
0
0
0
0
0
0
0
0
0
0
0
0
0
0
0
0
0
2
2
2
2
4
4
3
3
0
0
0
0
0
0
0
0
0
0
0
0
0
0
0
0
0
0
0
0
0
0
0
2
2
2
2
4
4
3
3
0
0
0
0
0
0
0
0
0
0
0
0
0
0
0
0
0
0
0
0
0
0
1
2
2
2
2
4
4
3
3
0
0
0
0
0
0
0
0
0
0
0
0
0
0
0
0
0
0
0
0
0
0
1
2
2
2
2
4
4
3
3
0
0
0
0
0
0
0
0
0
0
0
0
0
0
0
0
0
0
0
0
0
0
1
2
2
2
2
4
4
3
3
0
0
0
0
0
0
0
0
0
0
0
0
0
0
0
0
0
0
0
0
0
0
1
2
2
2
2
4
4
3
3
0
0
0
0
0
0
0
0
0
0
0
0
0
0
0
0
0
0
0
0
0
0
1
2
2
2
2
4
4
3
3
0
0
0
0
0
0
0
0
0
0
0
0
0
0
0
0
0
0
0
0
0
0
1
2
2
2
2
4
4
3
3
0
0
0
0
0
0
0
0
0
0
0
0
0
0
0
0
0
0
0
0
0
0
1
2
2
2
2
4
4
3
3
0
0
0
0
0
0
0
0
0
0
0
0
0
0
0
0
0
0
0
0
0
0
1
2
2
2
2
4
4
3
3
0
0
0
0
0
0
0
0
0
0
0
0
0
0
0
0
0
0
0
0
0
1
1
2
2
2
2
4
4
3
3
3
3
3
3
3
3
3
3
3
3
3
3
3
3
3
3
3
3
3
3
3
3
3
3
2
2
2
4
4
3
3
3
3
3
3
3
3
3
3
3
3
3
3
3
3
3
3
3
3
3
3
3
3
3
3
2
2
2
4
4
4
4
4
4
4
4
4
4
4
4
4
4
4
4
4
4
4
4
4
4
4
4
4
4
4
4
2
2
2
4
4
4
4
4
4
4
4
4
4
4
4
4
4
4
4
4
4
4
4
4
4
4
4
4
4
4
4
2
2
2
</DataArray>
<DataArray NumberOfComponents='1' type='Float32' Name='Temperature' format='ascii'>
0.000000
0.000000
0.000000
0.000000
0.000000
0.000000
0.000000
0.000000
0.000000
0.000000
0.000000
0.000000
0.000000
0.000000
0.000000
0.000000
0.000000
0.000000
0.000000
0.000000
0.000000
0.000000
0.000000
0.000000
0.000000
0.000000
0.000000
0.000000
-5.000000
-5.000000
-5.000000
0.000000
0.000000
0.000000
0.000000
0.000000
0.000000
0.000000
0.000000
0.000000
0.000000
0.000000
0.000000
0.000000
0.000000
0.000000
0.000000
0.000000
0.000000
0.000000
0.000000
0.000000
0.000000
0.000000
0.000000
0.000000
0.000000
0.000000
0.000000
-5.000000
-5.000000
-5.000000
0.000000
0.000000
0.000000
0.000000
0.000000
0.000000
0.000000
0.000000
0.000000
0.000000
0.000000
0.000000
0.000000
0.000000
0.000000
0.000000
0.000000
0.000000
0.000000
0.000000
0.000000
0.000000
0.000000
0.000000
0.000000
0.000000
0.000000
0.000000
-5.000000
-5.000000
-5.000000
0.000000
0.000000
0.000000
0.000000
0.000000
0.000000
0.000000
0.000000
0.000000
0.000000
0.000000
0.000000
0.000000
0.000000
0.000000
0.000000
0.000000
0.000000
0.000000
0.000000
0.000000
0.000000
0.000000
0.000000
0.000000
0.000000
0.000000
0.000000
-5.000000
-5.000000
-5.000000
0.000000
0.000000
0.000000
0.000000
0.161995
0.290171
0.419528
0.541809
0.656221
0.760741
0.853613
0.933115
0.997630
1.045683
1.075982
1.087471
1.079354
1.051100
1.002408
0.933106
0.843022
0.731752
0.598720
0.441198
0.264104
0.009978
0.005610
-2.125182
-5.000000
-5.000000
-5.000000
0.000000
0.000000
0.000000
0.000000
0.293492
0.525466
0.760009
0.981938
1.189881
1.380138
1.549470
1.694670
1.812705
1.900797
1.956516
1.977885
1.963441
1.912254
1.823861
1.698106
1.534900
1.333853
1.094440
0.813140
0.500289
0.068811
0.005710
-2.362799
-5.000000
-5.000000
-5.000000
0.000000
0.000000
0.000000
0.000000
0.431953
0.773669
1.119539
1.447376
1.755182
2.037456
2.289295
2.505782
2.682222
2.814286
2.898196
2.930900
2.910196
2.834774
2.704137
2.518372
2.277799
1.982483
1.632483
1.224830
0.773871
0.195554
0.006812
-2.440482
-5.000000
-5.000000
-5.000000
0.000000
0.000000
0.000000
0.000000
0.571910
1.024788
1.483887
1.920030
2.330623
2.708282
3.046284
3.337769
3.576116
3.755179
3.869598
3.915081
3.888621
3.788584
3.614617
3.367352
3.047936
2.657375
2.196724
1.664342
1.076547
0.359927
0.007585
-2.443789
-5.000000
-5.000000
-5.000000
0.000000
0.000000
0.000000
0.000000
0.715216
1.282257
1.858152
2.406715
2.924777
3.402962
3.832504
4.204310
4.509486
4.739725
4.887784
4.947919
4.916224
4.790787
4.571605
4.260203
3.859000
3.370427
2.796788
2.137713
1.409421
0.548917
0.008048
-2.427399
-5.000000
-5.000000
-5.000000
0.000000
0.000000
0.000000
0.000000
0.862369
1.547001
2.243767
2.909448
3.540323
4.124891
4.652102
5.110289
5.487896
5.774063
5.959316
6.036214
5.999840
5.848054
5.581412
5.202705
4.716117
4.126016
3.436228
2.647316
1.773234
0.760313
0.008436
-2.403205
-5.000000
-5.000000
-5.000000
0.000000
0.000000
0.000000
0.000000
1.013830
1.819868
2.642012
3.429967
4.179485
4.876800
5.508316
6.059429
6.515503
6.862703
7.088958
7.184860
7.144353
6.965108
6.648456
6.198835
5.622723
4.927040
4.117621
3.195930
2.171258
0.997194
0.009185
-2.372837
-5.000000
-5.000000
-5.000000
0.000000
0.000000
0.000000
0.000000
1.169616
2.100891
3.052929
3.968321
4.842320
5.658751
6.401208
7.051789
7.592362
8.005694
8.276746
8.393869
8.349738
8.141863
7.772550
7.248254
6.578293
5.772870
4.840705
3.784930
2.608477
1.269556
0.009526
-2.331531
-5.000000
-5.000000
-5.000000
0.000000
0.000000
0.000000
0.000000
1.329199
2.389092
3.475047
4.522514
5.526270
6.467602
7.327055
8.083092
8.713695
9.197841
9.517175
9.657554
9.610255
9.372642
8.948169
8.345637
7.577708
6.658642
5.601260
4.412170
3.089749
1.594881
0.009870
-2.263927
-5.000000
-5.000000
-5.000000
0.000000
0.000000
0.000000
0.000000
1.491383
2.682278
3.905079
5.088106
6.225687
7.296469
8.277742
9.144057
9.869179
10.427965
10.798446
10.963767
10.913693
10.645452
10.163774
9.480058
8.610708
7.574677
6.390113
5.069612
3.612698
1.987779
0.090010
-2.143825
-5.000000
-5.000000
-5.000000
0.000000
0.000000
0.000000
0.000000
1.654264
2.976963
4.337815
5.658092
6.931693
8.134564
9.240603
10.220243
11.042799
11.678758
12.102324
12.293767
12.241254
11.941876
11.401721
10.634940
9.661900
8.506589
7.193215
5.742226
4.160648
2.434560
0.457520
-1.929667
-5.000000
-5.000000
-5.000000
0.000000
0.000000
0.000000
0.000000
1.815261
3.268427
4.766222
6.223036
7.632366
8.967448
10.198726
11.292418
12.213263
12.927253
13.404646
13.622751
13.568087
13.237607
12.638784
11.788566
10.711323
9.436073
7.993085
6.410759
4.706402
2.893588
0.860424
-1.593482
-5.000000
-5.000000
-5.000000
0.000000
0.000000
0.000000
0.000000
1.971226
3.550923
5.181750
6.771493
8.313278
9.777683
11.131734
12.337450
13.355010
14.145911
14.676469
14.921032
14.864474
14.503598
13.847249
12.915121
11.735463
10.342052
8.770677
7.056537
5.226529
3.318810
1.232963
-0.008237
-5.000000
-5.000000
-5.000000
0.000000
0.000000
0.000000
0.000000
2.118620
3.817995
5.574808
7.290649
8.958304
10.545820
12.016933
13.329622
14.439655
15.304187
15.885721
16.155738
16.097517
15.707718
14.996490
13.986140
12.708557
11.201867
9.506644
7.663356
5.704684
3.684578
1.502116
-0.006789
-5.000000
-5.000000
-5.000000
0.000000
0.000000
0.000000
0.000000
2.253727
4.062875
5.935353
7.767103
9.550609
11.251580
12.830704
14.242198
15.437725
16.370394
16.999150
17.292803
17.233146
16.816695
16.054807
14.972189
13.604049
11.992395
10.181893
8.217048
6.134446
3.991370
1.693544
-0.005316
-5.000000
-5.000000
-5.000000
0.000000
0.000000
0.000000
0.000000
2.372892
4.278903
6.253510
8.187697
10.073682
11.875105
13.549943
15.049058
16.320453
17.313627
17.984348
18.299042
18.238172
17.798125
16.991329
15.844614
14.396104
12.691185
10.777996
8.704251
6.509390
4.250947
1.839920
-0.003604
-5.000000
-5.000000
-5.000000
0.000000
0.000000
0.000000
0.000000
2.472732
4.459923
6.520165
8.540296
10.512316
12.398126
14.153415
15.726220
17.061449
18.105552
18.811617
19.144052
19.082199
18.622333
17.777780
16.577157
15.061032
13.277603
11.277879
9.112167
6.822164
4.465986
1.959940
-0.003567
-5.000000
-5.000000
-5.000000
0.000000
0.000000
0.000000
0.000000
2.550331
4.600632
6.727466
8.814455
10.853434
12.804946
14.622898
16.253116
17.638097
18.721905
19.455533
19.801816
19.739215
19.263920
18.389958
17.147333
15.578520
13.733898
11.666701
9.429243
7.064974
4.632570
2.052706
-0.001765
-5.000000
-5.000000
-5.000000
0.000000
0.000000
0.000000
0.000000
2.603385
4.696838
6.869214
9.001938
11.086729
13.083206
14.944050
16.613576
18.032624
19.143624
19.896133
20.251906
20.188802
19.702950
18.808857
17.537479
15.932593
14.046073
11.932671
9.646077
7.230953
4.746386
2.116033
-0.001586
-5.000000
-5.000000
-5.000000
0.000000
0.000000
0.000000
0.000000
2.630306
4.745656
6.941140
9.097072
11.205111
13.224405
15.107016
16.796490
18.232826
19.357627
20.119718
20.480308
20.416951
19.925743
19.021436
17.735468
16.112276
14.204492
12.067639
9.756104
7.315165
4.804122
2.148158
-0.001172
-5.000000
-5.000000
-5.000000
0.000000
0.000000
0.000000
0.000000
2.630285
4.745614
6.941072
9.096972
11.204973
13.224224
15.106788
16.796215
18.232508
19.357271
20.119336
20.479911
20.416553
19.925358
19.021076
17.735144
16.111995
14.204257
12.067451
9.755962
7.315065
4.804058
2.148126
-0.001170
-5.000000
-5.000000
-5.000000
0.000000
0.000000
0.000000
0.000000
2.603322
4.696714
6.869013
9.001642
11.086321
13.082669
14.943374
16.612762
18.031680
19.142570
19.894999
20.250728
20.187622
19.701808
18.807790
17.536519
15.931760
14.045379
11.932118
9.645659
7.230657
4.746200
2.115940
-0.001578
-5.000000
-5.000000
-5.000000
0.000000
0.000000
0.000000
0.000000
2.550228
4.600430
6.727139
8.813976
10.852770
12.804073
14.621800
16.251791
17.636561
18.720189
19.453687
19.799899
19.737294
19.262062
18.388223
17.145772
15.577167
13.732774
11.665809
9.428575
7.064512
4.632290
2.052573
-0.001743
-5.000000
-5.000000
-5.000000
0.000000
0.000000
0.000000
0.000000
2.472594
4.459653
6.519728
8.539652
10.511424
12.396952
14.151937
15.724436
17.059379
18.103240
18.809128
19.141468
19.079609
18.619828
17.775443
16.575056
15.059217
13.276103
11.276703
9.111314
6.821614
4.465702
1.959849
-0.003525
-5.000000
-5.000000
-5.000000
0.000000
0.000000
0.000000
0.000000
2.372726
4.278578
6.252983
8.186919
10.072603
11.873682
13.548148
15.046890
16.317936
17.310813
17.981318
18.295895
18.235019
17.795077
16.988488
15.842066
14.393914
12.689396
10.776638
8.703361
6.509028
4.251097
1.840327
-0.003532
-5.000000
-5.000000
-5.000000
0.000000
0.000000
0.000000
0.000000
2.253543
4.062514
5.934763
7.766231
9.549395
11.249974
12.828677
14.239744
15.434872
16.367204
16.995713
17.289232
17.229568
16.813238
16.051590
14.969317
13.601603
11.990445
10.180523
8.216461
6.135138
3.993562
1.696282
-0.005214
-5.000000
-5.000000
-5.000000
0.000000
0.000000
0.000000
0.000000
2.118428
3.817618
5.574190
7.289730
8.957019
10.544114
12.014773
13.327002
14.436603
15.300770
15.882036
16.151908
16.093681
15.704015
14.993054
13.983092
12.706005
11.199926
9.505514
7.663694
5.708280
3.696631
1.528049
-0.006587
-5.000000
-5.000000
-5.000000
0.000000
0.000000
0.000000
0.000000
1.971040
3.550554
5.181141
6.770580
8.311993
9.775968
11.129552
12.334794
13.351909
14.142432
14.672714
14.917127
14.860562
14.499828
13.843766
12.912065
11.732976
10.340319
8.770086
7.058523
5.235188
3.356012
1.315772
-0.009890
-5.000000
-5.000000
-5.000000
0.000000
0.000000
0.000000
0.000000
1.815093
3.268090
4.765659
6.222180
7.631150
8.965813
10.196634
11.289859
12.210265
12.923881
13.400999
13.618955
13.564286
13.233951
12.635427
11.785667
10.709067
9.434733
7.993263
6.414665
4.721772
2.956420
1.017629
-0.007628
-5.000000
-5.000000
-5.000000
0.000000
0.000000
0.000000
0.000000
1.654124
2.976678
4.337329
5.657341
6.930610
8.133091
9.238701
10.217901
11.040041
11.675645
12.098950
12.290251
12.237733
11.938499
11.398645
10.632341
9.660008
8.505761
7.194186
5.747450
4.177657
2.499395
0.608128
-1.703772
-5.000000
-5.000000
-5.000000
0.000000
0.000000
0.000000
0.000000
1.491278
2.682059
3.904694
5.087495
6.224785
7.295221
8.276109
9.142027
9.866773
10.425236
10.795478
10.960668
10.910589
10.642482
10.161094
9.477857
8.609248
7.574368
6.391697
5.075074
3.626755
2.030395
0.178114
-2.042598
-5.000000
-5.000000
-5.000000
0.000000
0.000000
0.000000
0.000000
1.329133
2.388945
3.474774
4.522060
5.525576
6.466616
7.325740
8.081435
8.711712
9.195576
9.514700
9.654962
9.607656
9.370162
8.945953
8.343872
7.576668
6.658749
5.603160
4.417076
3.099540
1.614693
0.009706
-2.230959
-5.000000
-5.000000
-5.000000
0.000000
0.000000
0.000000
0.000000
1.169588
2.100815
3.052767
3.968025
4.841838
5.658035
6.400226
7.050527
7.590829
8.003925
8.274799
8.391821
8.347681
8.139901
7.770810
7.246907
6.577594
5.773202
4.842582
3.788976
2.614783
1.278292
0.009504
-2.321068
-5.000000
-5.000000
-5.000000
0.000000
0.000000
0.000000
0.000000
1.013833
1.819853
2.641948
3.429812
4.179196
4.876337
5.507649
6.058543
6.514404
6.861415
7.087527
7.183342
7.142820
6.963642
6.647158
6.197846
5.622253
4.927397
4.119170
3.198951
2.175362
1.001538
0.009179
-2.369771
-5.000000
-5.000000
-5.000000
0.000000
0.000000
0.000000
0.000000
0.862395
1.547031
2.243778
2.909406
3.540193
4.124639
4.651704
5.109731
5.487178
5.773201
5.958342
6.035169
5.998773
5.847023
5.580490
5.201994
4.715771
4.126251
3.437276
2.649289
1.775777
0.762708
0.008762
-2.402110
-5.000000
-5.000000
-5.000000
0.000000
0.000000
0.000000
0.000000
0.715255
1.282315
1.858211
2.406750
2.924760
3.402867
3.832312
4.204008
4.509071
4.739207
4.887182
4.947257
4.915535
4.790106
4.570977
4.259692
3.858703
3.370478
2.797324
2.138776
1.410785
0.550144
0.008247
-2.426964
-5.000000
-5.000000
-5.000000
0.000000
0.000000
0.000000
0.000000
0.571951
1.024854
1.483966
1.920104
2.330671
2.708287
3.046229
3.337644
3.575917
3.754910
3.869268
3.914703
3.888213
3.788161
3.614201
3.366977
3.047652
2.657258
2.196852
1.664743
1.077115
0.360455
0.007643
-2.443607
-5.000000
-5.000000
-5.000000
0.000000
0.000000
0.000000
0.000000
0.431989
0.773729
1.119614
1.447456
1.755253
2.037506
2.289313
2.505759
2.682154
2.814173
2.898043
2.930710
2.909975
2.834526
2.703868
2.518091
2.277529
1.982261
1.632356
1.224831
0.773979
0.195697
0.006754
-2.440410
-5.000000
-5.000000
-5.000000
0.000000
0.000000
0.000000
0.000000
0.293517
0.525509
0.760065
0.982001
1.189943
1.380192
1.549508
1.694687
1.812699
1.900765
1.956459
1.977802
1.963332
1.912117
1.823693
1.697905
1.534671
1.333614
1.094220
0.812973
0.500197
0.068794
0.005933
-2.362767
-5.000000
-5.000000
-5.000000
0.000000
0.000000
0.000000
0.000000
0.162008
0.290194
0.419558
0.541844
0.656257
0.760775
0.853641
0.933133
0.997638
1.045678
1.075965
1.087439
1.079305
1.051032
1.002315
0.932984
0.842871
0.731578
0.598539
0.441037
0.263991
0.009994
0.005478
-2.125178
-5.000000
-5.000000
-5.000000
0.000000
0.000000
0.000000
0.000000
0.000000
0.000000
0.000000
0.000000
0.000000
0.000000
0.000000
0.000000
0.000000
0.000000
0.000000
0.000000
0.000000
0.000000
0.000000
0.000000
0.000000
0.000000
0.000000
0.000000
0.000000
0.000000
0.000000
0.000000
-5.000000
-5.000000
-5.000000
0.000000
0.000000
0.000000
0.000000
0.000000
0.000000
0.000000
0.000000
0.000000
0.000000
0.000000
0.000000
0.000000
0.000000
0.000000
0.000000
0.000000
0.000000
0.000000
0.000000
0.000000
0.000000
0.000000
0.000000
0.000000
0.000000
0.000000
0.000000
-5.000000
-5.000000
-5.000000
0.000000
0.000000
0.000000
0.000000
0.000000
0.000000
0.000000
0.000000
0.000000
0.000000
0.000000
0.000000
0.000000
0.000000
0.000000
0.000000
0.000000
0.000000
0.000000
0.000000
0.000000
0.000000
0.000000
0.000000
0.000000
0.000000
0.000000
0.000000
-5.000000
-5.000000
-5.000000
0.000000
0.000000
0.000000
0.000000
0.000000
0.000000
0.000000
0.000000
0.000000
0.000000
0.000000
0.000000
0.000000
0.000000
0.000000
0.000000
0.000000
0.000000
0.000000
0.000000
0.000000
0.000000
0.000000
0.000000
0.000000
0.000000
0.000000
0.000000
-5.000000
-5.000000
-5.000000
</DataArray>
</PointData>
<Cells>
<DataArray type='Int32' Name='connectivity' format='ascii'>
0
1
2
3
4
5
6
7
8
9
10
11
12
13
14
15
16
17
18
19
20
21
22
23
24
25
26
27
28
29
30
31
32
33
34
35
36
37
38
39
40
41
42
43
44
45
46
47
48
49
50
51
52
53
54
55
56
57
58
59
60
61
62
63
64
65
66
67
68
69
70
71
72
73
74
75
76
77
78
79
80
81
82
83
84
85
86
87
88
89
90
91
92
93
94
95
96
97
98
99
100
101
102
103
104
105
106
107
108
109
110
111
112
113
114
115
116
117
118
119
120
121
122
123
124
125
126
127
128
129
130
131
132
133
134
135
136
137
138
139
140
141
142
143
144
145
146
147
148
149
150
151
152
153
154
155
156
157
158
159
160
161
162
163
164
165
166
167
168
169
170
171
172
173
174
175
176
177
178
179
180
181
182
183
184
185
186
187
188
189
190
191
192
193
194
195
196
197
198
199
200
201
202
203
204
205
206
207
208
209
210
211
212
213
214
215
216
217
218
219
220
221
222
223
224
225
226
227
228
229
230
231
232
233
234
235
236
237
238
239
240
241
242
243
244
245
246
247
248
249
250
251
252
253
254
255
256
257
258
259
260
261
262
263
264
265
266
267
268
269
270
271
272
273
274
275
276
277
278
279
280
281
282
283
284
285
286
287
288
289
290
291
292
293
294
295
296
297
298
299
300
301
302
303
304
305
306
307
308
309
310
311
312
313
314
315
316
317
318
319
320
321
322
323
324
325
326
327
328
329
330
331
332
333
334
335
336
337
338
339
340
341
342
343
344
345
346
347
348
349
350
351
352
353
354
355
356
357
358
359
360
361
362
363
364
365
366
367
368
369
370
371
372
373
374
375
376
377
378
379
380
381
382
383
384
385
386
387
388
389
390
391
392
393
394
395
396
397
398
399
400
401
402
403
404
405
406
407
408
409
410
411
412
413
414
415
416
417
418
419
420
421
422
423
424
425
426
427
428
429
430
431
432
433
434
435
436
437
438
439
440
441
442
443
444
445
446
447
448
449
450
451
452
453
454
455
456
457
458
459
460
461
462
463
464
465
466
467
468
469
470
471
472
473
474
475
476
477
478
479
480
481
482
483
484
485
486
487
488
489
490
491
492
493
494
495
496
497
498
499
500
501
502
503
504
505
506
507
508
509
510
511
512
513
514
515
516
517
518
519
520
521
522
523
524
525
526
527
528
529
530
531
532
533
534
535
536
537
538
539
540
541
542
543
544
545
546
547
548
549
550
551
552
553
554
555
556
557
558
559
560
561
562
563
564
565
566
567
568
569
570
571
572
573
574
575
576
577
578
579
580
581
582
583
584
585
586
587
588
589
590
591
592
593
594
595
596
597
598
599
600
601
602
603
604
605
606
607
608
609
610
611
612
613
614
615
616
617
618
619
620
621
622
623
624
625
626
627
628
629
630
631
632
633
634
635
636
637
638
639
640
641
642
643
644
645
646
647
648
649
650
651
652
653
654
655
656
657
658
659
660
661
662
663
664
665
666
667
668
669
670
671
672
673
674
675
676
677
678
679
680
681
682
683
684
685
686
687
688
689
690
691
692
693
694
695
696
697
698
699
700
701
702
703
704
705
706
707
708
709
710
711
712
713
714
715
716
717
718
719
720
721
722
723
724
725
726
727
728
729
730
731
732
733
734
735
736
737
738
739
740
741
742
743
744
745
746
747