<?xml version='1.0' encoding='UTF-8'?>
<VTKFile xmlns='VTK' byte_order='LittleEndian' version='0.1' type='UnstructuredGrid'>
<UnstructuredGrid>
<Piece NumberOfCells='1488' NumberOfPoints='1488'>
<Points>
<DataArray NumberOfComponents='3' type='Float32' Name='Position' format='ascii'>
-0.075000 -0.075000 0.000000
-0.075000 -0.050000 0.000000
-0.075000 -0.025000 0.000000
-0.075000 0.000000 0.000000
-0.075000 0.025000 0.000000
-0.075000 0.050000 0.000000
-0.075000 0.075000 0.000000
-0.075000 0.100000 0.000000
-0.075000 0.125000 0.000000
-0.075000 0.150000 0.000000
-0.075000 0.175000 0.000000
-0.075000 0.200000 0.000000
-0.075000 0.225000 0.000000
-0.075000 0.250000 0.000000
-0.075000 0.275000 0.000000
-0.075000 0.300000 0.000000
-0.075000 0.325000 0.000000
-0.075000 0.350000 0.000000
-0.075000 0.375000 0.000000
-0.075000 0.400000 0.000000
-0.075000 0.425000 0.000000
-0.075000 0.450000 0.000000
-0.075000 0.475000 0.000000
-0.075000 0.500000 0.000000
-0.075000 0.525000 0.000000
-0.075000 0.550000 0.000000
-0.075000 0.575000 0.000000
-0.075000 0.600000 0.000000
-0.075000 0.625000 0.000000
-0.075000 0.650000 0.000000
-0.075000 0.675000 0.000000
-0.050000 -0.075000 0.000000
-0.050000 -0.050000 0.000000
-0.050000 -0.025000 0.000000
-0.050000 0.000000 0.000000
-0.050000 0.025000 0.000000
-0.050000 0.050000 0.000000
-0.050000 0.075000 0.000000
-0.050000 0.100000 0.000000
-0.050000 0.125000 0.000000
-0.050000 0.150000 0.000000
-0.050000 0.175000 0.000000
-0.050000 0.200000 0.000000
-0.050000 0.225000 0.000000
-0.050000 0.250000 0.000000
-0.050000 0.275000 0.000000
-0.050000 0.300000 0.000000
-0.050000 0.325000 0.000000
-0.050000 0.350000 0.000000
-0.050000 0.375000 0.000000
-0.050000 0.400000 0.000000
-0.050000 0.425000 0.000000
-0.050000 0.450000 0.000000
-0.050000 0.475000 0.000000
-0.050000 0.500000 0.000000
-0.050000 0.525000 0.000000
-0.050000 0.550000 0.000000
-0.050000 0.575000 0.000000
-0.050000 0.600000 0.000000
-0.050000 0.625000 0.000000
-0.050000 0.650000 0.000000
-0.050000 0.675000 0.000000
-0.025000 -0.075000 0.000000
-0.025000 -0.050000 0.000000
-0.025000 -0.025000 0.000000
-0.025000 0.000000 0.000000
-0.025000 0.025000 0.000000
-0.025000 0.050000 0.000000
-0.025000 0.075000 0.000000
-0.025000 0.100000 0.000000
-0.025000 0.125000 0.000000
-0.025000 0.150000 0.000000
-0.025000 0.175000 0.000000
-0.025000 0.200000 0.000000
-0.025000 0.225000 0.000000
-0.025000 0.250000 0.000000
-0.025000 0.275000 0.000000
-0.025000 0.300000 0.000000
-0.025000 0.325000 0.000000
-0.025000 0.350000 0.000000
-0.025000 0.375000 0.000000
-0.025000 0.400000 0.000000
-0.025000 0.425000 0.000000
-0.025000 0.450000 0.000000
-0.025000 0.475000 0.000000
-0.025000 0.500000 0.000000
-0.025000 0.525000 0.000000
-0.025000 0.550000 0.000000
-0.025000 0.575000 0.000000
-0.025000 0.600000 0.000000
-0.025000 0.625000 0.000000
-0.025000 0.650000 0.000000
-0.025000 0.675000 0.000000
0.000000 -0.075000 0.000000
0.000000 -0.050000 0.000000
0.000000 -0.025000 0.000000
0.000000 0.000000 0.000000
0.000000 0.025000 0.000000
0.000000 0.050000 0.000000
0.000000 0.075000 0.000000
0.000000 0.100000 0.000000
0.000000 0.125000 0.000000
0.000000 0.150000 0.000000
0.000000 0.175000 0.000000
0.000000 0.200000 0.000000
0.000000 0.225000 0.000000
0.000000 0.250000 0.000000
0.000000 0.275000 0.000000
0.000000 0.300000 0.000000
0.000000 0.325000 0.000000
0.000000 0.350000 0.000000
0.000000 0.375000 0.000000
0.000000 0.400000 0.000000
0.000000 0.425000 0.000000
0.000000 0.450000 0.000000
0.000000 0.475000 0.000000
0.000000 0.500000 0.000000
0.000000 0.525000 0.000000
0.000000 0.550000 0.000000
0.000000 0.575000 0.000000
0.000000 0.600000 0.000000
0.000000 0.625000 0.000000
0.000000 0.650000 0.000000
0.000000 0.675000 0.000000
0.025000 -0.075000 0.000000
0.025000 -0.050000 0.000000
0.025000 -0.025000 0.000000
0.025000 0.000000 0.000000
0.025000 0.025000 0.000000
0.025000 0.050000 0.000000
0.025000 0.075000 0.000000
0.025000 0.100000 0.000000
0.025000 0.125000 0.000000
0.025000 0.150000 0.000000
0.025000 0.175000 0.000000
0.025000 0.200000 0.000000
0.025000 0.225000 0.000000
0.025000 0.250000 0.000000
0.025000 0.275000 0.000000
0.025000 0.300000 0.000000
0.025000 0.325000 0.000000
0.025000 0.350000 0.000000
0.025000 0.375000 0.000000
0.025000 0.400000 0.000000
0.025000 0.425000 0.000000
0.025000 0.450000 0.000000
0.025000 0.475000 0.000000
0.025000 0.500000 0.000000
0.025000 0.525000 0.000000
0.025000 0.550000 0.000000
0.025000 0.575000 0.000000
0.025000 0.600000 0.000000
0.025000 0.625000 0.000000
0.025000 0.650000 0.000000
0.025000 0.675000 0.000000
0.050000 -0.075000 0.000000
0.050000 -0.050000 0.000000
0.050000 -0.025000 0.000000
0.050000 0.000000 0.000000
0.050000 0.025000 0.000000
0.050000 0.050000 0.000000
0.050000 0.075000 0.000000
0.050000 0.100000 0.000000
0.050000 0.125000 0.000000
0.050000 0.150000 0.000000
0.050000 0.175000 0.000000
0.050000 0.200000 0.000000
0.050000 0.225000 0.000000
0.050000 0.250000 0.000000
0.050000 0.275000 0.000000
0.050000 0.300000 0.000000
0.050000 0.325000 0.000000
0.050000 0.350000 0.000000
0.050000 0.375000 0.000000
0.050000 0.400000 0.000000
0.050000 0.425000 0.000000
0.050000 0.450000 0.000000
0.050000 0.475000 0.000000
0.050000 0.500000 0.000000
0.050000 0.525000 0.000000
0.050000 0.550000 0.000000
0.050000 0.575000 0.000000
0.050000 0.600000 0.000000
0.050000 0.625000 0.000000
0.050000 0.650000 0.000000
0.050000 0.675000 0.000000
0.075000 -0.075000 0.000000
0.075000 -0.050000 0.000000
0.075000 -0.025000 0.000000
0.075000 0.000000 0.000000
0.075000 0.025000 0.000000
0.075000 0.050000 0.000000
0.075000 0.075000 0.000000
0.075000 0.100000 0.000000
0.075000 0.125000 0.000000
0.075000 0.150000 0.000000
0.075000 0.175000 0.000000
0.075000 0.200000 0.000000
0.075000 0.225000 0.000000
0.075000 0.250000 0.000000
0.075000 0.275000 0.000000
0.075000 0.300000 0.000000
0.075000 0.325000 0.000000
0.075000 0.350000 0.000000
0.075000 0.375000 0.000000
0.075000 0.400000 0.000000
0.075000 0.425000 0.000000
0.075000 0.450000 0.000000
0.075000 0.475000 0.000000
0.075000 0.500000 0.000000
0.075000 0.525000 0.000000
0.075000 0.550000 0.000000
0.075000 0.575000 0.000000
0.075000 0.600000 0.000000
0.075000 0.625000 0.000000
0.075000 0.650000 0.000000
0.075000 0.675000 0.000000
0.100000 -0.075000 0.000000
0.100000 -0.050000 0.000000
0.100000 -0.025000 0.000000
0.100000 0.000000 0.000000
0.100000 0.025000 0.000000
0.100000 0.050000 0.000000
0.100000 0.075000 0.000000
0.100000 0.100000 0.000000
0.100000 0.125000 0.000000
0.100000 0.150000 0.000000
0.100000 0.175000 0.000000
0.100000 0.200000 0.000000
0.100000 0.225000 0.000000
0.100000 0.250000 0.000000
0.100000 0.275000 0.000000
0.100000 0.300000 0.000000
0.100000 0.325000 0.000000
0.100000 0.350000 0.000000
0.100000 0.375000 0.000000
0.100000 0.400000 0.000000
0.100000 0.425000 0.000000
0.100000 0.450000 0.000000
0.100000 0.475000 0.000000
0.100000 0.500000 0.000000
0.100000 0.525000 0.000000
0.100000 0.550000 0.000000
0.100000 0.575000 0.000000
0.100000 0.600000 0.000000
0.100000 0.625000 0.000000
0.100000 0.650000 0.000000
0.100000 0.675000 0.000000
0.125000 -0.075000 0.000000
0.125000 -0.050000 0.000000
0.125000 -0.025000 0.000000
0.125000 0.000000 0.000000
0.125000 0.025000 0.000000
0.125000 0.050000 0.000000
0.125000 0.075000 0.000000
0.125000 0.100000 0.000000
0.125000 0.125000 0.000000
0.125000 0.150000 0.000000
0.125000 0.175000 0.000000
0.125000 0.200000 0.000000
0.125000 0.225000 0.000000
0.125000 0.250000 0.000000
0.125000 0.275000 0.000000
0.125000 0.300000 0.000000
0.125000 0.325000 0.000000
0.125000 0.350000 0.000000
0.125000 0.375000 0.000000
0.125000 0.400000 0.000000
0.125000 0.425000 0.000000
0.125000 0.450000 0.000000
0.125000 0.475000 0.000000
0.125000 0.500000 0.000000
0.125000 0.525000 0.000000
0.125000 0.550000 0.000000
0.125000 0.575000 0.000000
0.125000 0.600000 0.000000
0.125000 0.625000 0.000000
0.125000 0.650000 0.000000
0.125000 0.675000 0.000000
0.150000 -0.075000 0.000000
0.150000 -0.050000 0.000000
0.150000 -0.025000 0.000000
0.150000 0.000000 0.000000
0.150000 0.025000 0.000000
0.150000 0.050000 0.000000
0.150000 0.075000 0.000000
0.150000 0.100000 0.000000
0.150000 0.125000 0.000000
0.150000 0.150000 0.000000
0.150000 0.175000 0.000000
0.150000 0.200000 0.000000
0.150000 0.225000 0.000000
0.150000 0.250000 0.000000
0.150000 0.275000 0.000000
0.150000 0.300000 0.000000
0.150000 0.325000 0.000000
0.150000 0.350000 0.000000
0.150000 0.375000 0.000000
0.150000 0.400000 0.000000
0.150000 0.425000 0.000000
0.150000 0.450000 0.000000
0.150000 0.475000 0.000000
0.150000 0.500000 0.000000
0.150000 0.525000 0.000000
0.150000 0.550000 0.000000
0.150000 0.575000 0.000000
0.150000 0.600000 0.000000
0.150000 0.625000 0.000000
0.150000 0.650000 0.000000
0.150000 0.675000 0.000000
0.175000 -0.075000 0.000000
0.175000 -0.050000 0.000000
0.175000 -0.025000 0.000000
0.175000 0.000000 0.000000
0.175000 0.025000 0.000000
0.175000 0.050000 0.000000
0.175000 0.075000 0.000000
0.175000 0.100000 0.000000
0.175000 0.125000 0.000000
0.175000 0.150000 0.000000
0.175000 0.175000 0.000000
0.175000 0.200000 0.000000
0.175000 0.225000 0.000000
0.175000 0.250000 0.000000
0.175000 0.275000 0.000000
0.175000 0.300000 0.000000
0.175000 0.325000 0.000000
0.175000 0.350000 0.000000
0.175000 0.375000 0.000000
0.175000 0.400000 0.000000
0.175000 0.425000 0.000000
0.175000 0.450000 0.000000
0.175000 0.475000 0.000000
0.175000 0.500000 0.000000
0.175000 0.525000 0.000000
0.175000 0.550000 0.000000
0.175000 0.575000 0.000000
0.175000 0.600000 0.000000
0.175000 0.625000 0.000000
0.175000 0.650000 0.000000
0.175000 0.675000 0.000000
0.200000 -0.075000 0.000000
0.200000 -0.050000 0.000000
0.200000 -0.025000 0.000000
0.200000 0.000000 0.000000
0.200000 0.025000 0.000000
0.200000 0.050000 0.000000
0.200000 0.075000 0.000000
0.200000 0.100000 0.000000
0.200000 0.125000 0.000000
0.200000 0.150000 0.000000
0.200000 0.175000 0.000000
0.200000 0.200000 0.000000
0.200000 0.225000 0.000000
0.200000 0.250000 0.000000
[...]
<PointData>
<DataArray NumberOfComponents='1' type='Int32' Name='ParticleType' format='ascii'>
4
4
4
4
4
4
4
4
4
4
4
4
4
4
4
4
4
4
4
4
4
4
4
4
4
4
4
4
2
2
2
4
4
4
4
4
4
4
4
4
4
4
4
4
4
4
4
4
4
4
4
4
4
4
4
4
4
4
4
2
2
2
4
4
3
3
3
3
3
3
3
3
3
3
3
3
3
3
3
3
3
3
3
3
3
3
3
3
3
3
2
2
2
4
4
3
3
3
3
3
3
3
3
3
3
3
3
3
3
3
3
3
3
3
3
3
3
3
3
3
3
2
2
2
4
4
3
3
0
0
0
0
0
0
0
0
0
0
0
0
0
0
0
0
0
0
0
0
0
1
1
2
2
2
2
4
4
3
3
0
0
0
0
0
0
0
0
0
0
0
0
0
0
0
0
0
0
0
0
0
0
1
2
2
2
2
4
4
3
3
0
0
0
0
0
0
0
0
0
0
0
0
0
0
0
0
0
0
0
0
0
0
1
2
2
2
2
4
4
3
3
0
0
0
0
0
0
0
0
0
0
0
0
0
0
0
0
0
0
0
0
0
0
1
2
2
2
2
4
4
3
3
0
0
0
0
0
0
0
0
0
0
0
0
0
0
0
0
0
0
0
0
0
0
1
2
2
2
2
4
4
3
3
0
0
0
0
0
0
0
0
0
0
0
0
0
0
0
0
0
0
0
0
0
0
1
2
2
2
2
4
4
3
3
0
0
0
0
0
0
0
0
0
0
0
0
0
0
0
0
0
0
0
0
0
0
1
2
2
2
2
4
4
3
3
0
0
0
0
0
0
0
0
0
0
0
0
0
0
0
0
0
0
0
0
0
0
1
2
2
2
2
4
4
3
3
0
0
0
0
0
0
0
0
0
0
0
0
0
0
0
0
0
0
0
0
0
0
1
2
2
2
2
4
4
3
3
0
0
0
0
0
0
0
0
0
0
0
0
0
0
0
0
0
0
0
0
0
0
0
2
2
2
2
4
4
3
3
0
0
0
0
0
0
0
0
0
0
0
0
0
0
0
0
0
0
0
0
0
0
0
2
2
2
2
4
4
3
3
0
0
0
0
0
0
0
0
0
0
0
0
0
0
0
0
0
0
0
0
0
0
0
1
2
2
2
4
4
3
3
0
0
0
0
0
0
0
0
0
0
0
0
0
0
0
0
0
0
0
0
0
0
0
1
2
2
2
4
4
3
3
0
0
0
0
0
0
0
0
0
0
0
0
0
0
0
0
0
0
0
0
0
0
0
1
2
2
2
4
4
3
3
0
0
0
0
0
0
0
0
0
0
0
0
0
0
0
0
0
0
0
0
0
0
0
1
2
2
2
4
4
3
3
0
0
0
0
0
0
0
0
0
0
0
0
0
0
0
0
0
0
0
0
0
0
0
1
2
2
2
4
4
3
3
0
0
0
0
0
0
0
0
0
0
0
0
0
0
0
0
0
0
0
0
0
0
0
1
2
2
2
4
4
3
3
0
0
0
0
0
0
0
0
0
0
0
0
0
0
0
0
0
0
0
0
0
0
0
1
2
2
2
4
4
3
3
0
0
0
0
0
0
0
0
0
0
0
0
0
0
0
0
0
0
0
0
0
0
0
1
2
2
2
4
4
3
3
0
0
0
0
0
0
0
0
0
0
0
0
0
0
0
0
0
0
0
0
0
0
0
1
2
2
2
4
4
3
3
0
0
0
0
0
0
0
0
0
0
0
0
0
0
0
0
0
0
0
0
0
0
0
1
2
2
2
4
4
3
3
0
0
0
0
0
0
0
0
0
0
0
0
0
0
0
0
0
0
0
0
0
0
0
1
2
2
2
4
4
3
3
0
0
0
0
0
0
0
0
0
0
0
0
0
0
0
0
0
0
0
0
0
0
0
1
2
2
2
4
4
3
3
0
0
0
0
0
0
0
0
0
0
0
0
0
0
0
0
0
0
0
0
0
0
0
1
2
2
2
4
4
3
3
0
0
0
0
0
0
0
0
0
0
0
0
0
0
0
0
0
0
0
0
0
0
0
1
2
2
2
4
4
3
3
0
0
0
0
0
0
0
0
0
0
0
0
0
0
0
0
0
0
0
0
0
0
0
1
2
2
2
4
4
3
3
0
0
0
0
0
0
0
0
0
0
0
0
0
0
0
0
0
0
0
0
0
0
0
1
2
2
2
4
4
3
3
0
0
0
0
0
0
0
0
0
0
0
0
0
0
0
0
0
0
0
0
0
0
0
1
2
2
2
4
4
3
3
0
0
0
0
0
0
0
0
0
0
0
0
0
0
0
0
0
0
0
0
0
0
0
1
2
2
2
4
4
3
3
0
0
0
0
0
0
0
0
0
0
0
0
0
0
0
0
0
0
0
0
0
0
0
1
2
2
2
4
4
3
3
0
0
0
0
0
0
0
0
0
0
0
0
0
0
0
0
0
0
0
0
0
0
0
2
2
2
2
4
4
3
3
0
0
0
0
0
0
0
0
0
0
0
0
0
0
0
0
0
0
0
0
0
0
1
2
2
2
2
4
4
3
3
0
0
0
0
0
0
0
0
0
0
0
0
0
0
0
0
0
0
0
0
0
0
1
2
2
2
2
4
4
3
3
0
0
0
0
0
0
0
0
0
0
0
0
0
0
0
0
0
0
0
0
0
0
1
2
2
2
2
4
4
3
3
0
0
0
0
0
0
0
0
0
0
0
0
0
0
0
0
0
0
0
0
0
0
1
2
2
2
2
4
4
3
3
0
0
0
0
0
0
0
0
0
0
0
0
0
0
0
0
0
0
0
0
0
0
1
2
2
2
2
4
4
3
3
0
0
0
0
0
0
0
0
0
0
0
0
0
0
0
0
0
0
0
0
0
0
1
2
2
2
2
4
4
3
3
0
0
0
0
0
0
0
0
0
0
0
0
0
0
0
0
0
0
0
0
0
0
1
2
2
2
2
4
4
3
3
0
0
0
0
0
0
0
0
0
0
0
0
0
0
0
0
0
0
0
0
0
0
1
2
2
2
2
4
4
3
3
0
0
0
0
0
0
0
0
0
0
0
0
0
0
0
0
0
0
0
0
0
1
1
2
2
2
2
4
4
3
3
3
3
3
3
3
3
3
3
3
3
3
3
3
3
3
3
3
3
3
3
3
3
3
3
2
2
2
4
4
3
3
3
3
3
3
3
3
3
3
3
3
3
3
3
3
3
3
3
3
3
3
3
3
3
3
2
2
2
4
4
4
4
4
4
4
4
4
4
4
4
4
4
4
4
4
4
4
4
4
4
4
4
4
4
4
4
2
2
2
4
4
4
4
4
4
4
4
4
4
4
4
4
4
4
4
4
4
4
4
4
4
4
4
4
4
4
4
2
2
2
</DataArray>
<DataArray NumberOfComponents='1' type='Float32' Name='Temperature' format='ascii'>
0.000000
0.000000
0.000000
0.000000
0.000000
0.000000
0.000000
0.000000
0.000000
0.000000
0.000000
0.000000
0.000000
0.000000
0.000000
0.000000
0.000000
0.000000
0.000000
0.000000
0.000000
0.000000
0.000000
0.000000
0.000000
0.000000
0.000000
0.000000
-5.000000
-5.000000
-5.000000
0.000000
0.000000
0.000000
0.000000
0.000000
0.000000
0.000000
0.000000
0.000000
0.000000
0.000000
0.000000
0.000000
0.000000
0.000000
0.000000
0.000000
0.000000
0.000000
0.000000
0.000000
0.000000
0.000000
0.000000
0.000000
0.000000
0.000000
0.000000
-5.000000
-5.000000
-5.000000
0.000000
0.000000
0.000000
0.000000
0.000000
0.000000
0.000000
0.000000
0.000000
0.000000
0.000000
0.000000
0.000000
0.000000
0.000000
0.000000
0.000000
0.000000
0.000000
0.000000
0.000000
0.000000
0.000000
0.000000
0.000000
0.000000
0.000000
0.000000
-5.000000
-5.000000
-5.000000
0.000000
0.000000
0.000000
0.000000
0.000000
0.000000
0.000000
0.000000
0.000000
0.000000
0.000000
0.000000
0.000000
0.000000
0.000000
0.000000
0.000000
0.000000
0.000000
0.000000
0.000000
0.000000
0.000000
0.000000
0.000000
0.000000
0.000000
0.000000
-5.000000
-5.000000
-5.000000
0.000000
0.000000
0.000000
0.000000
0.163051
0.291993
0.422017
0.544791
0.659523
0.764204
0.857118
0.936589
1.001052
1.049078
1.079413
1.091025
1.083132
1.055213
1.006971
0.938236
0.848811
0.738203
0.605618
0.447918
0.269540
0.009981
0.005989
-2.124757
-5.000000
-5.000000
-5.000000
0.000000
0.000000
0.000000
0.000000
0.295295
0.528582
0.764285
0.987097
1.195647
1.386262
1.555763
1.701017
1.819073
1.907217
1.963076
1.984706
1.970665
1.920039
1.832379
1.707542
1.545417
1.345484
1.106873
0.825404
0.510634
0.075504
0.006142
-2.361912
-5.000000
-5.000000
-5.000000
0.000000
0.000000
0.000000
0.000000
0.434385
0.777894
1.125386
1.454517
1.763296
2.046257
2.298566
2.515392
2.692122
2.824496
2.908784
2.941962
2.921845
2.847144
2.717396
2.532733
2.293492
1.999616
1.650734
1.243018
0.789543
0.206074
0.007205
-2.439049
-5.000000
-5.000000
-5.000000
0.000000
0.000000
0.000000
0.000000
0.574793
1.029843
1.490983
1.928872
2.340934
2.719820
3.058867
3.351283
3.590498
3.770399
3.885634
3.931909
3.906217
3.806944
3.633806
3.387542
3.069403
2.680361
2.221040
1.688748
1.097950
0.374606
0.007925
-2.441712
-5.000000
-5.000000
-5.000000
0.000000
0.000000
0.000000
0.000000
0.718414
1.287943
1.866309
2.417181
2.937426
3.417691
3.849242
4.222994
4.530032
4.761998
4.911579
4.972964
4.942211
4.817432
4.598734
4.287848
3.887448
3.400114
2.827842
2.169101
1.437501
0.568750
0.008342
-2.424323
-5.000000
-5.000000
-5.000000
0.000000
0.000000
0.000000
0.000000
0.865817
1.553256
2.253012
2.921767
3.555856
4.143784
4.674470
5.136155
5.517138
5.806369
5.994181
6.072960
6.037697
5.886274
5.619418
5.240257
4.753443
4.163787
3.475110
2.686933
1.809693
0.787335
0.008683
-2.398046
-5.000000
-5.000000
-5.000000
0.000000
0.000000
0.000000
0.000000
1.017565
1.826821
2.652655
3.444745
4.198932
4.901418
5.538481
6.095281
6.556852
6.908977
7.139204
7.237816
7.198584
7.019192
6.701217
6.249594
5.671531
4.974791
4.165735
3.245340
2.218603
1.035449
0.009376
-2.362512
-5.000000
-5.000000
-5.000000
0.000000
0.000000
0.000000
0.000000
1.173789
2.108867
3.065567
3.986545
4.867172
5.691195
6.441954
7.101114
7.649969
8.070649
8.347497
8.468373
8.425673
8.216909
7.844718
7.316232
6.641788
5.832888
4.899510
3.845480
2.670000
1.327804
0.009666
-2.304919
-5.000000
-5.000000
-5.000000
0.000000
0.000000
0.000000
0.000000
1.334052
2.398583
3.490514
4.545461
5.558358
6.510353
7.381570
8.149796
8.792141
9.286627
9.613994
9.759381
9.713661
9.474185
9.044831
8.435270
7.659471
6.733427
5.672004
4.484181
3.167959
1.686704
0.009947
-2.195082
-5.000000
-5.000000
-5.000000
0.000000
0.000000
0.000000
0.000000
1.497219
2.693878
3.924337
5.117197
6.266983
7.352124
8.349298
9.232089
9.973041
10.545687
10.926815
11.098596
11.050242
10.778952
10.289981
9.595801
8.714389
7.666778
6.473764
5.151972
3.705080
2.122552
0.287353
-1.979112
-5.000000
-5.000000
-5.000000
0.000000
0.000000
0.000000
0.000000
1.661400
2.991276
4.361823
5.694703
6.984061
8.205529
9.332179
10.333150
11.176147
11.829922
12.267063
12.466578
12.415920
12.112133
11.561945
10.780789
9.790860
8.618463
7.290711
5.832684
4.259410
2.591616
0.721939
-1.609189
-5.000000
-5.000000
-5.000000
0.000000
0.000000
0.000000
0.000000
1.823977
3.285979
4.795795
6.268310
7.697314
9.055630
10.312639
11.432920
12.379183
13.115246
13.609354
13.837250
13.784571
13.448202
12.836387
11.967582
10.868239
9.569874
8.105648
6.508121
4.802026
3.033126
1.092926
-0.009985
-5.000000
-5.000000
-5.000000
0.000000
0.000000
0.000000
0.000000
1.981723
3.572083
5.217440
6.826175
8.391754
9.884234
11.269338
12.507092
13.555211
14.372576
14.923081
15.179197
15.124744
14.756448
14.084057
13.129022
11.921951
10.499316
8.899724
7.161651
5.315957
3.418183
1.361155
-0.008738
-5.000000
-5.000000
-5.000000
0.000000
0.000000
0.000000
0.000000
2.130991
3.842923
5.616827
7.354983
9.050560
10.670979
12.178434
13.528560
14.674240
15.569573
16.174239
16.457541
16.401539
16.002803
15.272531
14.235038
12.924881
11.383136
9.653243
7.778316
5.793353
3.754900
1.561370
-0.005675
-5.000000
-5.000000
-5.000000
0.000000
0.000000
0.000000
0.000000
2.267947
4.091498
5.983543
7.840796
9.656162
11.394625
13.015107
14.469148
15.705132
16.672695
17.327588
17.636158
17.578821
17.152001
16.368242
15.254513
13.849005
12.196976
10.346151
8.343512
6.227295
4.054372
1.729506
-0.004377
-5.000000
-5.000000
-5.000000
0.000000
0.000000
0.000000
0.000000
2.388820
4.310930
6.307364
8.269945
10.191354
12.034411
13.755124
15.301385
16.617561
17.649307
18.348862
18.679934
18.621474
18.169772
17.338570
16.157199
14.667067
12.917119
10.958812
8.842460
6.609105
4.316333
1.875451
-0.002797
-5.000000
-5.000000
-5.000000
0.000000
0.000000
0.000000
0.000000
2.490130
4.494875
6.578874
8.629863
10.640335
12.571295
14.376290
16.000137
17.383808
18.469596
19.206775
19.556824
19.497454
19.024844
18.153745
16.915478
15.354158
13.521826
11.473062
9.260972
6.928986
4.535427
1.997224
-0.002805
-5.000000
-5.000000
-5.000000
0.000000
0.000000
0.000000
0.000000
2.568888
4.637886
6.789992
8.909771
10.989572
12.988983
14.859635
16.543940
17.980222
19.108145
19.874669
20.239528
20.179468
19.690578
18.788399
17.505803
15.889019
13.992495
11.873248
9.586561
7.177739
4.705717
2.091864
-0.001104
-5.000000
-5.000000
-5.000000
0.000000
0.000000
0.000000
0.000000
2.622740
4.735676
6.934364
9.101202
11.228440
13.274699
15.190295
16.915992
18.388298
19.545077
20.331701
20.706710
20.646185
20.146155
19.222703
17.909762
16.255009
14.314543
12.147047
9.809296
7.347884
4.822179
2.156567
-0.000952
-5.000000
-5.000000
-5.000000
0.000000
0.000000
0.000000
0.000000
2.650067
4.785300
7.007626
9.198345
11.349656
13.419688
15.358091
17.104794
18.595381
19.766805
20.563629
20.943789
20.883030
20.377350
19.443104
18.114766
16.440746
14.477982
12.285999
9.922333
7.434231
4.881279
2.189405
-0.000564
-5.000000
-5.000000
-5.000000
0.000000
0.000000
0.000000
0.000000
2.650048
4.785262
7.007563
9.198250
11.349523
13.419511
15.357866
17.104520
18.595062
19.766446
20.563241
20.943386
20.882626
20.376960
19.442741
18.114440
16.440465
14.477749
12.285814
9.922193
7.434133
4.881217
2.189374
-0.000561
-5.000000
-5.000000
-5.000000
0.000000
0.000000
0.000000
0.000000
2.622683
4.735563
6.934177
9.100922
11.228046
13.274173
15.189626
16.915178
18.387349
19.544012
20.330551
20.705514
20.644987
20.144998
19.221625
17.908795
16.254174
14.313852
12.146499
9.808883
7.347594
4.821997
2.156475
-0.000944
-5.000000
-5.000000
-5.000000
0.000000
0.000000
0.000000
0.000000
2.568795
4.637702
6.789688
8.909315
10.988930
12.988127
14.858546
16.542614
17.978674
19.106408
19.872794
20.237579
20.177515
19.688691
18.786642
17.504227
15.887660
13.991371
11.872359
9.585894
7.177272
4.705426
2.091720
-0.001083
-5.000000
-5.000000
-5.000000
0.000000
0.000000
0.000000
0.000000
2.490006
4.494628
6.578465
8.629249
10.639471
12.570140
14.374820
15.998347
17.381718
18.467251
19.204243
19.554191
19.494815
19.022295
18.151372
16.913351
15.352327
13.520315
11.471872
9.260088
6.928375
4.535054
1.997045
-0.002765
-5.000000
-5.000000
-5.000000
0.000000
0.000000
0.000000
0.000000
2.388669
4.310631
6.306869
8.269202
10.190305
12.033008
13.753335
15.299205
16.615013
17.646446
18.345772
18.676720
18.618253
18.166661
17.335676
16.154609
14.664843
12.915294
10.957392
8.841425
6.608412
4.315928
1.875273
-0.002728
-5.000000
-5.000000
-5.000000
0.000000
0.000000
0.000000
0.000000
2.267780
4.091166
5.982990
7.839961
9.654980
11.393039
13.013081
14.466675
15.702239
16.669445
17.324076
17.632503
17.575159
17.148465
16.364955
15.251579
13.846499
12.194945
10.344610
8.342441
6.226642
4.054062
1.729428
-0.004283
-5.000000
-5.000000
-5.000000
0.000000
0.000000
0.000000
0.000000
2.130818
3.842577
5.616248
7.354103
9.049308
10.669293
12.176274
13.525916
14.671142
15.566087
16.170468
16.453617
16.397606
15.999008
15.269010
14.231908
12.922236
11.381046
9.651745
7.777404
5.792986
3.754970
1.561659
-0.005522
-5.000000
-5.000000
-5.000000
0.000000
0.000000
0.000000
0.000000
1.981557
3.571747
5.216872
6.825304
8.390504
9.882541
11.267157
12.504413
13.552063
14.369028
14.919238
15.175194
15.120731
14.752579
14.080478
13.125863
11.919333
10.497350
8.898498
7.161205
5.316288
3.421117
1.370207
-0.008531
-5.000000
-5.000000
-5.000000
0.000000
0.000000
0.000000
0.000000
1.823829
3.285677
4.795275
6.267501
7.696140
9.054022
10.310554
11.430346
12.376145
13.111812
13.605628
13.833365
13.780676
13.444452
12.832930
11.964566
10.865820
9.568230
8.104967
6.508538
4.803582
3.043432
1.119713
-0.009758
-5.000000
-5.000000
-5.000000
0.000000
0.000000
0.000000
0.000000
1.661282
2.991027
4.361384
5.694004
6.983026
8.204092
9.330295
10.330807
11.173366
11.826765
12.263629
12.462992
12.412324
12.108675
11.558775
10.778068
9.788785
8.617306
7.290813
5.834349
4.263344
2.607036
0.768519
-0.009557
-5.000000
-5.000000
-5.000000
0.000000
0.000000
0.000000
0.000000
1.497137
2.693697
3.924002
5.116641
6.266136
7.350922
8.347698
9.230075
9.970633
10.542938
10.923813
11.095454
11.047089
10.775925
10.287225
9.593483
8.712747
7.666177
6.474722
5.155002
3.710183
2.136695
0.317272
-1.813461
-5.000000
-5.000000
-5.000000
0.000000
0.000000
0.000000
0.000000
1.334009
2.398476
3.490293
4.545066
5.557726
6.509424
7.380304
8.148176
8.790181
9.284371
9.611516
9.756780
9.711046
9.471678
9.042563
8.433407
7.658267
6.733308
5.673607
4.488195
3.174358
1.696419
0.009769
-2.136992
-5.000000
-5.000000
-5.000000
0.000000
0.000000
0.000000
0.000000
1.173783
2.108830
3.065459
3.986312
4.866757
5.690547
6.441035
7.099907
7.648483
8.068918
8.345580
8.466349
8.423632
8.214952
7.842956
7.314814
6.640954
5.833054
4.901305
3.849588
2.676289
1.335074
0.009640
-2.292896
-5.000000
-5.000000
-5.000000
0.000000
0.000000
0.000000
0.000000
1.017590
1.826844
2.652642
3.444653
4.198712
4.901028
5.537887
6.094466
6.555819
6.907750
7.137829
7.236351
7.197098
7.017760
6.699927
6.248565
5.670959
4.975016
4.167256
3.248662
2.223460
1.040632
0.009368
-2.359615
-5.000000
-5.000000
-5.000000
0.000000
0.000000
0.000000
0.000000
0.865862
1.553321
2.253071
2.921784
3.555793
4.143606
4.674148
5.135674
5.516497
5.805584
5.993281
6.071987
6.036698
5.885299
5.618528
5.239534
4.753025
4.163908
3.476096
2.689068
1.812705
0.790283
0.009000
-2.397152
-5.000000
-5.000000
-5.000000
0.000000
0.000000
0.000000
0.000000
0.718469
1.288029
1.866408
2.417268
2.937470
3.417665
3.849124
4.222770
4.529697
4.761562
4.911059
4.972385
4.941600
4.816819
4.598152
4.287344
3.887103
3.400066
2.828276
2.170152
1.438996
0.570164
0.008534
-2.423967
-5.000000
-5.000000
-5.000000
0.000000
0.000000
0.000000
0.000000
0.574847
1.029932
1.491095
1.928989
2.341033
2.719883
3.058878
3.351229
3.590375
3.770208
3.885385
3.931613
3.905886
3.806591
3.633440
3.387181
3.069083
2.680155
2.221045
1.689041
1.098469
0.375141
0.007981
-2.441559
-5.000000
-5.000000
-5.000000
0.000000
0.000000
0.000000
0.000000
0.434430
0.777970
1.125486
1.454629
1.763407
2.046353
2.298636
2.515427
2.692117
2.824450
2.908700
2.941842
2.921692
2.846957
2.717171
2.532466
2.293191
1.999312
1.650481
1.242877
0.789535
0.206152
0.007150
-2.438990
-5.000000
-5.000000
-5.000000
0.000000
0.000000
0.000000
0.000000
0.295326
0.528635
0.764357
0.987181
1.195736
1.386347
1.555838
1.701076
1.819112
1.907234
1.963070
1.984675
1.970607
1.919947
1.832242
1.707349
1.545161
1.345175
1.106541
0.825103
0.510419
0.075407
0.006357
-2.361888
-5.000000
-5.000000
-5.000000
0.000000
0.000000
0.000000
0.000000
0.163067
0.292021
0.422055
0.544836
0.659572
0.764255
0.857165
0.936631
1.001086
1.049102
1.079426
1.091023
1.083113
1.055171
1.006896
0.938118
0.848642
0.737982
0.605362
0.447662
0.269340
0.009997
0.005862
-2.124757
-5.000000
-5.000000
-5.000000
0.000000
0.000000
0.000000
0.000000
0.000000
0.000000
0.000000
0.000000
0.000000
0.000000
0.000000
0.000000
0.000000
0.000000
0.000000
0.000000
0.000000
0.000000
0.000000
0.000000
0.000000
0.000000
0.000000
0.000000
0.000000
0.000000
0.000000
0.000000
-5.000000
-5.000000
-5.000000
0.000000
0.000000
0.000000
0.000000
0.000000
0.000000
0.000000
0.000000
0.000000
0.000000
0.000000
0.000000
0.000000
0.000000
0.000000
0.000000
0.000000
0.000000
0.000000
0.000000
0.000000
0.000000
0.000000
0.000000
0.000000
0.000000
0.000000
0.000000
-5.000000
-5.000000
-5.000000
0.000000
0.000000
0.000000
0.000000
0.000000
0.000000
0.000000
0.000000
0.000000
0.000000
0.000000
0.000000
0.000000
0.000000
0.000000
0.000000
0.000000
0.000000
0.000000
0.000000
0.000000
0.000000
0.000000
0.000000
0.000000
0.000000
0.000000
0.000000
-5.000000
-5.000000
-5.000000
0.000000
0.000000
0.000000
0.000000
0.000000
0.000000
0.000000
0.000000
0.000000
0.000000
0.000000
0.000000
0.000000
0.000000
0.000000
0.000000
0.000000
0.000000
0.000000
0.000000
0.000000
0.000000
0.000000
0.000000
0.000000
0.000000
0.000000
0.000000
-5.000000
-5.000000
-5.000000
</DataArray>
</PointData>
<Cells>
<DataArray type='Int32' Name='connectivity' format='ascii'>
0
1
2
3
4
5
6
7
8
9
10
11
12
13
14
15
16
17
18
19
20
21
22
23
24
25
26
27
28
29
30
31
32
33
34
35
36
37
38
39
40
41
42
43
44
45
46
47
48
49
50
51
52
53
54
55
56
57
58
59
60
61
62
63
64
65
66
67
68
69
70
71
72
73
74
75
76
77
78
79
80
81
82
83
84
85
86
87
88
89
90
91
92
93
94
95
96
97
98
99
100
101
102
103
104
105
106
107
108
109
110
111
112
113
114
115
116
117
118
119
120
121
122
123
124
125
126
127
128
129
130
131
132
133
134
135
136
137
138
139
140
141
142
143
144
145
146
147
148
149
150
151
152
153
154
155
156
157
158
159
160
161
162
163
164
165
166
167
168
169
170
171
172
173
174
175
176
177
178
179
180
181
182
183
184
185
186
187
188
189
190
191
192
193
194
195
196
197
198
199
200
201
202
203
204
205
206
207
208
209
210
211
212
213
214
215
216
217
218
219
220
221
222
223
224
225
226
227
228
229
230
231
232
233
234
235
236
237
238
239
240
241
242
243
244
245
246
247
248
249
250
251
252
253
254
255
256
257
258
259
260
261
262
263
264
265
266
267
268
269
270
271
272
273
274
275
276
277
278
279
280
281
282
283
284
285
286
287
288
289
290
291
292
293
294
295
296
297
298
299
300
301
302
303
304
305
306
307
308
309
310
311
312
313
314
315
316
317
318
319
320
321
322
323
324
325
326
327
328
329
330
331
332
333
334
335
336
337
338
339
340
341
342
343
344
345
346
347
348
349
350
351
352
353
354
355
356
357
358
359
360
361
362
363
364
365
366
367
368
369
370
371
372
373
374
375
376
377
378
379
380
381
382
383
384
385
386
387
388
389
390
391
392
393
394
395
396
397
398
399
400
401
402
403
404
405
406
407
408
409
410
411
412
413
414
415
416
417
418
419
420
421
422
423
424
425
426
427
428
429
430
431
432
433
434
435
436
437
438
439
440
441
442
443
444
445
446
447
448
449
450
451
452
453
454
455
456
457
458
459
460
461
462
463
464
465
466
467
468
469
470
471
472
473
474
475
476
477
478
479
480
481
482
483
484
485
486
487
488
489
490
491
492
493
494
495
496
497
498
499
500
501
502
503
504
505
506
507
508
509
510
511
512
513
514
515
516
517
518
519
520
521
522
523
524
525
526
527
528
529
530
531
532
533
534
535
536
537
538
539
540
541
542
543
544
545
546
547
548
549
550
551
552
553
554
555
556
557
558
559
560
561
562
563
564
565
566
567
568
569
570
571
572
573
574
575
576
577
578
579
580
581
582
583
584
585
586
587
588
589
590
591
592
593
594
595
596
597
598
599
600
601
602
603
604
605
606
607
608
609
610
611
612
613
614
615
616
617
618
619
620
621
622
623
624
625
626
627
628
629
630
631
632
633
634
635
636
637
638
639
640
641
642
643
644
645
646
647
648
649
650
651
652
653
654
655
656
657
658
659
660
661
662
663
664
665
666
667
668
669
670
671
672
673
674
675
676
677
678
679
680
681
682
683
684
685
686
687
688
689
690
691
692
693
694
695
696
697
698
699
700
701
702
703
704
705
706
707
708
709
710
711
712
713
714
715
716
717
718
719
720
721
722
723
724
725
726
727
728
729
730
731
732
733
734
735
736
737
738
739
740
741
742
743
744
745
746
747