<?xml version='1.0' encoding='UTF-8'?>
<VTKFile xmlns='VTK' byte_order='LittleEndian' version='0.1' type='UnstructuredGrid'>
<UnstructuredGrid>
<Piece NumberOfCells='1488' NumberOfPoints='1488'>
<Points>
<DataArray NumberOfComponents='3' type='Float32' Name='Position' format='ascii'>
-0.075000 -0.075000 0.000000
-0.075000 -0.050000 0.000000
-0.075000 -0.025000 0.000000
-0.075000 0.000000 0.000000
-0.075000 0.025000 0.000000
-0.075000 0.050000 0.000000
-0.075000 0.075000 0.000000
-0.075000 0.100000 0.000000
-0.075000 0.125000 0.000000
-0.075000 0.150000 0.000000
-0.075000 0.175000 0.000000
-0.075000 0.200000 0.000000
-0.075000 0.225000 0.000000
-0.075000 0.250000 0.000000
-0.075000 0.275000 0.000000
-0.075000 0.300000 0.000000
-0.075000 0.325000 0.000000
-0.075000 0.350000 0.000000
-0.075000 0.375000 0.000000
-0.075000 0.400000 0.000000
-0.075000 0.425000 0.000000
-0.075000 0.450000 0.000000
-0.075000 0.475000 0.000000
-0.075000 0.500000 0.000000
-0.075000 0.525000 0.000000
-0.075000 0.550000 0.000000
-0.075000 0.575000 0.000000
-0.075000 0.600000 0.000000
-0.075000 0.625000 0.000000
-0.075000 0.650000 0.000000
-0.075000 0.675000 0.000000
-0.050000 -0.075000 0.000000
-0.050000 -0.050000 0.000000
-0.050000 -0.025000 0.000000
-0.050000 0.000000 0.000000
-0.050000 0.025000 0.000000
-0.050000 0.050000 0.000000
-0.050000 0.075000 0.000000
-0.050000 0.100000 0.000000
-0.050000 0.125000 0.000000
-0.050000 0.150000 0.000000
-0.050000 0.175000 0.000000
-0.050000 0.200000 0.000000
-0.050000 0.225000 0.000000
-0.050000 0.250000 0.000000
-0.050000 0.275000 0.000000
-0.050000 0.300000 0.000000
-0.050000 0.325000 0.000000
-0.050000 0.350000 0.000000
-0.050000 0.375000 0.000000
-0.050000 0.400000 0.000000
-0.050000 0.425000 0.000000
-0.050000 0.450000 0.000000
-0.050000 0.475000 0.000000
-0.050000 0.500000 0.000000
-0.050000 0.525000 0.000000
-0.050000 0.550000 0.000000
-0.050000 0.575000 0.000000
-0.050000 0.600000 0.000000
-0.050000 0.625000 0.000000
-0.050000 0.650000 0.000000
-0.050000 0.675000 0.000000
-0.025000 -0.075000 0.000000
-0.025000 -0.050000 0.000000
-0.025000 -0.025000 0.000000
-0.025000 0.000000 0.000000
-0.025000 0.025000 0.000000
-0.025000 0.050000 0.000000
-0.025000 0.075000 0.000000
-0.025000 0.100000 0.000000
-0.025000 0.125000 0.000000
-0.025000 0.150000 0.000000
-0.025000 0.175000 0.000000
-0.025000 0.200000 0.000000
-0.025000 0.225000 0.000000
-0.025000 0.250000 0.000000
-0.025000 0.275000 0.000000
-0.025000 0.300000 0.000000
-0.025000 0.325000 0.000000
-0.025000 0.350000 0.000000
-0.025000 0.375000 0.000000
-0.025000 0.400000 0.000000
-0.025000 0.425000 0.000000
-0.025000 0.450000 0.000000
-0.025000 0.475000 0.000000
-0.025000 0.500000 0.000000
-0.025000 0.525000 0.000000
-0.025000 0.550000 0.000000
-0.025000 0.575000 0.000000
-0.025000 0.600000 0.000000
-0.025000 0.625000 0.000000
-0.025000 0.650000 0.000000
-0.025000 0.675000 0.000000
0.000000 -0.075000 0.000000
0.000000 -0.050000 0.000000
0.000000 -0.025000 0.000000
0.000000 0.000000 0.000000
0.000000 0.025000 0.000000
0.000000 0.050000 0.000000
0.000000 0.075000 0.000000
0.000000 0.100000 0.000000
0.000000 0.125000 0.000000
0.000000 0.150000 0.000000
0.000000 0.175000 0.000000
0.000000 0.200000 0.000000
0.000000 0.225000 0.000000
0.000000 0.250000 0.000000
0.000000 0.275000 0.000000
0.000000 0.300000 0.000000
0.000000 0.325000 0.000000
0.000000 0.350000 0.000000
0.000000 0.375000 0.000000
0.000000 0.400000 0.000000
0.000000 0.425000 0.000000
0.000000 0.450000 0.000000
0.000000 0.475000 0.000000
0.000000 0.500000 0.000000
0.000000 0.525000 0.000000
0.000000 0.550000 0.000000
0.000000 0.575000 0.000000
0.000000 0.600000 0.000000
0.000000 0.625000 0.000000
0.000000 0.650000 0.000000
0.000000 0.675000 0.000000
0.025000 -0.075000 0.000000
0.025000 -0.050000 0.000000
0.025000 -0.025000 0.000000
0.025000 0.000000 0.000000
0.025000 0.025000 0.000000
0.025000 0.050000 0.000000
0.025000 0.075000 0.000000
0.025000 0.100000 0.000000
0.025000 0.125000 0.000000
0.025000 0.150000 0.000000
0.025000 0.175000 0.000000
0.025000 0.200000 0.000000
0.025000 0.225000 0.000000
0.025000 0.250000 0.000000
0.025000 0.275000 0.000000
0.025000 0.300000 0.000000
0.025000 0.325000 0.000000
0.025000 0.350000 0.000000
0.025000 0.375000 0.000000
0.025000 0.400000 0.000000
0.025000 0.425000 0.000000
0.025000 0.450000 0.000000
0.025000 0.475000 0.000000
0.025000 0.500000 0.000000
0.025000 0.525000 0.000000
0.025000 0.550000 0.000000
0.025000 0.575000 0.000000
0.025000 0.600000 0.000000
0.025000 0.625000 0.000000
0.025000 0.650000 0.000000
0.025000 0.675000 0.000000
0.050000 -0.075000 0.000000
0.050000 -0.050000 0.000000
0.050000 -0.025000 0.000000
0.050000 0.000000 0.000000
0.050000 0.025000 0.000000
0.050000 0.050000 0.000000
0.050000 0.075000 0.000000
0.050000 0.100000 0.000000
0.050000 0.125000 0.000000
0.050000 0.150000 0.000000
0.050000 0.175000 0.000000
0.050000 0.200000 0.000000
0.050000 0.225000 0.000000
0.050000 0.250000 0.000000
0.050000 0.275000 0.000000
0.050000 0.300000 0.000000
0.050000 0.325000 0.000000
0.050000 0.350000 0.000000
0.050000 0.375000 0.000000
0.050000 0.400000 0.000000
0.050000 0.425000 0.000000
0.050000 0.450000 0.000000
0.050000 0.475000 0.000000
0.050000 0.500000 0.000000
0.050000 0.525000 0.000000
0.050000 0.550000 0.000000
0.050000 0.575000 0.000000
0.050000 0.600000 0.000000
0.050000 0.625000 0.000000
0.050000 0.650000 0.000000
0.050000 0.675000 0.000000
0.075000 -0.075000 0.000000
0.075000 -0.050000 0.000000
0.075000 -0.025000 0.000000
0.075000 0.000000 0.000000
0.075000 0.025000 0.000000
0.075000 0.050000 0.000000
0.075000 0.075000 0.000000
0.075000 0.100000 0.000000
0.075000 0.125000 0.000000
0.075000 0.150000 0.000000
0.075000 0.175000 0.000000
0.075000 0.200000 0.000000
0.075000 0.225000 0.000000
0.075000 0.250000 0.000000
0.075000 0.275000 0.000000
0.075000 0.300000 0.000000
0.075000 0.325000 0.000000
0.075000 0.350000 0.000000
0.075000 0.375000 0.000000
0.075000 0.400000 0.000000
0.075000 0.425000 0.000000
0.075000 0.450000 0.000000
0.075000 0.475000 0.000000
0.075000 0.500000 0.000000
0.075000 0.525000 0.000000
0.075000 0.550000 0.000000
0.075000 0.575000 0.000000
0.075000 0.600000 0.000000
0.075000 0.625000 0.000000
0.075000 0.650000 0.000000
0.075000 0.675000 0.000000
0.100000 -0.075000 0.000000
0.100000 -0.050000 0.000000
0.100000 -0.025000 0.000000
0.100000 0.000000 0.000000
0.100000 0.025000 0.000000
0.100000 0.050000 0.000000
0.100000 0.075000 0.000000
0.100000 0.100000 0.000000
0.100000 0.125000 0.000000
0.100000 0.150000 0.000000
0.100000 0.175000 0.000000
0.100000 0.200000 0.000000
0.100000 0.225000 0.000000
0.100000 0.250000 0.000000
0.100000 0.275000 0.000000
0.100000 0.300000 0.000000
0.100000 0.325000 0.000000
0.100000 0.350000 0.000000
0.100000 0.375000 0.000000
0.100000 0.400000 0.000000
0.100000 0.425000 0.000000
0.100000 0.450000 0.000000
0.100000 0.475000 0.000000
0.100000 0.500000 0.000000
0.100000 0.525000 0.000000
0.100000 0.550000 0.000000
0.100000 0.575000 0.000000
0.100000 0.600000 0.000000
0.100000 0.625000 0.000000
0.100000 0.650000 0.000000
0.100000 0.675000 0.000000
0.125000 -0.075000 0.000000
0.125000 -0.050000 0.000000
0.125000 -0.025000 0.000000
0.125000 0.000000 0.000000
0.125000 0.025000 0.000000
0.125000 0.050000 0.000000
0.125000 0.075000 0.000000
0.125000 0.100000 0.000000
0.125000 0.125000 0.000000
0.125000 0.150000 0.000000
0.125000 0.175000 0.000000
0.125000 0.200000 0.000000
0.125000 0.225000 0.000000
0.125000 0.250000 0.000000
0.125000 0.275000 0.000000
0.125000 0.300000 0.000000
0.125000 0.325000 0.000000
0.125000 0.350000 0.000000
0.125000 0.375000 0.000000
0.125000 0.400000 0.000000
0.125000 0.425000 0.000000
0.125000 0.450000 0.000000
0.125000 0.475000 0.000000
0.125000 0.500000 0.000000
0.125000 0.525000 0.000000
0.125000 0.550000 0.000000
0.125000 0.575000 0.000000
0.125000 0.600000 0.000000
0.125000 0.625000 0.000000
0.125000 0.650000 0.000000
0.125000 0.675000 0.000000
0.150000 -0.075000 0.000000
0.150000 -0.050000 0.000000
0.150000 -0.025000 0.000000
0.150000 0.000000 0.000000
0.150000 0.025000 0.000000
0.150000 0.050000 0.000000
0.150000 0.075000 0.000000
0.150000 0.100000 0.000000
0.150000 0.125000 0.000000
0.150000 0.150000 0.000000
0.150000 0.175000 0.000000
0.150000 0.200000 0.000000
0.150000 0.225000 0.000000
0.150000 0.250000 0.000000
0.150000 0.275000 0.000000
0.150000 0.300000 0.000000
0.150000 0.325000 0.000000
0.150000 0.350000 0.000000
0.150000 0.375000 0.000000
0.150000 0.400000 0.000000
0.150000 0.425000 0.000000
0.150000 0.450000 0.000000
0.150000 0.475000 0.000000
0.150000 0.500000 0.000000
0.150000 0.525000 0.000000
0.150000 0.550000 0.000000
0.150000 0.575000 0.000000
0.150000 0.600000 0.000000
0.150000 0.625000 0.000000
0.150000 0.650000 0.000000
0.150000 0.675000 0.000000
0.175000 -0.075000 0.000000
0.175000 -0.050000 0.000000
0.175000 -0.025000 0.000000
0.175000 0.000000 0.000000
0.175000 0.025000 0.000000
0.175000 0.050000 0.000000
0.175000 0.075000 0.000000
0.175000 0.100000 0.000000
0.175000 0.125000 0.000000
0.175000 0.150000 0.000000
0.175000 0.175000 0.000000
0.175000 0.200000 0.000000
0.175000 0.225000 0.000000
0.175000 0.250000 0.000000
0.175000 0.275000 0.000000
0.175000 0.300000 0.000000
0.175000 0.325000 0.000000
0.175000 0.350000 0.000000
0.175000 0.375000 0.000000
0.175000 0.400000 0.000000
0.175000 0.425000 0.000000
0.175000 0.450000 0.000000
0.175000 0.475000 0.000000
0.175000 0.500000 0.000000
0.175000 0.525000 0.000000
0.175000 0.550000 0.000000
0.175000 0.575000 0.000000
0.175000 0.600000 0.000000
0.175000 0.625000 0.000000
0.175000 0.650000 0.000000
0.175000 0.675000 0.000000
0.200000 -0.075000 0.000000
0.200000 -0.050000 0.000000
0.200000 -0.025000 0.000000
0.200000 0.000000 0.000000
0.200000 0.025000 0.000000
0.200000 0.050000 0.000000
0.200000 0.075000 0.000000
0.200000 0.100000 0.000000
0.200000 0.125000 0.000000
0.200000 0.150000 0.000000
0.200000 0.175000 0.000000
0.200000 0.200000 0.000000
0.200000 0.225000 0.000000
0.200000 0.250000 0.000000
[...]
<PointData>
<DataArray NumberOfComponents='1' type='Int32' Name='ParticleType' format='ascii'>
4
4
4
4
4
4
4
4
4
4
4
4
4
4
4
4
4
4
4
4
4
4
4
4
4
4
4
4
2
2
2
4
4
4
4
4
4
4
4
4
4
4
4
4
4
4
4
4
4
4
4
4
4
4
4
4
4
4
4
2
2
2
4
4
3
3
3
3
3
3
3
3
3
3
3
3
3
3
3
3
3
3
3
3
3
3
3
3
3
3
2
2
2
4
4
3
3
3
3
3
3
3
3
3
3
3
3
3
3
3
3
3
3
3
3
3
3
3
3
3
3
2
2
2
4
4
3
3
0
0
0
0
0
0
0
0
0
0
0
0
0
0
0
0
0
0
0
0
0
0
1
1
2
2
2
4
4
3
3
0
0
0
0
0
0
0
0
0
0
0
0
0
0
0
0
0
0
0
0
0
0
1
1
2
2
2
4
4
3
3
0
0
0
0
0
0
0
0
0
0
0
0
0
0
0
0
0
0
0
0
0
0
1
1
2
2
2
4
4
3
3
0
0
0
0
0
0
0
0
0
0
0
0
0
0
0
0
0
0
0
0
0
0
1
1
2
2
2
4
4
3
3
0
0
0
0
0
0
0
0
0
0
0
0
0
0
0
0
0
0
0
0
0
0
0
1
2
2
2
4
4
3
3
0
0
0
0
0
0
0
0
0
0
0
0
0
0
0
0
0
0
0
0
0
0
0
1
2
2
2
4
4
3
3
0
0
0
0
0
0
0
0
0
0
0
0
0
0
0
0
0
0
0
0
0
0
0
1
2
2
2
4
4
3
3
0
0
0
0
0
0
0
0
0
0
0
0
0
0
0
0
0
0
0
0
0
0
0
1
2
2
2
4
4
3
3
0
0
0
0
0
0
0
0
0
0
0
0
0
0
0
0
0
0
0
0
0
0
0
1
2
2
2
4
4
3
3
0
0
0
0
0
0
0
0
0
0
0
0
0
0
0
0
0
0
0
0
0
0
0
1
2
2
2
4
4
3
3
0
0
0
0
0
0
0
0
0
0
0
0
0
0
0
0
0
0
0
0
0
0
0
1
2
2
2
4
4
3
3
0
0
0
0
0
0
0
0
0
0
0
0
0
0
0
0
0
0
0
0
0
0
0
1
2
2
2
4
4
3
3
0
0
0
0
0
0
0
0
0
0
0
0
0
0
0
0
0
0
0
0
0
0
0
1
2
2
2
4
4
3
3
0
0
0
0
0
0
0
0
0
0
0
0
0
0
0
0
0
0
0
0
0
0
0
1
2
2
2
4
4
3
3
0
0
0
0
0
0
0
0
0
0
0
0
0
0
0
0
0
0
0
0
0
0
0
1
2
2
2
4
4
3
3
0
0
0
0
0
0
0
0
0
0
0
0
0
0
0
0
0
0
0
0
0
0
0
1
2
2
2
4
4
3
3
0
0
0
0
0
0
0
0
0
0
0
0
0
0
0
0
0
0
0
0
0
0
0
1
2
2
2
4
4
3
3
0
0
0
0
0
0
0
0
0
0
0
0
0
0
0
0
0
0
0
0
0
0
0
1
2
2
2
4
4
3
3
0
0
0
0
0
0
0
0
0
0
0
0
0
0
0
0
0
0
0
0
0
0
0
1
2
2
2
4
4
3
3
0
0
0
0
0
0
0
0
0
0
0
0
0
0
0
0
0
0
0
0
0
0
0
1
2
2
2
4
4
3
3
0
0
0
0
0
0
0
0
0
0
0
0
0
0
0
0
0
0
0
0
0
0
0
1
2
2
2
4
4
3
3
0
0
0
0
0
0
0
0
0
0
0
0
0
0
0
0
0
0
0
0
0
0
0
1
2
2
2
4
4
3
3
0
0
0
0
0
0
0
0
0
0
0
0
0
0
0
0
0
0
0
0
0
0
0
1
2
2
2
4
4
3
3
0
0
0
0
0
0
0
0
0
0
0
0
0
0
0
0
0
0
0
0
0
0
0
1
2
2
2
4
4
3
3
0
0
0
0
0
0
0
0
0
0
0
0
0
0
0
0
0
0
0
0
0
0
0
1
2
2
2
4
4
3
3
0
0
0
0
0
0
0
0
0
0
0
0
0
0
0
0
0
0
0
0
0
0
0
1
2
2
2
4
4
3
3
0
0
0
0
0
0
0
0
0
0
0
0
0
0
0
0
0
0
0
0
0
0
0
1
2
2
2
4
4
3
3
0
0
0
0
0
0
0
0
0
0
0
0
0
0
0
0
0
0
0
0
0
0
0
1
2
2
2
4
4
3
3
0
0
0
0
0
0
0
0
0
0
0
0
0
0
0
0
0
0
0
0
0
0
0
1
2
2
2
4
4
3
3
0
0
0
0
0
0
0
0
0
0
0
0
0
0
0
0
0
0
0
0
0
0
0
1
2
2
2
4
4
3
3
0
0
0
0
0
0
0
0
0
0
0
0
0
0
0
0
0
0
0
0
0
0
0
1
2
2
2
4
4
3
3
0
0
0
0
0
0
0
0
0
0
0
0
0
0
0
0
0
0
0
0
0
0
0
1
2
2
2
4
4
3
3
0
0
0
0
0
0
0
0
0
0
0
0
0
0
0
0
0
0
0
0
0
0
0
1
2
2
2
4
4
3
3
0
0
0
0
0
0
0
0
0
0
0
0
0
0
0
0
0
0
0
0
0
0
0
1
2
2
2
4
4
3
3
0
0
0
0
0
0
0
0
0
0
0
0
0
0
0
0
0
0
0
0
0
0
0
1
2
2
2
4
4
3
3
0
0
0
0
0
0
0
0
0
0
0
0
0
0
0
0
0
0
0
0
0
0
0
1
2
2
2
4
4
3
3
0
0
0
0
0
0
0
0
0
0
0
0
0
0
0
0
0
0
0
0
0
0
1
1
2
2
2
4
4
3
3
0
0
0
0
0
0
0
0
0
0
0
0
0
0
0
0
0
0
0
0
0
0
1
1
2
2
2
4
4
3
3
0
0
0
0
0
0
0
0
0
0
0
0
0
0
0
0
0
0
0
0
0
0
1
1
2
2
2
4
4
3
3
0
0
0
0
0
0
0
0
0
0
0
0
0
0
0
0
0
0
0
0
0
0
1
1
2
2
2
4
4
3
3
3
3
3
3
3
3
3
3
3
3
3
3
3
3
3
3
3
3
3
3
3
3
3
3
2
2
2
4
4
3
3
3
3
3
3
3
3
3
3
3
3
3
3
3
3
3
3
3
3
3
3
3
3
3
3
2
2
2
4
4
4
4
4
4
4
4
4
4
4
4
4
4
4
4
4
4
4
4
4
4
4
4
4
4
4
4
2
2
2
4
4
4
4
4
4
4
4
4
4
4
4
4
4
4
4
4
4
4
4
4
4
4
4
4
4
4
4
2
2
2
</DataArray>
<DataArray NumberOfComponents='1' type='Float32' Name='Temperature' format='ascii'>
0.000000
0.000000
0.000000
0.000000
0.000000
0.000000
0.000000
0.000000
0.000000
0.000000
0.000000
0.000000
0.000000
0.000000
0.000000
0.000000
0.000000
0.000000
0.000000
0.000000
0.000000
0.000000
0.000000
0.000000
0.000000
0.000000
0.000000
0.000000
-5.000000
-5.000000
-5.000000
0.000000
0.000000
0.000000
0.000000
0.000000
0.000000
0.000000
0.000000
0.000000
0.000000
0.000000
0.000000
0.000000
0.000000
0.000000
0.000000
0.000000
0.000000
0.000000
0.000000
0.000000
0.000000
0.000000
0.000000
0.000000
0.000000
0.000000
0.000000
-5.000000
-5.000000
-5.000000
0.000000
0.000000
0.000000
0.000000
0.000000
0.000000
0.000000
0.000000
0.000000
0.000000
0.000000
0.000000
0.000000
0.000000
0.000000
0.000000
0.000000
0.000000
0.000000
0.000000
0.000000
0.000000
0.000000
0.000000
0.000000
0.000000
0.000000
0.000000
-5.000000
-5.000000
-5.000000
0.000000
0.000000
0.000000
0.000000
0.000000
0.000000
0.000000
0.000000
0.000000
0.000000
0.000000
0.000000
0.000000
0.000000
0.000000
0.000000
0.000000
0.000000
0.000000
0.000000
0.000000
0.000000
0.000000
0.000000
0.000000
0.000000
0.000000
0.000000
-5.000000
-5.000000
-5.000000
0.000000
0.000000
0.000000
0.000000
0.211986
0.374490
0.530690
0.668295
0.786782
0.885650
0.965915
1.029183
1.077167
1.111295
1.132499
1.141133
1.136968
1.119181
1.086343
1.036404
0.966756
0.874462
0.756664
0.611605
0.438140
0.243692
0.009119
-0.002986
-5.000000
-5.000000
-5.000000
0.000000
0.000000
0.000000
0.000000
0.376355
0.664826
0.943148
1.189327
1.402547
1.581807
1.728673
1.845634
1.935302
1.999762
2.040262
2.057131
2.049805
2.016847
1.955922
1.863748
1.736167
1.568490
1.356119
1.096289
0.786438
0.444613
0.009328
-0.002118
-5.000000
-5.000000
-5.000000
0.000000
0.000000
0.000000
0.000000
0.537968
0.951410
1.351926
1.708591
2.020352
2.285555
2.505888
2.684080
2.822858
2.924153
2.988797
3.016546
3.006229
2.955838
2.862495
2.722341
2.530521
2.281532
1.969926
1.592576
1.145243
0.654960
0.009858
-0.001099
-5.000000
-5.000000
-5.000000
0.000000
0.000000
0.000000
0.000000
0.686820
1.216592
1.732922
2.197191
2.608299
2.963736
3.264625
3.512893
3.710119
3.856770
3.952093
3.994413
3.981530
3.910961
3.779899
3.584974
3.322023
2.986269
2.572895
2.079524
1.501435
0.871635
0.009964
-0.000697
-5.000000
-5.000000
-5.000000
0.000000
0.000000
0.000000
0.000000
0.825110
1.464712
2.093138
2.665435
3.180695
3.635281
4.028871
4.361234
4.631135
4.835835
4.971423
5.033618
5.018600
4.923503
4.746373
4.485694
4.139778
3.706514
3.183596
2.570990
1.865392
1.104911
0.112917
-0.000204
-5.000000
-5.000000
-5.000000
0.000000
0.000000
0.000000
0.000000
0.955429
1.700719
2.440448
3.124719
3.753138
4.320602
4.824280
5.260108
5.621970
5.901730
6.090322
6.179360
6.162633
6.036977
5.802237
5.460428
5.014495
4.467328
3.821325
3.080488
2.244876
1.355510
0.245978
0.000749
-5.000000
-5.000000
-5.000000
0.000000
0.000000
0.000000
0.000000
1.081945
1.932315
2.786525
3.591070
4.346450
5.045711
5.682288
6.246349
6.724470
7.100527
7.357924
7.482366
7.464310
7.300366
6.993262
6.550485
5.982104
5.298664
4.509695
3.625000
2.649026
1.624569
0.391726
0.001162
-5.000000
-5.000000
-5.000000
0.000000
0.000000
0.000000
0.000000
1.209021
2.167442
3.143155
4.080263
4.980596
5.834928
6.631642
7.353019
7.975650
8.472547
8.816927
8.986556
8.967485
8.756155
8.359364
7.792191
7.074550
6.227527
5.270361
4.220508
3.087560
1.915356
0.549309
0.001066
-5.000000
-5.000000
-5.000000
0.000000
0.000000
0.000000
0.000000
1.340212
2.412436
3.519470
4.604078
5.669879
6.704952
7.691300
8.601156
9.398380
10.042149
10.492730
10.717843
10.698001
10.429518
9.924469
9.207699
8.311756
7.271202
6.117609
4.877965
3.567887
2.231937
0.720253
0.001973
-5.000000
-5.000000
-5.000000
0.000000
0.000000
0.000000
0.000000
1.477404
2.670454
3.919578
5.167069
6.418772
7.659693
8.864221
9.992536
10.993189
11.808723
12.383856
12.674254
12.653820
12.318770
11.687581
10.796905
9.694535
8.431264
7.053446
5.599384
4.091619
2.575307
0.904954
0.001989
-5.000000
-5.000000
-5.000000
0.000000
0.000000
0.000000
0.000000
1.620344
2.940614
4.341267
5.764803
7.219663
8.687471
10.134004
11.505741
12.733804
13.741793
14.456717
14.820529
14.799629
14.390153
13.617909
12.533040
11.200735
9.690289
8.064863
6.375553
4.652594
2.941676
1.101474
0.002697
-5.000000
-5.000000
-5.000000
0.000000
0.000000
0.000000
0.000000
1.766633
3.217986
4.776035
6.383956
8.053037
9.761325
11.465333
13.096758
14.567896
15.781876
16.646573
17.089131
17.067853
16.578809
15.655752
14.363426
12.785842
11.012294
9.124086
7.186084
5.236730
3.322207
1.305190
0.002969
-5.000000
-5.000000
-5.000000
0.000000
0.000000
0.000000
0.000000
1.912148
3.494410
5.210394
7.004217
8.890104
10.842476
12.808361
14.704304
16.423292
17.847463
18.865070
19.388074
19.366481
18.796305
17.719459
16.215673
14.388271
12.347061
10.191948
8.001892
5.823698
3.704028
1.509373
0.002854
-5.000000
-5.000000
-5.000000
0.000000
0.000000
0.000000
0.000000
2.051767
3.759896
5.628093
7.601506
9.697218
11.886124
14.106013
16.258673
18.218301
19.846602
21.012743
21.613915
21.592058
20.943135
19.717003
18.007976
15.938173
13.637366
11.223556
8.789420
6.389891
4.072092
1.706140
0.003904
-5.000000
-5.000000
-5.000000
0.000000
0.000000
0.000000
0.000000
2.180215
4.004225
6.012671
8.151671
10.440933
12.848070
15.302322
17.691842
19.873484
21.690106
22.993275
23.666567
23.644490
22.922961
21.559161
19.660852
17.367481
14.827230
12.174799
9.515528
6.911864
4.411371
1.887485
0.004116
-5.000000
-5.000000
-5.000000
0.000000
0.000000
0.000000
0.000000
2.292802
4.218369
6.349691
8.633705
11.092384
13.690440
16.349617
18.946150
21.321751
23.302851
24.725678
25.461948
25.439692
24.654788
23.170799
21.107200
18.618534
15.869034
13.007965
10.151730
7.369355
4.708806
2.046484
0.004610
-5.000000
-5.000000
-5.000000
0.000000
0.000000
0.000000
0.000000
2.385903
4.395391
6.628154
9.031753
11.629991
14.385162
17.212831
19.979447
22.514315
24.630414
26.151425
26.939365
26.916969
26.080085
24.497488
22.298232
19.649208
16.727781
13.695148
10.676789
7.747151
4.954551
2.177877
0.004224
-5.000000
-5.000000
-5.000000
0.000000
0.000000
0.000000
0.000000
2.457104
4.530710
6.840882
9.335605
12.040048
14.914642
17.870252
20.765908
23.421528
25.639930
27.235323
28.062400
28.039904
27.163652
25.506359
23.204303
20.433694
17.381815
14.218885
11.077259
8.035510
5.142239
2.278305
0.005028
-5.000000
-5.000000
-5.000000
0.000000
0.000000
0.000000
0.000000
2.505053
4.621799
6.983988
9.539860
12.315480
15.270018
18.311194
21.293081
24.029345
26.316039
27.961069
28.814261
28.791698
27.889183
26.182044
23.811363
20.959549
17.820484
14.570397
11.346228
8.229313
5.268462
2.345868
0.004935
-5.000000
-5.000000
-5.000000
0.000000
0.000000
0.000000
0.000000
2.529145
4.667547
7.055821
9.642323
12.453557
15.448061
18.531977
21.556910
24.333412
26.654167
28.323948
29.190160
29.167565
28.251956
26.519961
24.115051
21.222718
18.040125
14.746494
11.481052
8.326514
5.331798
2.379786
0.005097
-5.000000
-5.000000
-5.000000
0.000000
0.000000
0.000000
0.000000
2.529177
4.667600
7.055886
9.642387
12.453606
15.448079
18.531950
21.556829
24.333272
26.653975
28.323715
29.189905
29.167309
28.251722
26.519767
24.114909
21.222632
18.040092
14.746503
11.481089
8.326563
5.331842
2.379815
0.005099
-5.000000
-5.000000
-5.000000
0.000000
0.000000
0.000000
0.000000
2.505145
4.621949
6.984171
9.540037
12.315604
15.270042
18.311074
21.292789
24.028871
26.315399
27.960301
28.813424
28.790861
27.888413
26.181399
23.810881
20.959245
17.820347
14.570394
11.346316
8.229442
5.268584
2.345951
0.004941
-5.000000
-5.000000
-5.000000
0.000000
0.000000
0.000000
0.000000
2.457246
4.530938
6.841152
9.335850
12.040186
14.914590
17.869938
20.765280
23.420574
25.638679
27.233844
28.060799
28.038301
27.162170
25.505101
23.203337
20.433047
17.381471
14.218792
11.077339
8.035677
5.142414
2.278428
0.005042
-5.000000
-5.000000
-5.000000
0.000000
0.000000
0.000000
0.000000
2.386081
4.395671
6.628471
9.032007
11.630065
14.384934
17.212196
19.978333
22.512706
24.628355
26.149025
26.936779
26.914383
26.077680
24.495421
22.296607
19.648069
16.727106
13.694863
10.676783
7.747302
4.954742
2.178022
0.004249
-5.000000
-5.000000
-5.000000
0.000000
0.000000
0.000000
0.000000
2.293003
4.218676
6.350017
8.633917
11.092328
13.689955
16.348564
18.944438
21.319361
23.299848
24.722210
25.458228
25.435970
24.651314
23.167785
21.104790
18.616790
15.867933
13.007410
10.151577
7.369444
4.708983
2.046636
0.004652
-5.000000
-5.000000
-5.000000
0.000000
0.000000
0.000000
0.000000
2.180429
4.004543
6.012985
8.151817
10.440722
12.847305
15.300834
17.689523
19.870311
21.686164
22.988751
23.661729
23.639650
22.918430
21.555206
19.657656
17.365123
14.825686
12.173953
9.515206
6.911869
4.411518
1.887635
0.004171
-5.000000
-5.000000
-5.000000
0.000000
0.000000
0.000000
0.000000
2.051991
3.760222
5.628397
7.601599
9.696885
11.885138
14.104182
16.255874
18.214512
19.841922
21.007389
21.608197
21.586337
20.937772
19.712306
18.004160
15.935331
13.635471
11.222479
8.788962
6.389829
4.072215
1.706289
0.003989
-5.000000
-5.000000
-5.000000
0.000000
0.000000
0.000000
0.000000
1.912386
3.494755
5.210712
7.004308
8.889735
10.841406
12.806384
14.701287
16.419213
17.842428
18.859311
19.381925
19.360329
18.790536
17.714405
16.211562
14.385205
12.345012
10.190776
8.001387
5.823620
3.704153
1.509530
0.002956
-5.000000
-5.000000
-5.000000
0.000000
0.000000
0.000000
0.000000
1.766892
3.218368
4.776407
6.384118
8.052754
9.760356
11.463470
13.093867
14.563952
15.776983
16.640962
17.083132
17.061849
16.573185
15.650837
14.359445
12.782895
11.010351
9.123006
7.185655
5.236711
3.322373
1.305369
0.003058
-5.000000
-5.000000
-5.000000
0.000000
0.000000
0.000000
0.000000
1.620630
2.941052
4.341733
5.765108
7.219589
8.686789
10.132517
11.503320
12.730422
13.737542
14.451807
14.815262
14.794357
14.385229
13.613633
12.529617
11.198253
9.688714
8.064061
6.375322
4.652708
2.941921
1.101692
0.002778
-5.000000
-5.000000
-5.000000
0.000000
0.000000
0.000000
0.000000
1.477721
2.670958
3.920162
5.167568
6.418994
7.659436
8.863309
9.990852
10.990701
11.805505
12.380081
12.670175
12.649735
12.314977
11.684332
10.794370
9.692782
8.430256
7.053061
5.599442
4.091918
2.575660
0.905223
0.002068
-5.000000
-5.000000
-5.000000
0.000000
0.000000
0.000000
0.000000
1.340555
2.412999
3.520170
4.604781
5.670425
6.705175
7.691051
8.600334
9.396950
10.040158
10.490310
10.715187
10.695338
10.427078
9.922443
9.206213
8.310855
7.270848
6.117695
4.878340
3.568384
2.232401
0.720573
0.002023
-5.000000
-5.000000
-5.000000
0.000000
0.000000
0.000000
0.000000
1.209375
2.168039
3.143938
4.081129
4.981424
5.835589
6.632019
7.353025
7.975250
8.471765
8.815846
8.985309
8.966230
8.755050
8.358540
7.791728
7.074470
6.227790
5.270879
4.221162
3.088222
1.915910
0.549672
0.001129
-5.000000
-5.000000
-5.000000
0.000000
0.000000
0.000000
0.000000
1.082288
1.932908
2.787331
3.592020
4.347460
5.046688
5.683144
6.247016
6.724910
7.100745
7.357963
7.482302
7.464237
7.300377
6.993432
6.550856
5.982676
5.299400
4.510525
3.625837
2.649783
1.625168
0.392116
0.001247
-5.000000
-5.000000
-5.000000
0.000000
0.000000
0.000000
0.000000
0.955735
1.701257
2.441203
3.125650
3.754194
4.321723
4.825404
5.261183
5.622962
5.902625
6.091133
6.180118
6.163382
6.037758
5.803080
5.461343
5.015470
4.468327
3.822298
3.081378
2.245631
1.356093
0.246374
0.000919
-5.000000
-5.000000
-5.000000
0.000000
0.000000
0.000000
0.000000
0.825355
1.465150
2.093771
2.666245
3.181659
3.636365
4.030038
4.362446
4.632360
4.837052
4.972622
5.034800
5.019772
4.924669
4.747534
4.486840
4.140887
3.707557
3.184538
2.571801
1.866046
1.105405
0.113268
0.000206
-5.000000
-5.000000
-5.000000
0.000000
0.000000
0.000000
0.000000
0.686988
1.216900
1.733381
2.197803
2.609062
2.964638
3.265645
3.514007
3.711301
3.857994
3.953339
3.995664
3.982770
3.912174
3.781068
3.586077
3.323037
2.987172
2.573667
2.080154
1.501917
0.871981
0.009985
0.000019
-5.000000
-5.000000
-5.000000
0.000000
0.000000
0.000000
0.000000
0.538056
0.951580
1.352195
1.708973
2.020858
2.286189
2.506642
2.684940
2.823805
2.925163
2.989845
3.017609
3.007281
2.956855
2.863453
2.723216
2.531291
2.282183
1.970452
1.592977
1.145529
0.655140
0.009853
-0.001431
-5.000000
-5.000000
-5.000000
0.000000
0.000000
0.000000
0.000000
0.376379
0.664881
0.943253
1.189500
1.402806
1.582162
1.729125
1.846178
1.935924
2.000443
2.040981
2.057865
2.050531
2.017541
1.956560
1.864310
1.736639
1.568863
1.356394
1.096477
0.786558
0.444643
0.009584
-0.002016
-5.000000
-5.000000
-5.000000
0.000000
0.000000
0.000000
0.000000
0.211974
0.374478
0.530692
0.668328
0.786860
0.885784
0.966110
1.029437
1.077473
1.111642
1.132873
1.141518
1.137347
1.119537
1.086661
1.036672
0.966964
0.874609
0.756752
0.611646
0.438149
0.243630
0.009179
-0.006070
-5.000000
-5.000000
-5.000000
0.000000
0.000000
0.000000
0.000000
0.000000
0.000000
0.000000
0.000000
0.000000
0.000000
0.000000
0.000000
0.000000
0.000000
0.000000
0.000000
0.000000
0.000000
0.000000
0.000000
0.000000
0.000000
0.000000
0.000000
0.000000
0.000000
0.000000
0.000000
-5.000000
-5.000000
-5.000000
0.000000
0.000000
0.000000
0.000000
0.000000
0.000000
0.000000
0.000000
0.000000
0.000000
0.000000
0.000000
0.000000
0.000000
0.000000
0.000000
0.000000
0.000000
0.000000
0.000000
0.000000
0.000000
0.000000
0.000000
0.000000
0.000000
0.000000
0.000000
-5.000000
-5.000000
-5.000000
0.000000
0.000000
0.000000
0.000000
0.000000
0.000000
0.000000
0.000000
0.000000
0.000000
0.000000
0.000000
0.000000
0.000000
0.000000
0.000000
0.000000
0.000000
0.000000
0.000000
0.000000
0.000000
0.000000
0.000000
0.000000
0.000000
0.000000
0.000000
-5.000000
-5.000000
-5.000000
0.000000
0.000000
0.000000
0.000000
0.000000
0.000000
0.000000
0.000000
0.000000
0.000000
0.000000
0.000000
0.000000
0.000000
0.000000
0.000000
0.000000
0.000000
0.000000
0.000000
0.000000
0.000000
0.000000
0.000000
0.000000
0.000000
0.000000
0.000000
-5.000000
-5.000000
-5.000000
</DataArray>
</PointData>
<Cells>
<DataArray type='Int32' Name='connectivity' format='ascii'>
0
1
2
3
4
5
6
7
8
9
10
11
12
13
14
15
16
17
18
19
20
21
22
23
24
25
26
27
28
29
30
31
32
33
34
35
36
37
38
39
40
41
42
43
44
45
46
47
48
49
50
51
52
53
54
55
56
57
58
59
60
61
62
63
64
65
66
67
68
69
70
71
72
73
74
75
76
77
78
79
80
81
82
83
84
85
86
87
88
89
90
91
92
93
94
95
96
97
98
99
100
101
102
103
104
105
106
107
108
109
110
111
112
113
114
115
116
117
118
119
120
121
122
123
124
125
126
127
128
129
130
131
132
133
134
135
136
137
138
139
140
141
142
143
144
145
146
147
148
149
150
151
152
153
154
155
156
157
158
159
160
161
162
163
164
165
166
167
168
169
170
171
172
173
174
175
176
177
178
179
180
181
182
183
184
185
186
187
188
189
190
191
192
193
194
195
196
197
198
199
200
201
202
203
204
205
206
207
208
209
210
211
212
213
214
215
216
217
218
219
220
221
222
223
224
225
226
227
228
229
230
231
232
233
234
235
236
237
238
239
240
241
242
243
244
245
246
247
248
249
250
251
252
253
254
255
256
257
258
259
260
261
262
263
264
265
266
267
268
269
270
271
272
273
274
275
276
277
278
279
280
281
282
283
284
285
286
287
288
289
290
291
292
293
294
295
296
297
298
299
300
301
302
303
304
305
306
307
308
309
310
311
312
313
314
315
316
317
318
319
320
321
322
323
324
325
326
327
328
329
330
331
332
333
334
335
336
337
338
339
340
341
342
343
344
345
346
347
348
349
350
351
352
353
354
355
356
357
358
359
360
361
362
363
364
365
366
367
368
369
370
371
372
373
374
375
376
377
378
379
380
381
382
383
384
385
386
387
388
389
390
391
392
393
394
395
396
397
398
399
400
401
402
403
404
405
406
407
408
409
410
411
412
413
414
415
416
417
418
419
420
421
422
423
424
425
426
427
428
429
430
431
432
433
434
435
436
437
438
439
440
441
442
443
444
445
446
447
448
449
450
451
452
453
454
455
456
457
458
459
460
461
462
463
464
465
466
467
468
469
470
471
472
473
474
475
476
477
478
479
480
481
482
483
484
485
486
487
488
489
490
491
492
493
494
495
496
497
498
499
500
501
502
503
504
505
506
507
508
509
510
511
512
513
514
515
516
517
518
519
520
521
522
523
524
525
526
527
528
529
530
531
532
533
534
535
536
537
538
539
540
541
542
543
544
545
546
547
548
549
550
551
552
553
554
555
556
557
558
559
560
561
562
563
564
565
566
567
568
569
570
571
572
573
574
575
576
577
578
579
580
581
582
583
584
585
586
587
588
589
590
591
592
593
594
595
596
597
598
599
600
601
602
603
604
605
606
607
608
609
610
611
612
613
614
615
616
617
618
619
620
621
622
623
624
625
626
627
628
629
630
631
632
633
634
635
636
637
638
639
640
641
642
643
644
645
646
647
648
649
650
651
652
653
654
655
656
657
658
659
660
661
662
663
664
665
666
667
668
669
670
671
672
673
674
675
676
677
678
679
680
681
682
683
684
685
686
687
688
689
690
691
692
693
694
695
696
697
698
699
700
701
702
703
704
705
706
707
708
709
710
711
712
713
714
715
716
717
718
719
720
721
722
723
724
725
726
727
728
729
730
731
732
733
734
735
736
737
738
739
740
741
742
743
744
745