<?xml version='1.0' encoding='UTF-8'?>
<VTKFile xmlns='VTK' byte_order='LittleEndian' version='0.1' type='UnstructuredGrid'>
<UnstructuredGrid>
<Piece NumberOfCells='1488' NumberOfPoints='1488'>
<Points>
<DataArray NumberOfComponents='3' type='Float32' Name='Position' format='ascii'>
-0.075000 -0.075000 0.000000
-0.075000 -0.050000 0.000000
-0.075000 -0.025000 0.000000
-0.075000 0.000000 0.000000
-0.075000 0.025000 0.000000
-0.075000 0.050000 0.000000
-0.075000 0.075000 0.000000
-0.075000 0.100000 0.000000
-0.075000 0.125000 0.000000
-0.075000 0.150000 0.000000
-0.075000 0.175000 0.000000
-0.075000 0.200000 0.000000
-0.075000 0.225000 0.000000
-0.075000 0.250000 0.000000
-0.075000 0.275000 0.000000
-0.075000 0.300000 0.000000
-0.075000 0.325000 0.000000
-0.075000 0.350000 0.000000
-0.075000 0.375000 0.000000
-0.075000 0.400000 0.000000
-0.075000 0.425000 0.000000
-0.075000 0.450000 0.000000
-0.075000 0.475000 0.000000
-0.075000 0.500000 0.000000
-0.075000 0.525000 0.000000
-0.075000 0.550000 0.000000
-0.075000 0.575000 0.000000
-0.075000 0.600000 0.000000
-0.075000 0.625000 0.000000
-0.075000 0.650000 0.000000
-0.075000 0.675000 0.000000
-0.050000 -0.075000 0.000000
-0.050000 -0.050000 0.000000
-0.050000 -0.025000 0.000000
-0.050000 0.000000 0.000000
-0.050000 0.025000 0.000000
-0.050000 0.050000 0.000000
-0.050000 0.075000 0.000000
-0.050000 0.100000 0.000000
-0.050000 0.125000 0.000000
-0.050000 0.150000 0.000000
-0.050000 0.175000 0.000000
-0.050000 0.200000 0.000000
-0.050000 0.225000 0.000000
-0.050000 0.250000 0.000000
-0.050000 0.275000 0.000000
-0.050000 0.300000 0.000000
-0.050000 0.325000 0.000000
-0.050000 0.350000 0.000000
-0.050000 0.375000 0.000000
-0.050000 0.400000 0.000000
-0.050000 0.425000 0.000000
-0.050000 0.450000 0.000000
-0.050000 0.475000 0.000000
-0.050000 0.500000 0.000000
-0.050000 0.525000 0.000000
-0.050000 0.550000 0.000000
-0.050000 0.575000 0.000000
-0.050000 0.600000 0.000000
-0.050000 0.625000 0.000000
-0.050000 0.650000 0.000000
-0.050000 0.675000 0.000000
-0.025000 -0.075000 0.000000
-0.025000 -0.050000 0.000000
-0.025000 -0.025000 0.000000
-0.025000 0.000000 0.000000
-0.025000 0.025000 0.000000
-0.025000 0.050000 0.000000
-0.025000 0.075000 0.000000
-0.025000 0.100000 0.000000
-0.025000 0.125000 0.000000
-0.025000 0.150000 0.000000
-0.025000 0.175000 0.000000
-0.025000 0.200000 0.000000
-0.025000 0.225000 0.000000
-0.025000 0.250000 0.000000
-0.025000 0.275000 0.000000
-0.025000 0.300000 0.000000
-0.025000 0.325000 0.000000
-0.025000 0.350000 0.000000
-0.025000 0.375000 0.000000
-0.025000 0.400000 0.000000
-0.025000 0.425000 0.000000
-0.025000 0.450000 0.000000
-0.025000 0.475000 0.000000
-0.025000 0.500000 0.000000
-0.025000 0.525000 0.000000
-0.025000 0.550000 0.000000
-0.025000 0.575000 0.000000
-0.025000 0.600000 0.000000
-0.025000 0.625000 0.000000
-0.025000 0.650000 0.000000
-0.025000 0.675000 0.000000
0.000000 -0.075000 0.000000
0.000000 -0.050000 0.000000
0.000000 -0.025000 0.000000
0.000000 0.000000 0.000000
0.000000 0.025000 0.000000
0.000000 0.050000 0.000000
0.000000 0.075000 0.000000
0.000000 0.100000 0.000000
0.000000 0.125000 0.000000
0.000000 0.150000 0.000000
0.000000 0.175000 0.000000
0.000000 0.200000 0.000000
0.000000 0.225000 0.000000
0.000000 0.250000 0.000000
0.000000 0.275000 0.000000
0.000000 0.300000 0.000000
0.000000 0.325000 0.000000
0.000000 0.350000 0.000000
0.000000 0.375000 0.000000
0.000000 0.400000 0.000000
0.000000 0.425000 0.000000
0.000000 0.450000 0.000000
0.000000 0.475000 0.000000
0.000000 0.500000 0.000000
0.000000 0.525000 0.000000
0.000000 0.550000 0.000000
0.000000 0.575000 0.000000
0.000000 0.600000 0.000000
0.000000 0.625000 0.000000
0.000000 0.650000 0.000000
0.000000 0.675000 0.000000
0.025000 -0.075000 0.000000
0.025000 -0.050000 0.000000
0.025000 -0.025000 0.000000
0.025000 0.000000 0.000000
0.025000 0.025000 0.000000
0.025000 0.050000 0.000000
0.025000 0.075000 0.000000
0.025000 0.100000 0.000000
0.025000 0.125000 0.000000
0.025000 0.150000 0.000000
0.025000 0.175000 0.000000
0.025000 0.200000 0.000000
0.025000 0.225000 0.000000
0.025000 0.250000 0.000000
0.025000 0.275000 0.000000
0.025000 0.300000 0.000000
0.025000 0.325000 0.000000
0.025000 0.350000 0.000000
0.025000 0.375000 0.000000
0.025000 0.400000 0.000000
0.025000 0.425000 0.000000
0.025000 0.450000 0.000000
0.025000 0.475000 0.000000
0.025000 0.500000 0.000000
0.025000 0.525000 0.000000
0.025000 0.550000 0.000000
0.025000 0.575000 0.000000
0.025000 0.600000 0.000000
0.025000 0.625000 0.000000
0.025000 0.650000 0.000000
0.025000 0.675000 0.000000
0.050000 -0.075000 0.000000
0.050000 -0.050000 0.000000
0.050000 -0.025000 0.000000
0.050000 0.000000 0.000000
0.050000 0.025000 0.000000
0.050000 0.050000 0.000000
0.050000 0.075000 0.000000
0.050000 0.100000 0.000000
0.050000 0.125000 0.000000
0.050000 0.150000 0.000000
0.050000 0.175000 0.000000
0.050000 0.200000 0.000000
0.050000 0.225000 0.000000
0.050000 0.250000 0.000000
0.050000 0.275000 0.000000
0.050000 0.300000 0.000000
0.050000 0.325000 0.000000
0.050000 0.350000 0.000000
0.050000 0.375000 0.000000
0.050000 0.400000 0.000000
0.050000 0.425000 0.000000
0.050000 0.450000 0.000000
0.050000 0.475000 0.000000
0.050000 0.500000 0.000000
0.050000 0.525000 0.000000
0.050000 0.550000 0.000000
0.050000 0.575000 0.000000
0.050000 0.600000 0.000000
0.050000 0.625000 0.000000
0.050000 0.650000 0.000000
0.050000 0.675000 0.000000
0.075000 -0.075000 0.000000
0.075000 -0.050000 0.000000
0.075000 -0.025000 0.000000
0.075000 0.000000 0.000000
0.075000 0.025000 0.000000
0.075000 0.050000 0.000000
0.075000 0.075000 0.000000
0.075000 0.100000 0.000000
0.075000 0.125000 0.000000
0.075000 0.150000 0.000000
0.075000 0.175000 0.000000
0.075000 0.200000 0.000000
0.075000 0.225000 0.000000
0.075000 0.250000 0.000000
0.075000 0.275000 0.000000
0.075000 0.300000 0.000000
0.075000 0.325000 0.000000
0.075000 0.350000 0.000000
0.075000 0.375000 0.000000
0.075000 0.400000 0.000000
0.075000 0.425000 0.000000
0.075000 0.450000 0.000000
0.075000 0.475000 0.000000
0.075000 0.500000 0.000000
0.075000 0.525000 0.000000
0.075000 0.550000 0.000000
0.075000 0.575000 0.000000
0.075000 0.600000 0.000000
0.075000 0.625000 0.000000
0.075000 0.650000 0.000000
0.075000 0.675000 0.000000
0.100000 -0.075000 0.000000
0.100000 -0.050000 0.000000
0.100000 -0.025000 0.000000
0.100000 0.000000 0.000000
0.100000 0.025000 0.000000
0.100000 0.050000 0.000000
0.100000 0.075000 0.000000
0.100000 0.100000 0.000000
0.100000 0.125000 0.000000
0.100000 0.150000 0.000000
0.100000 0.175000 0.000000
0.100000 0.200000 0.000000
0.100000 0.225000 0.000000
0.100000 0.250000 0.000000
0.100000 0.275000 0.000000
0.100000 0.300000 0.000000
0.100000 0.325000 0.000000
0.100000 0.350000 0.000000
0.100000 0.375000 0.000000
0.100000 0.400000 0.000000
0.100000 0.425000 0.000000
0.100000 0.450000 0.000000
0.100000 0.475000 0.000000
0.100000 0.500000 0.000000
0.100000 0.525000 0.000000
0.100000 0.550000 0.000000
0.100000 0.575000 0.000000
0.100000 0.600000 0.000000
0.100000 0.625000 0.000000
0.100000 0.650000 0.000000
0.100000 0.675000 0.000000
0.125000 -0.075000 0.000000
0.125000 -0.050000 0.000000
0.125000 -0.025000 0.000000
0.125000 0.000000 0.000000
0.125000 0.025000 0.000000
0.125000 0.050000 0.000000
0.125000 0.075000 0.000000
0.125000 0.100000 0.000000
0.125000 0.125000 0.000000
0.125000 0.150000 0.000000
0.125000 0.175000 0.000000
0.125000 0.200000 0.000000
0.125000 0.225000 0.000000
0.125000 0.250000 0.000000
0.125000 0.275000 0.000000
0.125000 0.300000 0.000000
0.125000 0.325000 0.000000
0.125000 0.350000 0.000000
0.125000 0.375000 0.000000
0.125000 0.400000 0.000000
0.125000 0.425000 0.000000
0.125000 0.450000 0.000000
0.125000 0.475000 0.000000
0.125000 0.500000 0.000000
0.125000 0.525000 0.000000
0.125000 0.550000 0.000000
0.125000 0.575000 0.000000
0.125000 0.600000 0.000000
0.125000 0.625000 0.000000
0.125000 0.650000 0.000000
0.125000 0.675000 0.000000
0.150000 -0.075000 0.000000
0.150000 -0.050000 0.000000
0.150000 -0.025000 0.000000
0.150000 0.000000 0.000000
0.150000 0.025000 0.000000
0.150000 0.050000 0.000000
0.150000 0.075000 0.000000
0.150000 0.100000 0.000000
0.150000 0.125000 0.000000
0.150000 0.150000 0.000000
0.150000 0.175000 0.000000
0.150000 0.200000 0.000000
0.150000 0.225000 0.000000
0.150000 0.250000 0.000000
0.150000 0.275000 0.000000
0.150000 0.300000 0.000000
0.150000 0.325000 0.000000
0.150000 0.350000 0.000000
0.150000 0.375000 0.000000
0.150000 0.400000 0.000000
0.150000 0.425000 0.000000
0.150000 0.450000 0.000000
0.150000 0.475000 0.000000
0.150000 0.500000 0.000000
0.150000 0.525000 0.000000
0.150000 0.550000 0.000000
0.150000 0.575000 0.000000
0.150000 0.600000 0.000000
0.150000 0.625000 0.000000
0.150000 0.650000 0.000000
0.150000 0.675000 0.000000
0.175000 -0.075000 0.000000
0.175000 -0.050000 0.000000
0.175000 -0.025000 0.000000
0.175000 0.000000 0.000000
0.175000 0.025000 0.000000
0.175000 0.050000 0.000000
0.175000 0.075000 0.000000
0.175000 0.100000 0.000000
0.175000 0.125000 0.000000
0.175000 0.150000 0.000000
0.175000 0.175000 0.000000
0.175000 0.200000 0.000000
0.175000 0.225000 0.000000
0.175000 0.250000 0.000000
0.175000 0.275000 0.000000
0.175000 0.300000 0.000000
0.175000 0.325000 0.000000
0.175000 0.350000 0.000000
0.175000 0.375000 0.000000
0.175000 0.400000 0.000000
0.175000 0.425000 0.000000
0.175000 0.450000 0.000000
0.175000 0.475000 0.000000
0.175000 0.500000 0.000000
0.175000 0.525000 0.000000
0.175000 0.550000 0.000000
0.175000 0.575000 0.000000
0.175000 0.600000 0.000000
0.175000 0.625000 0.000000
0.175000 0.650000 0.000000
0.175000 0.675000 0.000000
0.200000 -0.075000 0.000000
0.200000 -0.050000 0.000000
0.200000 -0.025000 0.000000
0.200000 0.000000 0.000000
0.200000 0.025000 0.000000
0.200000 0.050000 0.000000
0.200000 0.075000 0.000000
0.200000 0.100000 0.000000
0.200000 0.125000 0.000000
0.200000 0.150000 0.000000
0.200000 0.175000 0.000000
0.200000 0.200000 0.000000
0.200000 0.225000 0.000000
0.200000 0.250000 0.000000
[...]
<PointData>
<DataArray NumberOfComponents='1' type='Int32' Name='ParticleType' format='ascii'>
4
4
4
4
4
4
4
4
4
4
4
4
4
4
4
4
4
4
4
4
4
4
4
4
4
4
4
4
2
2
2
4
4
4
4
4
4
4
4
4
4
4
4
4
4
4
4
4
4
4
4
4
4
4
4
4
4
4
4
2
2
2
4
4
3
3
3
3
3
3
3
3
3
3
3
3
3
3
3
3
3
3
3
3
3
3
3
3
3
3
2
2
2
4
4
3
3
3
3
3
3
3
3
3
3
3
3
3
3
3
3
3
3
3
3
3
3
3
3
3
3
2
2
2
4
4
3
3
0
0
0
0
0
0
0
0
0
0
0
0
0
0
0
0
0
0
0
0
0
1
1
2
2
2
2
4
4
3
3
0
0
0
0
0
0
0
0
0
0
0
0
0
0
0
0
0
0
0
0
0
1
1
2
2
2
2
4
4
3
3
0
0
0
0
0
0
0
0
0
0
0
0
0
0
0
0
0
0
0
0
0
0
1
2
2
2
2
4
4
3
3
0
0
0
0
0
0
0
0
0
0
0
0
0
0
0
0
0
0
0
0
0
0
1
2
2
2
2
4
4
3
3
0
0
0
0
0
0
0
0
0
0
0
0
0
0
0
0
0
0
0
0
0
0
1
2
2
2
2
4
4
3
3
0
0
0
0
0
0
0
0
0
0
0
0
0
0
0
0
0
0
0
0
0
0
1
2
2
2
2
4
4
3
3
0
0
0
0
0
0
0
0
0
0
0
0
0
0
0
0
0
0
0
0
0
0
1
2
2
2
2
4
4
3
3
0
0
0
0
0
0
0
0
0
0
0
0
0
0
0
0
0
0
0
0
0
0
1
2
2
2
2
4
4
3
3
0
0
0
0
0
0
0
0
0
0
0
0
0
0
0
0
0
0
0
0
0
0
1
2
2
2
2
4
4
3
3
0
0
0
0
0
0
0
0
0
0
0
0
0
0
0
0
0
0
0
0
0
0
1
2
2
2
2
4
4
3
3
0
0
0
0
0
0
0
0
0
0
0
0
0
0
0
0
0
0
0
0
0
0
1
2
2
2
2
4
4
3
3
0
0
0
0
0
0
0
0
0
0
0
0
0
0
0
0
0
0
0
0
0
0
1
2
2
2
2
4
4
3
3
0
0
0
0
0
0
0
0
0
0
0
0
0
0
0
0
0
0
0
0
0
0
1
2
2
2
2
4
4
3
3
0
0
0
0
0
0
0
0
0
0
0
0
0
0
0
0
0
0
0
0
0
0
1
2
2
2
2
4
4
3
3
0
0
0
0
0
0
0
0
0
0
0
0
0
0
0
0
0
0
0
0
0
0
1
2
2
2
2
4
4
3
3
0
0
0
0
0
0
0
0
0
0
0
0
0
0
0
0
0
0
0
0
0
0
1
2
2
2
2
4
4
3
3
0
0
0
0
0
0
0
0
0
0
0
0
0
0
0
0
0
0
0
0
0
0
1
2
2
2
2
4
4
3
3
0
0
0
0
0
0
0
0
0
0
0
0
0
0
0
0
0
0
0
0
0
0
0
2
2
2
2
4
4
3
3
0
0
0
0
0
0
0
0
0
0
0
0
0
0
0
0
0
0
0
0
0
0
0
2
2
2
2
4
4
3
3
0
0
0
0
0
0
0
0
0
0
0
0
0
0
0
0
0
0
0
0
0
0
0
2
2
2
2
4
4
3
3
0
0
0
0
0
0
0
0
0
0
0
0
0
0
0
0
0
0
0
0
0
0
0
2
2
2
2
4
4
3
3
0
0
0
0
0
0
0
0
0
0
0
0
0
0
0
0
0
0
0
0
0
0
0
2
2
2
2
4
4
3
3
0
0
0
0
0
0
0
0
0
0
0
0
0
0
0
0
0
0
0
0
0
0
1
2
2
2
2
4
4
3
3
0
0
0
0
0
0
0
0
0
0
0
0
0
0
0
0
0
0
0
0
0
0
1
2
2
2
2
4
4
3
3
0
0
0
0
0
0
0
0
0
0
0
0
0
0
0
0
0
0
0
0
0
0
1
2
2
2
2
4
4
3
3
0
0
0
0
0
0
0
0
0
0
0
0
0
0
0
0
0
0
0
0
0
0
1
2
2
2
2
4
4
3
3
0
0
0
0
0
0
0
0
0
0
0
0
0
0
0
0
0
0
0
0
0
0
1
2
2
2
2
4
4
3
3
0
0
0
0
0
0
0
0
0
0
0
0
0
0
0
0
0
0
0
0
0
0
1
2
2
2
2
4
4
3
3
0
0
0
0
0
0
0
0
0
0
0
0
0
0
0
0
0
0
0
0
0
0
1
2
2
2
2
4
4
3
3
0
0
0
0
0
0
0
0
0
0
0
0
0
0
0
0
0
0
0
0
0
0
1
2
2
2
2
4
4
3
3
0
0
0
0
0
0
0
0
0
0
0
0
0
0
0
0
0
0
0
0
0
0
1
2
2
2
2
4
4
3
3
0
0
0
0
0
0
0
0
0
0
0
0
0
0
0
0
0
0
0
0
0
0
1
2
2
2
2
4
4
3
3
0
0
0
0
0
0
0
0
0
0
0
0
0
0
0
0
0
0
0
0
0
0
1
2
2
2
2
4
4
3
3
0
0
0
0
0
0
0
0
0
0
0
0
0
0
0
0
0
0
0
0
0
0
1
2
2
2
2
4
4
3
3
0
0
0
0
0
0
0
0
0
0
0
0
0
0
0
0
0
0
0
0
0
0
1
2
2
2
2
4
4
3
3
0
0
0
0
0
0
0
0
0
0
0
0
0
0
0
0
0
0
0
0
0
0
1
2
2
2
2
4
4
3
3
0
0
0
0
0
0
0
0
0
0
0
0
0
0
0
0
0
0
0
0
0
0
1
2
2
2
2
4
4
3
3
0
0
0
0
0
0
0
0
0
0
0
0
0
0
0
0
0
0
0
0
0
0
1
2
2
2
2
4
4
3
3
0
0
0
0
0
0
0
0
0
0
0
0
0
0
0
0
0
0
0
0
0
1
1
2
2
2
2
4
4
3
3
0
0
0
0
0
0
0
0
0
0
0
0
0
0
0
0
0
0
0
0
0
1
1
2
2
2
2
4
4
3
3
3
3
3
3
3
3
3
3
3
3
3
3
3
3
3
3
3
3
3
3
3
3
3
3
2
2
2
4
4
3
3
3
3
3
3
3
3
3
3
3
3
3
3
3
3
3
3
3
3
3
3
3
3
3
3
2
2
2
4
4
4
4
4
4
4
4
4
4
4
4
4
4
4
4
4
4
4
4
4
4
4
4
4
4
4
4
2
2
2
4
4
4
4
4
4
4
4
4
4
4
4
4
4
4
4
4
4
4
4
4
4
4
4
4
4
4
4
2
2
2
</DataArray>
<DataArray NumberOfComponents='1' type='Float32' Name='Temperature' format='ascii'>
0.000000
0.000000
0.000000
0.000000
0.000000
0.000000
0.000000
0.000000
0.000000
0.000000
0.000000
0.000000
0.000000
0.000000
0.000000
0.000000
0.000000
0.000000
0.000000
0.000000
0.000000
0.000000
0.000000
0.000000
0.000000
0.000000
0.000000
0.000000
-5.000000
-5.000000
-5.000000
0.000000
0.000000
0.000000
0.000000
0.000000
0.000000
0.000000
0.000000
0.000000
0.000000
0.000000
0.000000
0.000000
0.000000
0.000000
0.000000
0.000000
0.000000
0.000000
0.000000
0.000000
0.000000
0.000000
0.000000
0.000000
0.000000
0.000000
0.000000
-5.000000
-5.000000
-5.000000
0.000000
0.000000
0.000000
0.000000
0.000000
0.000000
0.000000
0.000000
0.000000
0.000000
0.000000
0.000000
0.000000
0.000000
0.000000
0.000000
0.000000
0.000000
0.000000
0.000000
0.000000
0.000000
0.000000
0.000000
0.000000
0.000000
0.000000
0.000000
-5.000000
-5.000000
-5.000000
0.000000
0.000000
0.000000
0.000000
0.000000
0.000000
0.000000
0.000000
0.000000
0.000000
0.000000
0.000000
0.000000
0.000000
0.000000
0.000000
0.000000
0.000000
0.000000
0.000000
0.000000
0.000000
0.000000
0.000000
0.000000
0.000000
0.000000
0.000000
-5.000000
-5.000000
-5.000000
0.000000
0.000000
0.000000
0.000000
0.144510
0.258806
0.374059
0.482831
0.584320
0.676617
0.758055
0.827014
0.881997
0.921660
0.944851
0.950646
0.938377
0.907651
0.858361
0.790679
0.705030
0.601983
0.482358
0.345559
0.197322
0.009777
-0.005447
-2.131395
-5.000000
-5.000000
-5.000000
0.000000
0.000000
0.000000
0.000000
0.261561
0.468118
0.676643
0.873430
1.057077
1.224123
1.371551
1.496429
1.596046
1.667968
1.710110
1.720805
1.698850
1.643550
1.554739
1.432773
1.278504
1.093113
0.878302
0.633447
0.369896
0.009974
-0.007965
-2.374889
-5.000000
-5.000000
-5.000000
0.000000
0.000000
0.000000
0.000000
0.384285
0.687817
0.994244
1.283480
1.553468
1.799120
2.016003
2.199804
2.346530
2.452599
2.514949
2.531131
2.499394
2.418747
2.288993
2.110747
1.885416
1.615029
1.302573
0.948391
0.569128
0.072615
-0.005901
-2.458997
-5.000000
-5.000000
-5.000000
0.000000
0.000000
0.000000
0.000000
0.507350
0.908115
1.312769
1.694812
2.051541
2.376242
2.663056
2.906278
3.100623
3.241353
3.324418
3.346595
3.305592
3.200141
3.030059
2.796277
2.500867
2.146905
1.738967
1.279489
0.789183
0.185845
-0.003289
-2.468687
-5.000000
-5.000000
-5.000000
0.000000
0.000000
0.000000
0.000000
0.631815
1.130955
1.635031
2.111079
2.555746
2.960677
3.318569
3.622298
3.865266
4.041554
4.146114
4.174935
4.125192
3.995355
3.785281
3.496264
3.131103
2.694035
2.191327
1.627975
1.027493
0.317190
-0.001219
-2.459277
-5.000000
-5.000000
-5.000000
0.000000
0.000000
0.000000
0.000000
0.757418
1.355862
1.960353
2.531416
3.065057
3.551264
3.981271
4.346517
4.639064
4.851795
4.978647
5.014819
4.956950
4.803262
4.553662
4.209824
3.775283
3.255432
2.658164
1.990907
1.279076
0.459083
0.000662
-2.443976
-5.000000
-5.000000
-5.000000
0.000000
0.000000
0.000000
0.000000
0.883849
1.582284
2.287939
2.954803
3.578246
4.146590
4.649594
5.077238
5.420228
5.670229
5.820150
5.864395
5.799072
5.622155
5.333605
4.935461
4.431955
3.829548
3.137591
2.365670
1.540537
0.607745
0.003101
-2.426621
-5.000000
-5.000000
-5.000000
0.000000
0.000000
0.000000
0.000000
1.010504
1.809141
2.616226
3.379220
4.092864
4.743817
5.320351
5.810979
6.205036
6.492957
6.666620
6.719632
6.647572
6.448173
6.121442
5.669753
5.097955
4.413444
3.626814
2.749537
1.809357
0.761087
0.004657
-2.408450
-5.000000
-5.000000
-5.000000
0.000000
0.000000
0.000000
0.000000
1.136515
2.034874
2.942954
3.801741
4.605358
5.338808
5.988884
6.542629
6.988003
7.314215
7.512108
7.574503
7.496463
7.275486
6.911618
6.407529
5.768595
5.002978
4.122272
3.139552
2.083271
0.917647
0.006143
-2.389905
-5.000000
-5.000000
-5.000000
0.000000
0.000000
0.000000
0.000000
1.260744
2.257445
3.265168
4.218532
5.111060
5.926125
6.649058
7.265444
7.761882
8.126362
8.348714
8.420988
8.337752
8.096286
7.696680
7.141864
6.437645
5.592770
4.619550
3.532334
2.359967
1.076113
0.007084
-2.371212
-5.000000
-5.000000
-5.000000
0.000000
0.000000
0.000000
0.000000
1.381809
2.474370
3.579266
4.624921
5.604281
6.499134
7.293382
7.971183
8.517803
8.920044
9.166749
9.249230
9.161594
8.900936
8.467403
7.864168
7.097385
6.176199
5.113324
3.923962
2.636917
1.235184
0.008224
-2.352513
-5.000000
-5.000000
-5.000000
0.000000
0.000000
0.000000
0.000000
1.498118
2.682795
3.881102
5.015526
6.078466
7.050188
7.913215
8.650335
9.245526
9.684446
9.955000
10.047808
9.956562
9.678214
9.213006
8.564355
7.738707
6.745435
5.597320
4.309893
2.911296
1.393453
0.008788
-2.333978
-5.000000
-5.000000
-5.000000
0.000000
0.000000
0.000000
0.000000
1.607921
2.879579
4.166119
5.384434
6.526410
7.570876
8.499057
9.292437
9.933778
10.407662
10.701114
10.804123
10.710021
10.415675
9.921468
9.231097
8.351278
7.291491
6.064268
4.684881
3.179935
1.549492
0.009349
-2.315739
-5.000000
-5.000000
-5.000000
0.000000
0.000000
0.000000
0.000000
1.709378
3.061419
4.429523
5.725420
6.940526
8.052347
9.040902
9.886471
10.570690
11.077149
11.392068
11.504875
11.408607
11.100105
10.579952
9.852175
8.923790
7.804331
6.505855
5.042816
3.439192
1.701825
0.009648
-2.297908
-5.000000
-5.000000
-5.000000
0.000000
0.000000
0.000000
0.000000
1.800632
3.224983
4.666476
6.032204
7.313164
8.485670
9.528657
10.421321
11.144282
11.680241
12.014706
12.136616
12.038778
11.718064
11.175311
10.414936
9.444310
8.273058
6.912686
5.376456
3.684655
1.848976
0.009755
-2.280499
-5.000000
-5.000000
-5.000000
0.000000
0.000000
0.000000
0.000000
1.879891
3.367053
4.872307
6.298722
7.636934
8.862221
9.952577
10.886253
11.642989
12.204712
12.556321
12.686345
12.587422
12.256493
11.694685
10.906843
9.900764
8.686248
7.274358
5.677106
3.910631
1.989300
0.009854
-2.263041
-5.000000
-5.000000
-5.000000
0.000000
0.000000
0.000000
0.000000
1.945507
3.484673
5.042726
6.519406
7.905049
9.174081
10.303711
11.271409
12.056185
12.639329
13.005237
13.142111
13.042464
12.703327
12.126117
11.316110
10.281551
9.032518
7.579841
5.934564
4.109345
2.119417
0.009957
-2.244329
-5.000000
-5.000000
-5.000000
0.000000
0.000000
0.000000
0.000000
1.996055
3.575287
5.174022
6.689437
8.111641
9.414398
10.574318
11.568265
12.374688
12.974382
13.351360
13.493575
13.393450
13.048101
12.459191
11.632365
10.576281
9.301330
7.818328
6.137813
4.270376
2.231612
0.025166
-2.223797
-5.000000
-5.000000
-5.000000
0.000000
0.000000
0.000000
0.000000
2.030403
3.636861
5.263242
6.804984
8.252039
9.577725
10.758242
11.770041
12.591190
13.202148
13.586663
13.732516
13.632067
13.282483
12.685591
11.847289
10.776529
9.483960
7.980504
6.276582
4.382126
2.312936
0.075455
-2.204733
-5.000000
-5.000000
-5.000000
0.000000
0.000000
0.000000
0.000000
2.047762
3.667980
5.308334
6.863382
8.322999
9.660275
10.851203
11.872027
12.700618
13.317264
13.705573
13.853231
13.752552
13.400706
12.799574
11.955146
10.876493
9.574389
8.059875
6.343500
4.435355
2.351664
0.099892
-2.194369
-5.000000
-5.000000
-5.000000
0.000000
0.000000
0.000000
0.000000
2.047730
3.667921
5.308247
6.863269
8.322860
9.660110
10.851013
11.871813
12.700377
13.316990
13.705247
13.852817
13.751980
13.399863
12.798277
11.953136
10.873431
9.569903
8.053673
6.335575
4.426244
2.342654
0.092784
-2.197164
-5.000000
-5.000000
-5.000000
0.000000
0.000000
0.000000
0.000000
2.030307
3.636687
5.262987
6.804650
8.251627
9.577238
10.757682
11.769410
12.590481
13.201341
13.585706
13.731305
13.630407
13.280046
12.681863
11.841536
10.767811
9.471262
7.963070
6.254501
4.357099
2.288729
0.056769
-2.211704
-5.000000
-5.000000
-5.000000
0.000000
0.000000
0.000000
0.000000
1.995899
3.575005
5.173609
6.688896
8.110974
9.413609
10.573412
11.567245
12.373545
12.973088
13.349836
13.491663
13.390857
13.044332
12.453482
11.623638
10.563185
9.282467
7.792779
6.106009
4.235404
2.199271
0.009995
-2.231729
-5.000000
-5.000000
-5.000000
0.000000
0.000000
0.000000
0.000000
1.945297
3.484294
5.042172
6.518679
7.904153
9.173022
10.302497
11.270045
12.054665
12.637617
13.003242
13.139642
13.039166
12.698609
12.119072
11.305486
10.265832
9.010232
7.550232
5.898636
4.071493
2.087015
0.009942
-2.250382
-5.000000
-5.000000
-5.000000
0.000000
0.000000
0.000000
0.000000
1.879636
3.366592
4.871633
6.297838
7.635845
8.860936
9.951106
10.884604
11.641160
12.202671
12.553974
12.683492
12.583689
12.251260
11.687018
10.895483
9.884250
8.663290
7.244563
5.642034
3.875434
1.961522
0.009809
-2.267155
-5.000000
-5.000000
-5.000000
0.000000
0.000000
0.000000
0.000000
1.800342
3.224458
4.665708
6.031197
7.311924
8.484208
9.526987
10.419456
11.142226
11.677968
12.012134
12.133556
12.034879
11.712738
11.167689
10.403878
9.428566
8.251647
6.885609
5.345596
3.655033
1.827134
0.009742
-2.283347
-5.000000
-5.000000
-5.000000
0.000000
0.000000
0.000000
0.000000
1.709063
3.060849
4.428690
5.724328
6.939182
8.050764
9.039096
9.884462
10.568489
11.074743
11.389394
11.501775
11.404776
11.095037
10.572904
9.842203
8.909914
7.785902
6.483156
5.017743
3.415990
1.685484
0.009491
-2.300016
-5.000000
-5.000000
-5.000000
0.000000
0.000000
0.000000
0.000000
1.607592
2.878984
4.165249
5.383295
6.525008
7.569226
8.497179
9.290355
9.931513
10.405217
10.698449
10.801120
10.706442
10.411117
9.915343
9.222680
8.339860
7.276691
6.046498
4.665799
3.162789
1.537774
0.009222
-2.317262
-5.000000
-5.000000
-5.000000
0.000000
0.000000
0.000000
0.000000
1.497786
2.682195
3.880224
5.014376
6.077052
7.048524
7.911326
8.648248
9.243270
9.682041
9.952431
10.045003
9.953352
9.674305
9.207967
8.557666
7.729887
6.734285
5.584251
4.296199
2.899277
1.385417
0.008750
-2.335031
-5.000000
-5.000000
-5.000000
0.000000
0.000000
0.000000
0.000000
1.381484
2.473782
3.578406
4.623794
5.602895
6.497507
7.291536
7.969152
8.515622
8.917744
9.164342
9.246684
9.158807
8.897714
8.463455
7.859144
7.090976
6.168308
5.104286
3.914689
2.628934
1.229936
0.008130
-2.353202
-5.000000
-5.000000
-5.000000
0.000000
0.000000
0.000000
0.000000
1.260434
2.256884
3.264348
4.217458
5.109739
5.924574
6.647302
7.263517
7.759825
8.124217
8.346511
8.418730
8.335392
8.093713
7.693716
7.138287
6.433265
5.587538
4.613694
3.526440
2.354974
1.072884
0.007435
-2.371631
-5.000000
-5.000000
-5.000000
0.000000
0.000000
0.000000
0.000000
1.136226
2.034354
2.942192
3.800743
4.604131
5.337367
5.987255
6.540846
6.986109
7.312257
7.510131
7.572535
7.494499
7.273476
6.909467
6.405107
5.765787
4.999751
4.118755
3.136079
2.080369
0.915781
0.005954
-2.390162
-5.000000
-5.000000
-5.000000
0.000000
0.000000
0.000000
0.000000
1.010243
1.808669
2.615535
3.378315
4.091752
4.742511
5.318875
5.809367
6.203329
6.491207
6.664877
6.717939
6.645952
6.446620
6.119915
5.668183
5.096271
4.411617
3.624897
2.747692
1.807844
0.760136
0.004648
-2.408573
-5.000000
-5.000000
-5.000000
0.000000
0.000000
0.000000
0.000000
0.883618
1.581867
2.287328
2.954003
3.577262
4.145435
4.648289
5.075814
5.418725
5.668695
5.818638
5.862955
5.797743
5.620955
5.332526
4.934473
4.431014
3.828623
3.136687
2.364843
1.539900
0.607392
0.003104
-2.426622
-5.000000
-5.000000
-5.000000
0.000000
0.000000
0.000000
0.000000
0.757219
1.355502
1.959827
2.530726
3.064208
3.550267
3.980145
4.345288
4.637769
4.850479
4.977358
5.013608
4.955862
4.802326
4.552889
4.209205
3.774791
3.255036
2.657841
1.990659
1.278939
0.459098
0.001303
-2.443872
-5.000000
-5.000000
-5.000000
0.000000
0.000000
0.000000
0.000000
0.631649
1.130654
1.634590
2.110500
2.555035
2.959842
3.317625
3.621268
3.864181
4.040452
4.145038
4.173932
4.124305
3.994618
3.784711
3.495864
3.130855
2.693910
2.191292
1.628007
1.027586
0.317348
-0.000797
-2.459154
-5.000000
-5.000000
-5.000000
0.000000
0.000000
0.000000
0.000000
0.507216
0.907872
1.312412
1.694345
2.050966
2.375566
2.662292
2.905443
3.099743
3.240459
3.323547
3.345785
3.304880
3.199559
3.029627
2.796000
2.500734
2.146892
1.739041
1.279615
0.789336
0.186007
-0.003154
-2.468596
-5.000000
-5.000000
-5.000000
0.000000
0.000000
0.000000
0.000000
0.384182
0.687631
0.993970
1.283121
1.553026
1.798601
2.015416
2.199162
2.345853
2.451910
2.514276
2.530504
2.498844
2.418297
2.288663
2.110543
1.885330
1.615043
1.302659
0.948514
0.569259
0.072730
-0.006031
-2.458941
-5.000000
-5.000000
-5.000000
0.000000
0.000000
0.000000
0.000000
0.261489
0.467988
0.676453
0.873180
1.056770
1.223761
1.371141
1.495981
1.595572
1.667485
1.709637
1.720363
1.698459
1.643229
1.554501
1.432623
1.278439
1.093120
0.878360
0.633530
0.369979
0.009979
-0.007453
-2.374842
-5.000000
-5.000000
-5.000000
0.000000
0.000000
0.000000
0.000000
0.144469
0.258732
0.373950
0.482688
0.584144
0.676410
0.757820
0.826756
0.881724
0.921381
0.944576
0.950388
0.938146
0.907459
0.858216
0.790584
0.704983
0.601977
0.482382
0.345597
0.197359
0.009793
-0.005713
-2.131387
-5.000000
-5.000000
-5.000000
0.000000
0.000000
0.000000
0.000000
0.000000
0.000000
0.000000
0.000000
0.000000
0.000000
0.000000
0.000000
0.000000
0.000000
0.000000
0.000000
0.000000
0.000000
0.000000
0.000000
0.000000
0.000000
0.000000
0.000000
0.000000
0.000000
0.000000
0.000000
-5.000000
-5.000000
-5.000000
0.000000
0.000000
0.000000
0.000000
0.000000
0.000000
0.000000
0.000000
0.000000
0.000000
0.000000
0.000000
0.000000
0.000000
0.000000
0.000000
0.000000
0.000000
0.000000
0.000000
0.000000
0.000000
0.000000
0.000000
0.000000
0.000000
0.000000
0.000000
-5.000000
-5.000000
-5.000000
0.000000
0.000000
0.000000
0.000000
0.000000
0.000000
0.000000
0.000000
0.000000
0.000000
0.000000
0.000000
0.000000
0.000000
0.000000
0.000000
0.000000
0.000000
0.000000
0.000000
0.000000
0.000000
0.000000
0.000000
0.000000
0.000000
0.000000
0.000000
-5.000000
-5.000000
-5.000000
0.000000
0.000000
0.000000
0.000000
0.000000
0.000000
0.000000
0.000000
0.000000
0.000000
0.000000
0.000000
0.000000
0.000000
0.000000
0.000000
0.000000
0.000000
0.000000
0.000000
0.000000
0.000000
0.000000
0.000000
0.000000
0.000000
0.000000
0.000000
-5.000000
-5.000000
-5.000000
</DataArray>
</PointData>
<Cells>
<DataArray type='Int32' Name='connectivity' format='ascii'>
0
1
2
3
4
5
6
7
8
9
10
11
12
13
14
15
16
17
18
19
20
21
22
23
24
25
26
27
28
29
30
31
32
33
34
35
36
37
38
39
40
41
42
43
44
45
46
47
48
49
50
51
52
53
54
55
56
57
58
59
60
61
62
63
64
65
66
67
68
69
70
71
72
73
74
75
76
77
78
79
80
81
82
83
84
85
86
87
88
89
90
91
92
93
94
95
96
97
98
99
100
101
102
103
104
105
106
107
108
109
110
111
112
113
114
115
116
117
118
119
120
121
122
123
124
125
126
127
128
129
130
131
132
133
134
135
136
137
138
139
140
141
142
143
144
145
146
147
148
149
150
151
152
153
154
155
156
157
158
159
160
161
162
163
164
165
166
167
168
169
170
171
172
173
174
175
176
177
178
179
180
181
182
183
184
185
186
187
188
189
190
191
192
193
194
195
196
197
198
199
200
201
202
203
204
205
206
207
208
209
210
211
212
213
214
215
216
217
218
219
220
221
222
223
224
225
226
227
228
229
230
231
232
233
234
235
236
237
238
239
240
241
242
243
244
245
246
247
248
249
250
251
252
253
254
255
256
257
258
259
260
261
262
263
264
265
266
267
268
269
270
271
272
273
274
275
276
277
278
279
280
281
282
283
284
285
286
287
288
289
290
291
292
293
294
295
296
297
298
299
300
301
302
303
304
305
306
307
308
309
310
311
312
313
314
315
316
317
318
319
320
321
322
323
324
325
326
327
328
329
330
331
332
333
334
335
336
337
338
339
340
341
342
343
344
345
346
347
348
349
350
351
352
353
354
355
356
357
358
359
360
361
362
363
364
365
366
367
368
369
370
371
372
373
374
375
376
377
378
379
380
381
382
383
384
385
386
387
388
389
390
391
392
393
394
395
396
397
398
399
400
401
402
403
404
405
406
407
408
409
410
411
412
413
414
415
416
417
418
419
420
421
422
423
424
425
426
427
428
429
430
431
432
433
434
435
436
437
438
439
440
441
442
443
444
445
446
447
448
449
450
451
452
453
454
455
456
457
458
459
460
461
462
463
464
465
466
467
468
469
470
471
472
473
474
475
476
477
478
479
480
481
482
483
484
485
486
487
488
489
490
491
492
493
494
495
496
497
498
499
500
501
502
503
504
505
506
507
508
509
510
511
512
513
514
515
516
517
518
519
520
521
522
523
524
525
526
527
528
529
530
531
532
533
534
535
536
537
538
539
540
541
542
543
544
545
546
547
548
549
550
551
552
553
554
555
556
557
558
559
560
561
562
563
564
565
566
567
568
569
570
571
572
573
574
575
576
577
578
579
580
581
582
583
584
585
586
587
588
589
590
591
592
593
594
595
596
597
598
599
600
601
602
603
604
605
606
607
608
609
610
611
612
613
614
615
616
617
618
619
620
621
622
623
624
625
626
627
628
629
630
631
632
633
634
635
636
637
638
639
640
641
642
643
644
645
646
647
648
649
650
651
652
653
654
655
656
657
658
659
660
661
662
663
664
665
666
667
668
669
670
671
672
673
674
675
676
677
678
679
680
681
682
683
684
685
686
687
688
689
690
691
692
693
694
695
696
697
698
699
700
701
702
703
704
705
706
707
708
709
710
711
712
713
714
715
716
717
718
719
720
721
722
723
724
725
726
727
728
729
730
731
732
733
734
735
736
737
738
739
740
741
742
743
744
745
746
747
748
749
750
751
752
753
754
755
756
757
758
759
760
761
762
763
764
765
766
767
768
769
770
771
772
773
774
775
776
777