<?xml version='1.0' encoding='UTF-8'?>
<VTKFile xmlns='VTK' byte_order='LittleEndian' version='0.1' type='UnstructuredGrid'>
<UnstructuredGrid>
<Piece NumberOfCells='1488' NumberOfPoints='1488'>
<Points>
<DataArray NumberOfComponents='3' type='Float32' Name='Position' format='ascii'>
-0.075000 -0.075000 0.000000
-0.075000 -0.050000 0.000000
-0.075000 -0.025000 0.000000
-0.075000 0.000000 0.000000
-0.075000 0.025000 0.000000
-0.075000 0.050000 0.000000
-0.075000 0.075000 0.000000
-0.075000 0.100000 0.000000
-0.075000 0.125000 0.000000
-0.075000 0.150000 0.000000
-0.075000 0.175000 0.000000
-0.075000 0.200000 0.000000
-0.075000 0.225000 0.000000
-0.075000 0.250000 0.000000
-0.075000 0.275000 0.000000
-0.075000 0.300000 0.000000
-0.075000 0.325000 0.000000
-0.075000 0.350000 0.000000
-0.075000 0.375000 0.000000
-0.075000 0.400000 0.000000
-0.075000 0.425000 0.000000
-0.075000 0.450000 0.000000
-0.075000 0.475000 0.000000
-0.075000 0.500000 0.000000
-0.075000 0.525000 0.000000
-0.075000 0.550000 0.000000
-0.075000 0.575000 0.000000
-0.075000 0.600000 0.000000
-0.075000 0.625000 0.000000
-0.075000 0.650000 0.000000
-0.075000 0.675000 0.000000
-0.050000 -0.075000 0.000000
-0.050000 -0.050000 0.000000
-0.050000 -0.025000 0.000000
-0.050000 0.000000 0.000000
-0.050000 0.025000 0.000000
-0.050000 0.050000 0.000000
-0.050000 0.075000 0.000000
-0.050000 0.100000 0.000000
-0.050000 0.125000 0.000000
-0.050000 0.150000 0.000000
-0.050000 0.175000 0.000000
-0.050000 0.200000 0.000000
-0.050000 0.225000 0.000000
-0.050000 0.250000 0.000000
-0.050000 0.275000 0.000000
-0.050000 0.300000 0.000000
-0.050000 0.325000 0.000000
-0.050000 0.350000 0.000000
-0.050000 0.375000 0.000000
-0.050000 0.400000 0.000000
-0.050000 0.425000 0.000000
-0.050000 0.450000 0.000000
-0.050000 0.475000 0.000000
-0.050000 0.500000 0.000000
-0.050000 0.525000 0.000000
-0.050000 0.550000 0.000000
-0.050000 0.575000 0.000000
-0.050000 0.600000 0.000000
-0.050000 0.625000 0.000000
-0.050000 0.650000 0.000000
-0.050000 0.675000 0.000000
-0.025000 -0.075000 0.000000
-0.025000 -0.050000 0.000000
-0.025000 -0.025000 0.000000
-0.025000 0.000000 0.000000
-0.025000 0.025000 0.000000
-0.025000 0.050000 0.000000
-0.025000 0.075000 0.000000
-0.025000 0.100000 0.000000
-0.025000 0.125000 0.000000
-0.025000 0.150000 0.000000
-0.025000 0.175000 0.000000
-0.025000 0.200000 0.000000
-0.025000 0.225000 0.000000
-0.025000 0.250000 0.000000
-0.025000 0.275000 0.000000
-0.025000 0.300000 0.000000
-0.025000 0.325000 0.000000
-0.025000 0.350000 0.000000
-0.025000 0.375000 0.000000
-0.025000 0.400000 0.000000
-0.025000 0.425000 0.000000
-0.025000 0.450000 0.000000
-0.025000 0.475000 0.000000
-0.025000 0.500000 0.000000
-0.025000 0.525000 0.000000
-0.025000 0.550000 0.000000
-0.025000 0.575000 0.000000
-0.025000 0.600000 0.000000
-0.025000 0.625000 0.000000
-0.025000 0.650000 0.000000
-0.025000 0.675000 0.000000
0.000000 -0.075000 0.000000
0.000000 -0.050000 0.000000
0.000000 -0.025000 0.000000
0.000000 0.000000 0.000000
0.000000 0.025000 0.000000
0.000000 0.050000 0.000000
0.000000 0.075000 0.000000
0.000000 0.100000 0.000000
0.000000 0.125000 0.000000
0.000000 0.150000 0.000000
0.000000 0.175000 0.000000
0.000000 0.200000 0.000000
0.000000 0.225000 0.000000
0.000000 0.250000 0.000000
0.000000 0.275000 0.000000
0.000000 0.300000 0.000000
0.000000 0.325000 0.000000
0.000000 0.350000 0.000000
0.000000 0.375000 0.000000
0.000000 0.400000 0.000000
0.000000 0.425000 0.000000
0.000000 0.450000 0.000000
0.000000 0.475000 0.000000
0.000000 0.500000 0.000000
0.000000 0.525000 0.000000
0.000000 0.550000 0.000000
0.000000 0.575000 0.000000
0.000000 0.600000 0.000000
0.000000 0.625000 0.000000
0.000000 0.650000 0.000000
0.000000 0.675000 0.000000
0.025000 -0.075000 0.000000
0.025000 -0.050000 0.000000
0.025000 -0.025000 0.000000
0.025000 0.000000 0.000000
0.025000 0.025000 0.000000
0.025000 0.050000 0.000000
0.025000 0.075000 0.000000
0.025000 0.100000 0.000000
0.025000 0.125000 0.000000
0.025000 0.150000 0.000000
0.025000 0.175000 0.000000
0.025000 0.200000 0.000000
0.025000 0.225000 0.000000
0.025000 0.250000 0.000000
0.025000 0.275000 0.000000
0.025000 0.300000 0.000000
0.025000 0.325000 0.000000
0.025000 0.350000 0.000000
0.025000 0.375000 0.000000
0.025000 0.400000 0.000000
0.025000 0.425000 0.000000
0.025000 0.450000 0.000000
0.025000 0.475000 0.000000
0.025000 0.500000 0.000000
0.025000 0.525000 0.000000
0.025000 0.550000 0.000000
0.025000 0.575000 0.000000
0.025000 0.600000 0.000000
0.025000 0.625000 0.000000
0.025000 0.650000 0.000000
0.025000 0.675000 0.000000
0.050000 -0.075000 0.000000
0.050000 -0.050000 0.000000
0.050000 -0.025000 0.000000
0.050000 0.000000 0.000000
0.050000 0.025000 0.000000
0.050000 0.050000 0.000000
0.050000 0.075000 0.000000
0.050000 0.100000 0.000000
0.050000 0.125000 0.000000
0.050000 0.150000 0.000000
0.050000 0.175000 0.000000
0.050000 0.200000 0.000000
0.050000 0.225000 0.000000
0.050000 0.250000 0.000000
0.050000 0.275000 0.000000
0.050000 0.300000 0.000000
0.050000 0.325000 0.000000
0.050000 0.350000 0.000000
0.050000 0.375000 0.000000
0.050000 0.400000 0.000000
0.050000 0.425000 0.000000
0.050000 0.450000 0.000000
0.050000 0.475000 0.000000
0.050000 0.500000 0.000000
0.050000 0.525000 0.000000
0.050000 0.550000 0.000000
0.050000 0.575000 0.000000
0.050000 0.600000 0.000000
0.050000 0.625000 0.000000
0.050000 0.650000 0.000000
0.050000 0.675000 0.000000
0.075000 -0.075000 0.000000
0.075000 -0.050000 0.000000
0.075000 -0.025000 0.000000
0.075000 0.000000 0.000000
0.075000 0.025000 0.000000
0.075000 0.050000 0.000000
0.075000 0.075000 0.000000
0.075000 0.100000 0.000000
0.075000 0.125000 0.000000
0.075000 0.150000 0.000000
0.075000 0.175000 0.000000
0.075000 0.200000 0.000000
0.075000 0.225000 0.000000
0.075000 0.250000 0.000000
0.075000 0.275000 0.000000
0.075000 0.300000 0.000000
0.075000 0.325000 0.000000
0.075000 0.350000 0.000000
0.075000 0.375000 0.000000
0.075000 0.400000 0.000000
0.075000 0.425000 0.000000
0.075000 0.450000 0.000000
0.075000 0.475000 0.000000
0.075000 0.500000 0.000000
0.075000 0.525000 0.000000
0.075000 0.550000 0.000000
0.075000 0.575000 0.000000
0.075000 0.600000 0.000000
0.075000 0.625000 0.000000
0.075000 0.650000 0.000000
0.075000 0.675000 0.000000
0.100000 -0.075000 0.000000
0.100000 -0.050000 0.000000
0.100000 -0.025000 0.000000
0.100000 0.000000 0.000000
0.100000 0.025000 0.000000
0.100000 0.050000 0.000000
0.100000 0.075000 0.000000
0.100000 0.100000 0.000000
0.100000 0.125000 0.000000
0.100000 0.150000 0.000000
0.100000 0.175000 0.000000
0.100000 0.200000 0.000000
0.100000 0.225000 0.000000
0.100000 0.250000 0.000000
0.100000 0.275000 0.000000
0.100000 0.300000 0.000000
0.100000 0.325000 0.000000
0.100000 0.350000 0.000000
0.100000 0.375000 0.000000
0.100000 0.400000 0.000000
0.100000 0.425000 0.000000
0.100000 0.450000 0.000000
0.100000 0.475000 0.000000
0.100000 0.500000 0.000000
0.100000 0.525000 0.000000
0.100000 0.550000 0.000000
0.100000 0.575000 0.000000
0.100000 0.600000 0.000000
0.100000 0.625000 0.000000
0.100000 0.650000 0.000000
0.100000 0.675000 0.000000
0.125000 -0.075000 0.000000
0.125000 -0.050000 0.000000
0.125000 -0.025000 0.000000
0.125000 0.000000 0.000000
0.125000 0.025000 0.000000
0.125000 0.050000 0.000000
0.125000 0.075000 0.000000
0.125000 0.100000 0.000000
0.125000 0.125000 0.000000
0.125000 0.150000 0.000000
0.125000 0.175000 0.000000
0.125000 0.200000 0.000000
0.125000 0.225000 0.000000
0.125000 0.250000 0.000000
0.125000 0.275000 0.000000
0.125000 0.300000 0.000000
0.125000 0.325000 0.000000
0.125000 0.350000 0.000000
0.125000 0.375000 0.000000
0.125000 0.400000 0.000000
0.125000 0.425000 0.000000
0.125000 0.450000 0.000000
0.125000 0.475000 0.000000
0.125000 0.500000 0.000000
0.125000 0.525000 0.000000
0.125000 0.550000 0.000000
0.125000 0.575000 0.000000
0.125000 0.600000 0.000000
0.125000 0.625000 0.000000
0.125000 0.650000 0.000000
0.125000 0.675000 0.000000
0.150000 -0.075000 0.000000
0.150000 -0.050000 0.000000
0.150000 -0.025000 0.000000
0.150000 0.000000 0.000000
0.150000 0.025000 0.000000
0.150000 0.050000 0.000000
0.150000 0.075000 0.000000
0.150000 0.100000 0.000000
0.150000 0.125000 0.000000
0.150000 0.150000 0.000000
0.150000 0.175000 0.000000
0.150000 0.200000 0.000000
0.150000 0.225000 0.000000
0.150000 0.250000 0.000000
0.150000 0.275000 0.000000
0.150000 0.300000 0.000000
0.150000 0.325000 0.000000
0.150000 0.350000 0.000000
0.150000 0.375000 0.000000
0.150000 0.400000 0.000000
0.150000 0.425000 0.000000
0.150000 0.450000 0.000000
0.150000 0.475000 0.000000
0.150000 0.500000 0.000000
0.150000 0.525000 0.000000
0.150000 0.550000 0.000000
0.150000 0.575000 0.000000
0.150000 0.600000 0.000000
0.150000 0.625000 0.000000
0.150000 0.650000 0.000000
0.150000 0.675000 0.000000
0.175000 -0.075000 0.000000
0.175000 -0.050000 0.000000
0.175000 -0.025000 0.000000
0.175000 0.000000 0.000000
0.175000 0.025000 0.000000
0.175000 0.050000 0.000000
0.175000 0.075000 0.000000
0.175000 0.100000 0.000000
0.175000 0.125000 0.000000
0.175000 0.150000 0.000000
0.175000 0.175000 0.000000
0.175000 0.200000 0.000000
0.175000 0.225000 0.000000
0.175000 0.250000 0.000000
0.175000 0.275000 0.000000
0.175000 0.300000 0.000000
0.175000 0.325000 0.000000
0.175000 0.350000 0.000000
0.175000 0.375000 0.000000
0.175000 0.400000 0.000000
0.175000 0.425000 0.000000
0.175000 0.450000 0.000000
0.175000 0.475000 0.000000
0.175000 0.500000 0.000000
0.175000 0.525000 0.000000
0.175000 0.550000 0.000000
0.175000 0.575000 0.000000
0.175000 0.600000 0.000000
0.175000 0.625000 0.000000
0.175000 0.650000 0.000000
0.175000 0.675000 0.000000
0.200000 -0.075000 0.000000
0.200000 -0.050000 0.000000
0.200000 -0.025000 0.000000
0.200000 0.000000 0.000000
0.200000 0.025000 0.000000
0.200000 0.050000 0.000000
0.200000 0.075000 0.000000
0.200000 0.100000 0.000000
0.200000 0.125000 0.000000
0.200000 0.150000 0.000000
0.200000 0.175000 0.000000
0.200000 0.200000 0.000000
0.200000 0.225000 0.000000
0.200000 0.250000 0.000000
[...]
<PointData>
<DataArray NumberOfComponents='1' type='Int32' Name='ParticleType' format='ascii'>
4
4
4
4
4
4
4
4
4
4
4
4
4
4
4
4
4
4
4
4
4
4
4
4
4
4
4
4
2
2
2
4
4
4
4
4
4
4
4
4
4
4
4
4
4
4
4
4
4
4
4
4
4
4
4
4
4
4
4
2
2
2
4
4
3
3
3
3
3
3
3
3
3
3
3
3
3
3
3
3
3
3
3
3
3
3
3
3
3
3
2
2
2
4
4
3
3
3
3
3
3
3
3
3
3
3
3
3
3
3
3
3
3
3
3
3
3
3
3
3
3
2
2
2
4
4
3
3
0
0
0
0
0
0
0
0
0
0
0
0
0
0
0
0
0
0
0
0
0
1
2
2
2
2
2
4
4
3
3
0
0
0
0
0
0
0
0
0
0
0
0
0
0
0
0
0
0
0
0
0
1
2
2
2
2
2
4
4
3
3
0
0
0
0
0
0
0
0
0
0
0
0
0
0
0
0
0
0
0
0
0
1
2
2
2
2
2
4
4
3
3
0
0
0
0
0
0
0
0
0
0
0
0
0
0
0
0
0
0
0
0
0
1
2
2
2
2
2
4
4
3
3
0
0
0
0
0
0
0
0
0
0
0
0
0
0
0
0
0
0
0
0
0
0
1
2
2
2
2
4
4
3
3
0
0
0
0
0
0
0
0
0
0
0
0
0
0
0
0
0
0
0
0
0
0
1
2
2
2
2
4
4
3
3
0
0
0
0
0
0
0
0
0
0
0
0
0
0
0
0
0
0
0
0
0
0
1
2
2
2
2
4
4
3
3
0
0
0
0
0
0
0
0
0
0
0
0
0
0
0
0
0
0
0
0
0
0
1
2
2
2
2
4
4
3
3
0
0
0
0
0
0
0
0
0
0
0
0
0
0
0
0
0
0
0
0
0
0
1
2
2
2
2
4
4
3
3
0
0
0
0
0
0
0
0
0
0
0
0
0
0
0
0
0
0
0
0
0
0
1
2
2
2
2
4
4
3
3
0
0
0
0
0
0
0
0
0
0
0
0
0
0
0
0
0
0
0
0
0
0
1
2
2
2
2
4
4
3
3
0
0
0
0
0
0
0
0
0
0
0
0
0
0
0
0
0
0
0
0
0
0
1
2
2
2
2
4
4
3
3
0
0
0
0
0
0
0
0
0
0
0
0
0
0
0
0
0
0
0
0
0
0
1
2
2
2
2
4
4
3
3
0
0
0
0
0
0
0
0
0
0
0
0
0
0
0
0
0
0
0
0
0
0
1
2
2
2
2
4
4
3
3
0
0
0
0
0
0
0
0
0
0
0
0
0
0
0
0
0
0
0
0
0
0
1
2
2
2
2
4
4
3
3
0
0
0
0
0
0
0
0
0
0
0
0
0
0
0
0
0
0
0
0
0
0
1
2
2
2
2
4
4
3
3
0
0
0
0
0
0
0
0
0
0
0
0
0
0
0
0
0
0
0
0
0
0
1
2
2
2
2
4
4
3
3
0
0
0
0
0
0
0
0
0
0
0
0
0
0
0
0
0
0
0
0
0
0
1
2
2
2
2
4
4
3
3
0
0
0
0
0
0
0
0
0
0
0
0
0
0
0
0
0
0
0
0
0
0
1
2
2
2
2
4
4
3
3
0
0
0
0
0
0
0
0
0
0
0
0
0
0
0
0
0
0
0
0
0
0
1
2
2
2
2
4
4
3
3
0
0
0
0
0
0
0
0
0
0
0
0
0
0
0
0
0
0
0
0
0
0
1
2
2
2
2
4
4
3
3
0
0
0
0
0
0
0
0
0
0
0
0
0
0
0
0
0
0
0
0
0
0
1
2
2
2
2
4
4
3
3
0
0
0
0
0
0
0
0
0
0
0
0
0
0
0
0
0
0
0
0
0
0
1
2
2
2
2
4
4
3
3
0
0
0
0
0
0
0
0
0
0
0
0
0
0
0
0
0
0
0
0
0
0
1
2
2
2
2
4
4
3
3
0
0
0
0
0
0
0
0
0
0
0
0
0
0
0
0
0
0
0
0
0
0
1
2
2
2
2
4
4
3
3
0
0
0
0
0
0
0
0
0
0
0
0
0
0
0
0
0
0
0
0
0
0
1
2
2
2
2
4
4
3
3
0
0
0
0
0
0
0
0
0
0
0
0
0
0
0
0
0
0
0
0
0
0
1
2
2
2
2
4
4
3
3
0
0
0
0
0
0
0
0
0
0
0
0
0
0
0
0
0
0
0
0
0
0
1
2
2
2
2
4
4
3
3
0
0
0
0
0
0
0
0
0
0
0
0
0
0
0
0
0
0
0
0
0
0
1
2
2
2
2
4
4
3
3
0
0
0
0
0
0
0
0
0
0
0
0
0
0
0
0
0
0
0
0
0
0
1
2
2
2
2
4
4
3
3
0
0
0
0
0
0
0
0
0
0
0
0
0
0
0
0
0
0
0
0
0
0
1
2
2
2
2
4
4
3
3
0
0
0
0
0
0
0
0
0
0
0
0
0
0
0
0
0
0
0
0
0
0
1
2
2
2
2
4
4
3
3
0
0
0
0
0
0
0
0
0
0
0
0
0
0
0
0
0
0
0
0
0
0
1
2
2
2
2
4
4
3
3
0
0
0
0
0
0
0
0
0
0
0
0
0
0
0
0
0
0
0
0
0
0
1
2
2
2
2
4
4
3
3
0
0
0
0
0
0
0
0
0
0
0
0
0
0
0
0
0
0
0
0
0
0
1
2
2
2
2
4
4
3
3
0
0
0
0
0
0
0
0
0
0
0
0
0
0
0
0
0
0
0
0
0
0
1
2
2
2
2
4
4
3
3
0
0
0
0
0
0
0
0
0
0
0
0
0
0
0
0
0
0
0
0
0
1
2
2
2
2
2
4
4
3
3
0
0
0
0
0
0
0
0
0
0
0
0
0
0
0
0
0
0
0
0
0
1
2
2
2
2
2
4
4
3
3
0
0
0
0
0
0
0
0
0
0
0
0
0
0
0
0
0
0
0
0
0
1
2
2
2
2
2
4
4
3
3
0
0
0
0
0
0
0
0
0
0
0
0
0
0
0
0
0
0
0
0
0
1
2
2
2
2
2
4
4
3
3
3
3
3
3
3
3
3
3
3
3
3
3
3
3
3
3
3
3
3
3
3
3
3
3
2
2
2
4
4
3
3
3
3
3
3
3
3
3
3
3
3
3
3
3
3
3
3
3
3
3
3
3
3
3
3
2
2
2
4
4
4
4
4
4
4
4
4
4
4
4
4
4
4
4
4
4
4
4
4
4
4
4
4
4
4
4
2
2
2
4
4
4
4
4
4
4
4
4
4
4
4
4
4
4
4
4
4
4
4
4
4
4
4
4
4
4
4
2
2
2
</DataArray>
<DataArray NumberOfComponents='1' type='Float32' Name='Temperature' format='ascii'>
0.000000
0.000000
0.000000
0.000000
0.000000
0.000000
0.000000
0.000000
0.000000
0.000000
0.000000
0.000000
0.000000
0.000000
0.000000
0.000000
0.000000
0.000000
0.000000
0.000000
0.000000
0.000000
0.000000
0.000000
0.000000
0.000000
0.000000
0.000000
-5.000000
-5.000000
-5.000000
0.000000
0.000000
0.000000
0.000000
0.000000
0.000000
0.000000
0.000000
0.000000
0.000000
0.000000
0.000000
0.000000
0.000000
0.000000
0.000000
0.000000
0.000000
0.000000
0.000000
0.000000
0.000000
0.000000
0.000000
0.000000
0.000000
0.000000
0.000000
-5.000000
-5.000000
-5.000000
0.000000
0.000000
0.000000
0.000000
0.000000
0.000000
0.000000
0.000000
0.000000
0.000000
0.000000
0.000000
0.000000
0.000000
0.000000
0.000000
0.000000
0.000000
0.000000
0.000000
0.000000
0.000000
0.000000
0.000000
0.000000
0.000000
0.000000
0.000000
-5.000000
-5.000000
-5.000000
0.000000
0.000000
0.000000
0.000000
0.000000
0.000000
0.000000
0.000000
0.000000
0.000000
0.000000
0.000000
0.000000
0.000000
0.000000
0.000000
0.000000
0.000000
0.000000
0.000000
0.000000
0.000000
0.000000
0.000000
0.000000
0.000000
0.000000
0.000000
-5.000000
-5.000000
-5.000000
0.000000
0.000000
0.000000
0.000000
0.136001
0.243463
0.351661
0.453536
0.548302
0.634155
0.709541
0.772977
0.823108
0.858738
0.878862
0.882688
0.869663
0.839482
0.792066
0.727501
0.645838
0.546758
0.428135
0.289032
0.093890
0.009403
-1.103562
-2.434150
-5.000000
-5.000000
-5.000000
0.000000
0.000000
0.000000
0.000000
0.245907
0.439910
0.635457
0.819558
0.990836
1.146022
1.282314
1.397027
1.487719
1.552229
1.588739
1.595826
1.572500
1.518225
1.432901
1.316762
1.170094
0.992705
0.781903
0.535987
0.206280
0.009530
-1.414914
-2.816311
-5.000000
-5.000000
-5.000000
0.000000
0.000000
0.000000
0.000000
0.360725
0.645359
0.932245
1.202371
1.453721
1.681499
1.881599
2.050082
2.183365
2.278281
2.332169
2.342948
2.309184
2.230127
2.105702
1.936415
1.723053
1.466096
1.163823
0.813497
0.374100
0.009661
-1.483879
-2.924670
-5.000000
-5.000000
-5.000000
0.000000
0.000000
0.000000
0.000000
0.475257
0.850273
1.228293
1.584280
1.915585
2.215898
2.479810
2.702136
2.878155
3.003698
3.075264
3.090127
3.046422
2.943212
2.780503
2.559186
2.280809
1.947085
1.558676
1.113927
0.594961
0.009905
-1.318151
-2.833651
-5.000000
-5.000000
-5.000000
0.000000
0.000000
0.000000
0.000000
0.590348
1.056209
1.525852
1.968196
2.379964
2.753328
3.081575
3.358267
3.577541
3.734221
3.823967
3.843407
3.790256
3.663407
3.462985
3.190340
2.847937
2.439042
1.967443
1.434943
0.849346
0.131185
-0.007470
-2.648399
-5.000000
-5.000000
-5.000000
0.000000
0.000000
0.000000
0.000000
0.705633
1.262509
1.823972
2.352901
2.845398
3.292118
3.685044
4.016484
4.279433
4.467706
4.576125
4.600675
4.538653
4.388792
4.151349
3.828150
3.422599
2.939524
2.385557
1.766038
1.104872
0.332395
-0.004242
-2.519043
-5.000000
-5.000000
-5.000000
0.000000
0.000000
0.000000
0.000000
0.820746
1.468518
2.121712
2.737185
3.310425
3.830583
4.288340
4.674754
4.981679
5.201927
5.329479
5.359680
5.289412
5.117243
4.843548
4.470607
4.002679
3.445974
2.809257
2.100978
1.348464
0.491781
-0.000642
-2.455330
-5.000000
-5.000000
-5.000000
0.000000
0.000000
0.000000
0.000000
0.935095
1.673176
2.417539
3.119069
3.772656
4.365956
4.888365
5.329701
5.680682
5.933125
6.080177
6.116547
6.038699
5.845024
5.535993
5.114275
4.584870
3.955138
3.235414
2.436337
1.585613
0.630382
0.001655
-2.428931
-5.000000
-5.000000
-5.000000
0.000000
0.000000
0.000000
0.000000
1.047895
1.875079
2.709420
3.495927
4.228905
4.894544
5.480973
5.976788
6.371593
6.656217
6.822992
6.865992
6.781264
6.567012
6.223761
5.754507
5.164862
4.463137
3.660913
2.770571
1.820434
0.765396
0.003770
-2.409788
-5.000000
-5.000000
-5.000000
0.000000
0.000000
0.000000
0.000000
1.158170
2.072476
2.994823
3.864483
4.675198
5.411730
6.060974
6.610334
7.048323
7.364812
7.551330
7.601336
7.510459
7.276704
6.900617
6.385444
5.737301
4.965279
4.082010
3.101441
2.052587
0.898226
0.005148
-2.393163
-5.000000
-5.000000
-5.000000
0.000000
0.000000
0.000000
0.000000
1.264770
2.263310
3.270769
4.220883
5.106857
5.912079
6.622252
7.223630
7.703678
8.051340
8.257374
8.314643
8.218373
7.966355
7.559124
7.000112
6.295827
5.455998
4.494142
3.425635
2.280159
1.028318
0.006708
-2.377522
-5.000000
-5.000000
-5.000000
0.000000
0.000000
0.000000
0.000000
1.366407
2.445271
3.533912
4.560797
5.518623
6.389473
7.157919
7.809122
8.329548
8.707263
8.932293
8.996937
8.896034
8.627163
8.190820
7.590558
6.833180
5.928907
4.891983
3.739051
2.500386
1.154206
0.007545
-2.362648
-5.000000
-5.000000
-5.000000
0.000000
0.000000
0.000000
0.000000
1.461691
2.615868
3.780644
4.879553
5.904822
6.837313
7.660542
8.358648
8.917165
9.323339
9.566518
9.638477
9.533692
9.249540
8.786455
8.148062
7.341359
6.376929
5.269572
4.037016
2.710021
1.274094
0.008344
-2.348619
-5.000000
-5.000000
-5.000000
0.000000
0.000000
0.000000
0.000000
1.549182
2.772519
4.007225
5.172307
6.259569
7.248752
8.122406
8.863735
9.457420
9.889962
10.150090
10.229105
10.121157
9.823433
9.336297
8.663400
7.811856
6.792480
5.620465
4.314423
2.905476
1.385945
0.008819
-2.335631
-5.000000
-5.000000
-5.000000
0.000000
0.000000
0.000000
0.000000
1.627441
2.912648
4.209922
5.434228
6.576990
7.616955
8.535808
9.315920
9.941214
10.397526
10.673039
10.758640
10.648189
10.338710
9.830491
9.127181
8.235943
7.167715
5.937930
4.565883
3.082931
1.487583
0.009061
-2.323900
-5.000000
-5.000000
-5.000000
0.000000
0.000000
0.000000
0.000000
1.695094
3.033790
4.385163
5.660689
6.851466
7.935381
8.893376
9.707101
10.359827
10.836821
11.125800
11.217295
11.104927
10.785577
10.259468
9.530227
8.605020
7.494826
6.215195
4.785915
3.238461
1.576760
0.009276
-2.313651
-5.000000
-5.000000
-5.000000
0.000000
0.000000
0.000000
0.000000
1.750885
3.133695
4.529690
5.847471
7.077868
8.198060
9.188378
10.029880
10.705298
11.199435
11.499623
11.596109
11.482318
11.155018
10.614378
9.863997
8.911019
7.766415
6.445768
4.969198
3.368211
1.651238
0.009476
-2.305116
-5.000000
-5.000000
-5.000000
0.000000
0.000000
0.000000
0.000000
1.793736
3.210428
4.640700
5.990942
7.251782
8.399856
9.415023
10.277889
10.970773
11.478119
11.786970
11.887350
11.772540
11.439222
10.887523
10.121020
9.146833
7.975905
6.623812
5.110893
3.468631
1.708928
0.009586
-2.298522
-5.000000
-5.000000
-5.000000
0.000000
0.000000
0.000000
0.000000
1.822789
3.262455
4.715969
6.088224
7.369710
8.536696
9.568720
10.446081
11.150817
11.667128
11.981858
12.084881
11.969378
11.631972
11.072764
10.295318
9.306741
8.117964
6.744558
5.207004
3.536761
1.748075
0.009645
-2.294056
-5.000000
-5.000000
-5.000000
0.000000
0.000000
0.000000
0.000000
1.837452
3.288712
4.753957
6.137322
7.429228
8.605757
9.646287
10.530957
11.241664
11.762481
12.080146
12.184455
12.068531
11.728967
11.165851
10.382750
9.386779
8.188888
6.804680
5.254735
3.570519
1.767439
0.009673
-2.291849
-5.000000
-5.000000
-5.000000
0.000000
0.000000
0.000000
0.000000
1.837421
3.288658
4.753877
6.137217
7.429097
8.605599
9.646099
10.530734
11.241396
11.762150
12.079729
12.183915
12.067825
11.728045
11.164665
10.381266
9.385002
8.186880
6.802578
5.252749
3.568917
1.766433
0.009628
-2.291960
-5.000000
-5.000000
-5.000000
0.000000
0.000000
0.000000
0.000000
1.822699
3.262292
4.715732
6.087912
7.369323
8.536229
9.568166
10.445423
11.150026
11.666158
11.980635
12.083306
11.967323
11.629293
11.069322
10.291023
9.301608
8.112174
6.738507
5.201296
3.532164
1.745195
0.009632
-2.294371
-5.000000
-5.000000
-5.000000
0.000000
0.000000
0.000000
0.000000
1.793589
3.210164
4.640315
5.990436
7.251153
8.399100
9.414128
10.276829
10.969504
11.476569
11.785027
11.884861
11.769310
11.435030
10.882161
10.114356
9.138896
7.966984
6.614518
5.102153
3.461610
1.704539
0.009577
-2.299004
-5.000000
-5.000000
-5.000000
0.000000
0.000000
0.000000
0.000000
1.750688
3.133339
4.529171
5.846789
7.077023
8.197046
9.187180
10.028469
10.703619
11.197397
11.497090
11.592890
11.478172
11.149676
10.607588
9.855606
8.901081
7.755300
6.434242
4.958405
3.359571
1.645850
0.009449
-2.305716
-5.000000
-5.000000
-5.000000
0.000000
0.000000
0.000000
0.000000
1.694853
3.033356
4.384529
5.659858
6.850438
7.934150
8.891927
9.705403
10.357821
10.834409
11.122833
11.213565
11.100174
10.779509
10.251822
9.520851
8.593990
7.482568
6.202558
4.774142
3.229076
1.570920
0.009216
-2.314315
-5.000000
-5.000000
-5.000000
0.000000
0.000000
0.000000
0.000000
1.627165
2.912151
4.209196
5.433277
6.575816
7.615553
8.534167
9.314009
9.938975
10.394863
10.669805
10.754629
10.643143
10.332345
9.822555
9.117541
8.224697
7.155311
5.925230
4.554120
3.073594
1.481785
0.009036
-2.324577
-5.000000
-5.000000
-5.000000
0.000000
0.000000
0.000000
0.000000
1.548880
2.771975
4.006432
5.171270
6.258290
7.247230
8.120632
8.861685
9.455043
9.887171
10.146749
10.225027
10.116105
9.817153
9.328566
8.654112
7.801128
6.780750
5.608545
4.303452
2.896808
1.380568
0.008634
-2.336281
-5.000000
-5.000000
-5.000000
0.000000
0.000000
0.000000
0.000000
1.461373
2.615295
3.779809
4.878462
5.903480
6.835722
7.658697
8.356532
8.914738
9.320529
9.563211
9.634512
9.528869
9.243645
8.779305
8.139584
7.331676
6.366444
5.259006
4.027359
2.702430
1.269399
0.008192
-2.349199
-5.000000
-5.000000
-5.000000
0.000000
0.000000
0.000000
0.000000
1.366081
2.444685
3.533059
4.559685
5.517258
6.387860
7.156059
7.807006
8.327148
8.704526
8.929130
8.993222
8.891607
8.621857
8.184495
7.583171
6.824850
5.919985
4.883075
3.730972
2.494075
1.150328
0.007494
-2.363121
-5.000000
-5.000000
-5.000000
0.000000
0.000000
0.000000
0.000000
1.264446
2.262728
3.269922
4.219781
5.105506
5.910488
6.620427
7.221571
7.701370
8.048748
8.254436
8.311267
8.214442
7.961746
7.553740
6.993932
6.288962
5.448735
4.486964
3.419181
2.275157
1.025272
0.006593
-2.377875
-5.000000
-5.000000
-5.000000
0.000000
0.000000
0.000000
0.000000
1.157855
2.071911
2.994003
3.863416
4.673894
5.410200
6.059228
6.608378
7.046155
7.362415
7.548665
7.598345
7.507064
7.272821
6.896185
6.380459
5.731858
4.959603
4.076468
3.096510
2.048801
0.895956
0.005565
-2.393392
-5.000000
-5.000000
-5.000000
0.000000
0.000000
0.000000
0.000000
1.047598
1.874544
2.708644
3.494918
4.227674
4.893103
5.479337
5.974969
6.369599
6.654046
6.820625
6.863398
6.778397
6.563823
6.220216
5.750614
5.160700
4.458874
3.656817
2.766980
1.817716
0.763785
0.003535
-2.409909
-5.000000
-5.000000
-5.000000
0.000000
0.000000
0.000000
0.000000
0.934820
1.672681
2.416820
3.118136
3.771520
4.364631
4.886866
5.328045
5.678885
5.931193
6.078112
6.114337
6.036322
5.842459
5.533226
5.111323
4.581795
3.952066
3.232539
2.433906
1.583872
0.629474
0.001642
-2.428827
-5.000000
-5.000000
-5.000000
0.000000
0.000000
0.000000
0.000000
0.820497
1.468070
2.121062
2.736341
3.309400
3.829389
4.286995
4.673277
4.980089
5.200240
5.327705
5.357824
5.287472
5.115213
4.841433
4.468426
4.000487
3.443867
2.807391
2.099593
1.347773
0.491848
-0.000637
-2.454773
-5.000000
-5.000000
-5.000000
0.000000
0.000000
0.000000
0.000000
0.705413
1.262113
1.823398
2.352158
2.844494
3.291068
3.683864
4.015195
4.278054
4.466259
4.574627
4.599139
4.537090
4.387209
4.149759
3.826579
3.421096
2.938170
2.384514
1.765614
1.105696
0.335367
-0.003389
-2.517675
-5.000000
-5.000000
-5.000000
0.000000
0.000000
0.000000
0.000000
0.590159
1.055870
1.525359
1.967558
2.379189
2.752430
3.080568
3.357171
3.576375
3.733008
3.822726
3.842158
3.789014
3.662187
3.461808
3.189234
2.846949
2.438246
1.967021
1.435226
0.852250
0.138619
-0.006865
-2.646088
-5.000000
-5.000000
-5.000000
0.000000
0.000000
0.000000
0.000000
0.475101
0.849993
1.227886
1.583753
1.914945
2.215157
2.478980
2.701235
2.877201
3.002711
3.074265
3.089135
3.045455
2.942288
2.779647
2.558426
2.280190
1.946665
1.558614
1.114612
0.598663
0.009913
-1.314399
-2.830589
-5.000000
-5.000000
-5.000000
0.000000
0.000000
0.000000
0.000000
0.360603
0.645139
0.931926
1.201959
1.453221
1.680920
1.880951
2.049380
2.182623
2.277517
2.331400
2.342192
2.308458
2.229449
2.105096
1.935907
1.722678
1.465891
1.163868
0.813907
0.376729
0.009689
-1.480595
-2.921757
-5.000000
-5.000000
-5.000000
0.000000
0.000000
0.000000
0.000000
0.245820
0.439755
0.635232
0.819267
0.990482
1.145612
1.281856
1.396532
1.487196
1.551691
1.588200
1.595299
1.571999
1.517764
1.432498
1.316440
1.169876
0.992597
0.781901
0.536070
0.206954
0.009546
-1.412645
-2.814171
-5.000000
-5.000000
-5.000000
0.000000
0.000000
0.000000
0.000000
0.135951
0.243373
0.351530
0.453367
0.548098
0.633918
0.709276
0.772689
0.822804
0.858427
0.878550
0.882383
0.869374
0.839218
0.791839
0.727323
0.645720
0.546695
0.428077
0.288896
0.093588
0.009420
-1.102366
-2.432989
-5.000000
-5.000000
-5.000000
0.000000
0.000000
0.000000
0.000000
0.000000
0.000000
0.000000
0.000000
0.000000
0.000000
0.000000
0.000000
0.000000
0.000000
0.000000
0.000000
0.000000
0.000000
0.000000
0.000000
0.000000
0.000000
0.000000
0.000000
0.000000
0.000000
0.000000
0.000000
-5.000000
-5.000000
-5.000000
0.000000
0.000000
0.000000
0.000000
0.000000
0.000000
0.000000
0.000000
0.000000
0.000000
0.000000
0.000000
0.000000
0.000000
0.000000
0.000000
0.000000
0.000000
0.000000
0.000000
0.000000
0.000000
0.000000
0.000000
0.000000
0.000000
0.000000
0.000000
-5.000000
-5.000000
-5.000000
0.000000
0.000000
0.000000
0.000000
0.000000
0.000000
0.000000
0.000000
0.000000
0.000000
0.000000
0.000000
0.000000
0.000000
0.000000
0.000000
0.000000
0.000000
0.000000
0.000000
0.000000
0.000000
0.000000
0.000000
0.000000
0.000000
0.000000
0.000000
-5.000000
-5.000000
-5.000000
0.000000
0.000000
0.000000
0.000000
0.000000
0.000000
0.000000
0.000000
0.000000
0.000000
0.000000
0.000000
0.000000
0.000000
0.000000
0.000000
0.000000
0.000000
0.000000
0.000000
0.000000
0.000000
0.000000
0.000000
0.000000
0.000000
0.000000
0.000000
-5.000000
-5.000000
-5.000000
</DataArray>
</PointData>
<Cells>
<DataArray type='Int32' Name='connectivity' format='ascii'>
0
1
2
3
4
5
6
7
8
9
10
11
12
13
14
15
16
17
18
19
20
21
22
23
24
25
26
27
28
29
30
31
32
33
34
35
36
37
38
39
40
41
42
43
44
45
46
47
48
49
50
51
52
53
54
55
56
57
58
59
60
61
62
63
64
65
66
67
68
69
70
71
72
73
74
75
76
77
78
79
80
81
82
83
84
85
86
87
88
89
90
91
92
93
94
95
96
97
98
99
100
101
102
103
104
105
106
107
108
109
110
111
112
113
114
115
116
117
118
119
120
121
122
123
124
125
126
127
128
129
130
131
132
133
134
135
136
137
138
139
140
141
142
143
144
145
146
147
148
149
150
151
152
153
154
155
156
157
158
159
160
161
162
163
164
165
166
167
168
169
170
171
172
173
174
175
176
177
178
179
180
181
182
183
184
185
186
187
188
189
190
191
192
193
194
195
196
197
198
199
200
201
202
203
204
205
206
207
208
209
210
211
212
213
214
215
216
217
218
219
220
221
222
223
224
225
226
227
228
229
230
231
232
233
234
235
236
237
238
239
240
241
242
243
244
245
246
247
248
249
250
251
252
253
254
255
256
257
258
259
260
261
262
263
264
265
266
267
268
269
270
271
272
273
274
275
276
277
278
279
280
281
282
283
284
285
286
287
288
289
290
291
292
293
294
295
296
297
298
299
300
301
302
303
304
305
306
307
308
309
310
311
312
313
314
315
316
317
318
319
320
321
322
323
324
325
326
327
328
329
330
331
332
333
334
335
336
337
338
339
340
341
342
343
344
345
346
347
348
349
350
351
352
353
354
355
356
357
358
359
360
361
362
363
364
365
366
367
368
369
370
371
372
373
374
375
376
377
378
379
380
381
382
383
384
385
386
387
388
389
390
391
392
393
394
395
396
397
398
399
400
401
402
403
404
405
406
407
408
409
410
411
412
413
414
415
416
417
418
419
420
421
422
423
424
425
426
427
428
429
430
431
432
433
434
435
436
437
438
439
440
441
442
443
444
445
446
447
448
449
450
451
452
453
454
455
456
457
458
459
460
461
462
463
464
465
466
467
468
469
470
471
472
473
474
475
476
477
478
479
480
481
482
483
484
485
486
487
488
489
490
491
492
493
494
495
496
497
498
499
500
501
502
503
504
505
506
507
508
509
510
511
512
513
514
515
516
517
518
519
520
521
522
523
524
525
526
527
528
529
530
531
532
533
534
535
536
537
538
539
540
541
542
543
544
545
546
547
548
549
550
551
552
553
554
555
556
557
558
559
560
561
562
563
564
565
566
567
568
569
570
571
572
573
574
575
576
577
578
579
580
581
582
583
584
585
586
587
588
589
590
591
592
593
594
595
596
597
598
599
600
601
602
603
604
605
606
607
608
609
610
611
612
613
614
615
616
617
618
619
620
621
622
623
624
625
626
627
628
629
630
631
632
633
634
635
636
637
638
639
640
641
642
643
644
645
646
647
648
649
650
651
652
653
654
655
656
657
658
659
660
661
662
663
664
665
666
667
668
669
670
671
672
673
674
675
676
677
678
679
680
681
682
683
684
685
686
687
688
689
690
691
692
693
694
695
696
697
698
699
700
701
702
703
704
705
706
707
708
709
710
711
712
713
714
715
716
717
718
719
720
721
722
723
724
725
726
727
728
729
730
731
732
733
734
735
736
737
738
739
740
741
742
743
744
745
746
747
748
749
750
751
752
753
754
755
756
757
758
759
760
761
762
763
764
765
766
767
768
769
770
771
772
773
774
775
776
777
778
779
780
781
782
783
784
785
786
787
788