<?xml version='1.0' encoding='UTF-8'?>
<VTKFile xmlns='VTK' byte_order='LittleEndian' version='0.1' type='UnstructuredGrid'>
<UnstructuredGrid>
<Piece NumberOfCells='1488' NumberOfPoints='1488'>
<Points>
<DataArray NumberOfComponents='3' type='Float32' Name='Position' format='ascii'>
-0.075000 -0.075000 0.000000
-0.075000 -0.050000 0.000000
-0.075000 -0.025000 0.000000
-0.075000 0.000000 0.000000
-0.075000 0.025000 0.000000
-0.075000 0.050000 0.000000
-0.075000 0.075000 0.000000
-0.075000 0.100000 0.000000
-0.075000 0.125000 0.000000
-0.075000 0.150000 0.000000
-0.075000 0.175000 0.000000
-0.075000 0.200000 0.000000
-0.075000 0.225000 0.000000
-0.075000 0.250000 0.000000
-0.075000 0.275000 0.000000
-0.075000 0.300000 0.000000
-0.075000 0.325000 0.000000
-0.075000 0.350000 0.000000
-0.075000 0.375000 0.000000
-0.075000 0.400000 0.000000
-0.075000 0.425000 0.000000
-0.075000 0.450000 0.000000
-0.075000 0.475000 0.000000
-0.075000 0.500000 0.000000
-0.075000 0.525000 0.000000
-0.075000 0.550000 0.000000
-0.075000 0.575000 0.000000
-0.075000 0.600000 0.000000
-0.075000 0.625000 0.000000
-0.075000 0.650000 0.000000
-0.075000 0.675000 0.000000
-0.050000 -0.075000 0.000000
-0.050000 -0.050000 0.000000
-0.050000 -0.025000 0.000000
-0.050000 0.000000 0.000000
-0.050000 0.025000 0.000000
-0.050000 0.050000 0.000000
-0.050000 0.075000 0.000000
-0.050000 0.100000 0.000000
-0.050000 0.125000 0.000000
-0.050000 0.150000 0.000000
-0.050000 0.175000 0.000000
-0.050000 0.200000 0.000000
-0.050000 0.225000 0.000000
-0.050000 0.250000 0.000000
-0.050000 0.275000 0.000000
-0.050000 0.300000 0.000000
-0.050000 0.325000 0.000000
-0.050000 0.350000 0.000000
-0.050000 0.375000 0.000000
-0.050000 0.400000 0.000000
-0.050000 0.425000 0.000000
-0.050000 0.450000 0.000000
-0.050000 0.475000 0.000000
-0.050000 0.500000 0.000000
-0.050000 0.525000 0.000000
-0.050000 0.550000 0.000000
-0.050000 0.575000 0.000000
-0.050000 0.600000 0.000000
-0.050000 0.625000 0.000000
-0.050000 0.650000 0.000000
-0.050000 0.675000 0.000000
-0.025000 -0.075000 0.000000
-0.025000 -0.050000 0.000000
-0.025000 -0.025000 0.000000
-0.025000 0.000000 0.000000
-0.025000 0.025000 0.000000
-0.025000 0.050000 0.000000
-0.025000 0.075000 0.000000
-0.025000 0.100000 0.000000
-0.025000 0.125000 0.000000
-0.025000 0.150000 0.000000
-0.025000 0.175000 0.000000
-0.025000 0.200000 0.000000
-0.025000 0.225000 0.000000
-0.025000 0.250000 0.000000
-0.025000 0.275000 0.000000
-0.025000 0.300000 0.000000
-0.025000 0.325000 0.000000
-0.025000 0.350000 0.000000
-0.025000 0.375000 0.000000
-0.025000 0.400000 0.000000
-0.025000 0.425000 0.000000
-0.025000 0.450000 0.000000
-0.025000 0.475000 0.000000
-0.025000 0.500000 0.000000
-0.025000 0.525000 0.000000
-0.025000 0.550000 0.000000
-0.025000 0.575000 0.000000
-0.025000 0.600000 0.000000
-0.025000 0.625000 0.000000
-0.025000 0.650000 0.000000
-0.025000 0.675000 0.000000
0.000000 -0.075000 0.000000
0.000000 -0.050000 0.000000
0.000000 -0.025000 0.000000
0.000000 0.000000 0.000000
0.000000 0.025000 0.000000
0.000000 0.050000 0.000000
0.000000 0.075000 0.000000
0.000000 0.100000 0.000000
0.000000 0.125000 0.000000
0.000000 0.150000 0.000000
0.000000 0.175000 0.000000
0.000000 0.200000 0.000000
0.000000 0.225000 0.000000
0.000000 0.250000 0.000000
0.000000 0.275000 0.000000
0.000000 0.300000 0.000000
0.000000 0.325000 0.000000
0.000000 0.350000 0.000000
0.000000 0.375000 0.000000
0.000000 0.400000 0.000000
0.000000 0.425000 0.000000
0.000000 0.450000 0.000000
0.000000 0.475000 0.000000
0.000000 0.500000 0.000000
0.000000 0.525000 0.000000
0.000000 0.550000 0.000000
0.000000 0.575000 0.000000
0.000000 0.600000 0.000000
0.000000 0.625000 0.000000
0.000000 0.650000 0.000000
0.000000 0.675000 0.000000
0.025000 -0.075000 0.000000
0.025000 -0.050000 0.000000
0.025000 -0.025000 0.000000
0.025000 0.000000 0.000000
0.025000 0.025000 0.000000
0.025000 0.050000 0.000000
0.025000 0.075000 0.000000
0.025000 0.100000 0.000000
0.025000 0.125000 0.000000
0.025000 0.150000 0.000000
0.025000 0.175000 0.000000
0.025000 0.200000 0.000000
0.025000 0.225000 0.000000
0.025000 0.250000 0.000000
0.025000 0.275000 0.000000
0.025000 0.300000 0.000000
0.025000 0.325000 0.000000
0.025000 0.350000 0.000000
0.025000 0.375000 0.000000
0.025000 0.400000 0.000000
0.025000 0.425000 0.000000
0.025000 0.450000 0.000000
0.025000 0.475000 0.000000
0.025000 0.500000 0.000000
0.025000 0.525000 0.000000
0.025000 0.550000 0.000000
0.025000 0.575000 0.000000
0.025000 0.600000 0.000000
0.025000 0.625000 0.000000
0.025000 0.650000 0.000000
0.025000 0.675000 0.000000
0.050000 -0.075000 0.000000
0.050000 -0.050000 0.000000
0.050000 -0.025000 0.000000
0.050000 0.000000 0.000000
0.050000 0.025000 0.000000
0.050000 0.050000 0.000000
0.050000 0.075000 0.000000
0.050000 0.100000 0.000000
0.050000 0.125000 0.000000
0.050000 0.150000 0.000000
0.050000 0.175000 0.000000
0.050000 0.200000 0.000000
0.050000 0.225000 0.000000
0.050000 0.250000 0.000000
0.050000 0.275000 0.000000
0.050000 0.300000 0.000000
0.050000 0.325000 0.000000
0.050000 0.350000 0.000000
0.050000 0.375000 0.000000
0.050000 0.400000 0.000000
0.050000 0.425000 0.000000
0.050000 0.450000 0.000000
0.050000 0.475000 0.000000
0.050000 0.500000 0.000000
0.050000 0.525000 0.000000
0.050000 0.550000 0.000000
0.050000 0.575000 0.000000
0.050000 0.600000 0.000000
0.050000 0.625000 0.000000
0.050000 0.650000 0.000000
0.050000 0.675000 0.000000
0.075000 -0.075000 0.000000
0.075000 -0.050000 0.000000
0.075000 -0.025000 0.000000
0.075000 0.000000 0.000000
0.075000 0.025000 0.000000
0.075000 0.050000 0.000000
0.075000 0.075000 0.000000
0.075000 0.100000 0.000000
0.075000 0.125000 0.000000
0.075000 0.150000 0.000000
0.075000 0.175000 0.000000
0.075000 0.200000 0.000000
0.075000 0.225000 0.000000
0.075000 0.250000 0.000000
0.075000 0.275000 0.000000
0.075000 0.300000 0.000000
0.075000 0.325000 0.000000
0.075000 0.350000 0.000000
0.075000 0.375000 0.000000
0.075000 0.400000 0.000000
0.075000 0.425000 0.000000
0.075000 0.450000 0.000000
0.075000 0.475000 0.000000
0.075000 0.500000 0.000000
0.075000 0.525000 0.000000
0.075000 0.550000 0.000000
0.075000 0.575000 0.000000
0.075000 0.600000 0.000000
0.075000 0.625000 0.000000
0.075000 0.650000 0.000000
0.075000 0.675000 0.000000
0.100000 -0.075000 0.000000
0.100000 -0.050000 0.000000
0.100000 -0.025000 0.000000
0.100000 0.000000 0.000000
0.100000 0.025000 0.000000
0.100000 0.050000 0.000000
0.100000 0.075000 0.000000
0.100000 0.100000 0.000000
0.100000 0.125000 0.000000
0.100000 0.150000 0.000000
0.100000 0.175000 0.000000
0.100000 0.200000 0.000000
0.100000 0.225000 0.000000
0.100000 0.250000 0.000000
0.100000 0.275000 0.000000
0.100000 0.300000 0.000000
0.100000 0.325000 0.000000
0.100000 0.350000 0.000000
0.100000 0.375000 0.000000
0.100000 0.400000 0.000000
0.100000 0.425000 0.000000
0.100000 0.450000 0.000000
0.100000 0.475000 0.000000
0.100000 0.500000 0.000000
0.100000 0.525000 0.000000
0.100000 0.550000 0.000000
0.100000 0.575000 0.000000
0.100000 0.600000 0.000000
0.100000 0.625000 0.000000
0.100000 0.650000 0.000000
0.100000 0.675000 0.000000
0.125000 -0.075000 0.000000
0.125000 -0.050000 0.000000
0.125000 -0.025000 0.000000
0.125000 0.000000 0.000000
0.125000 0.025000 0.000000
0.125000 0.050000 0.000000
0.125000 0.075000 0.000000
0.125000 0.100000 0.000000
0.125000 0.125000 0.000000
0.125000 0.150000 0.000000
0.125000 0.175000 0.000000
0.125000 0.200000 0.000000
0.125000 0.225000 0.000000
0.125000 0.250000 0.000000
0.125000 0.275000 0.000000
0.125000 0.300000 0.000000
0.125000 0.325000 0.000000
0.125000 0.350000 0.000000
0.125000 0.375000 0.000000
0.125000 0.400000 0.000000
0.125000 0.425000 0.000000
0.125000 0.450000 0.000000
0.125000 0.475000 0.000000
0.125000 0.500000 0.000000
0.125000 0.525000 0.000000
0.125000 0.550000 0.000000
0.125000 0.575000 0.000000
0.125000 0.600000 0.000000
0.125000 0.625000 0.000000
0.125000 0.650000 0.000000
0.125000 0.675000 0.000000
0.150000 -0.075000 0.000000
0.150000 -0.050000 0.000000
0.150000 -0.025000 0.000000
0.150000 0.000000 0.000000
0.150000 0.025000 0.000000
0.150000 0.050000 0.000000
0.150000 0.075000 0.000000
0.150000 0.100000 0.000000
0.150000 0.125000 0.000000
0.150000 0.150000 0.000000
0.150000 0.175000 0.000000
0.150000 0.200000 0.000000
0.150000 0.225000 0.000000
0.150000 0.250000 0.000000
0.150000 0.275000 0.000000
0.150000 0.300000 0.000000
0.150000 0.325000 0.000000
0.150000 0.350000 0.000000
0.150000 0.375000 0.000000
0.150000 0.400000 0.000000
0.150000 0.425000 0.000000
0.150000 0.450000 0.000000
0.150000 0.475000 0.000000
0.150000 0.500000 0.000000
0.150000 0.525000 0.000000
0.150000 0.550000 0.000000
0.150000 0.575000 0.000000
0.150000 0.600000 0.000000
0.150000 0.625000 0.000000
0.150000 0.650000 0.000000
0.150000 0.675000 0.000000
0.175000 -0.075000 0.000000
0.175000 -0.050000 0.000000
0.175000 -0.025000 0.000000
0.175000 0.000000 0.000000
0.175000 0.025000 0.000000
0.175000 0.050000 0.000000
0.175000 0.075000 0.000000
0.175000 0.100000 0.000000
0.175000 0.125000 0.000000
0.175000 0.150000 0.000000
0.175000 0.175000 0.000000
0.175000 0.200000 0.000000
0.175000 0.225000 0.000000
0.175000 0.250000 0.000000
0.175000 0.275000 0.000000
0.175000 0.300000 0.000000
0.175000 0.325000 0.000000
0.175000 0.350000 0.000000
0.175000 0.375000 0.000000
0.175000 0.400000 0.000000
0.175000 0.425000 0.000000
0.175000 0.450000 0.000000
0.175000 0.475000 0.000000
0.175000 0.500000 0.000000
0.175000 0.525000 0.000000
0.175000 0.550000 0.000000
0.175000 0.575000 0.000000
0.175000 0.600000 0.000000
0.175000 0.625000 0.000000
0.175000 0.650000 0.000000
0.175000 0.675000 0.000000
0.200000 -0.075000 0.000000
0.200000 -0.050000 0.000000
0.200000 -0.025000 0.000000
0.200000 0.000000 0.000000
0.200000 0.025000 0.000000
0.200000 0.050000 0.000000
0.200000 0.075000 0.000000
0.200000 0.100000 0.000000
0.200000 0.125000 0.000000
0.200000 0.150000 0.000000
0.200000 0.175000 0.000000
0.200000 0.200000 0.000000
0.200000 0.225000 0.000000
0.200000 0.250000 0.000000
[...]
<PointData>
<DataArray NumberOfComponents='1' type='Int32' Name='ParticleType' format='ascii'>
4
4
4
4
4
4
4
4
4
4
4
4
4
4
4
4
4
4
4
4
4
4
4
4
4
4
4
4
2
2
2
4
4
4
4
4
4
4
4
4
4
4
4
4
4
4
4
4
4
4
4
4
4
4
4
4
4
4
4
2
2
2
4
4
3
3
3
3
3
3
3
3
3
3
3
3
3
3
3
3
3
3
3
3
3
3
3
3
3
3
2
2
2
4
4
3
3
3
3
3
3
3
3
3
3
3
3
3
3
3
3
3
3
3
3
3
3
3
3
3
3
2
2
2
4
4
3
3
0
0
0
0
0
0
0
0
0
0
0
0
0
0
0
0
0
0
0
0
0
1
1
2
2
2
2
4
4
3
3
0
0
0
0
0
0
0
0
0
0
0
0
0
0
0
0
0
0
0
0
0
0
1
2
2
2
2
4
4
3
3
0
0
0
0
0
0
0
0
0
0
0
0
0
0
0
0
0
0
0
0
0
0
1
2
2
2
2
4
4
3
3
0
0
0
0
0
0
0
0
0
0
0
0
0
0
0
0
0
0
0
0
0
0
1
2
2
2
2
4
4
3
3
0
0
0
0
0
0
0
0
0
0
0
0
0
0
0
0
0
0
0
0
0
0
1
2
2
2
2
4
4
3
3
0
0
0
0
0
0
0
0
0
0
0
0
0
0
0
0
0
0
0
0
0
0
1
2
2
2
2
4
4
3
3
0
0
0
0
0
0
0
0
0
0
0
0
0
0
0
0
0
0
0
0
0
0
1
2
2
2
2
4
4
3
3
0
0
0
0
0
0
0
0
0
0
0
0
0
0
0
0
0
0
0
0
0
0
1
2
2
2
2
4
4
3
3
0
0
0
0
0
0
0
0
0
0
0
0
0
0
0
0
0
0
0
0
0
0
1
2
2
2
2
4
4
3
3
0
0
0
0
0
0
0
0
0
0
0
0
0
0
0
0
0
0
0
0
0
0
1
2
2
2
2
4
4
3
3
0
0
0
0
0
0
0
0
0
0
0
0
0
0
0
0
0
0
0
0
0
0
0
2
2
2
2
4
4
3
3
0
0
0
0
0
0
0
0
0
0
0
0
0
0
0
0
0
0
0
0
0
0
0
2
2
2
2
4
4
3
3
0
0
0
0
0
0
0
0
0
0
0
0
0
0
0
0
0
0
0
0
0
0
0
2
2
2
2
4
4
3
3
0
0
0
0
0
0
0
0
0
0
0
0
0
0
0
0
0
0
0
0
0
0
0
2
2
2
2
4
4
3
3
0
0
0
0
0
0
0
0
0
0
0
0
0
0
0
0
0
0
0
0
0
0
0
1
2
2
2
4
4
3
3
0
0
0
0
0
0
0
0
0
0
0
0
0
0
0
0
0
0
0
0
0
0
0
1
2
2
2
4
4
3
3
0
0
0
0
0
0
0
0
0
0
0
0
0
0
0
0
0
0
0
0
0
0
0
1
2
2
2
4
4
3
3
0
0
0
0
0
0
0
0
0
0
0
0
0
0
0
0
0
0
0
0
0
0
0
1
2
2
2
4
4
3
3
0
0
0
0
0
0
0
0
0
0
0
0
0
0
0
0
0
0
0
0
0
0
0
1
2
2
2
4
4
3
3
0
0
0
0
0
0
0
0
0
0
0
0
0
0
0
0
0
0
0
0
0
0
0
1
2
2
2
4
4
3
3
0
0
0
0
0
0
0
0
0
0
0
0
0
0
0
0
0
0
0
0
0
0
0
1
2
2
2
4
4
3
3
0
0
0
0
0
0
0
0
0
0
0
0
0
0
0
0
0
0
0
0
0
0
0
1
2
2
2
4
4
3
3
0
0
0
0
0
0
0
0
0
0
0
0
0
0
0
0
0
0
0
0
0
0
0
1
2
2
2
4
4
3
3
0
0
0
0
0
0
0
0
0
0
0
0
0
0
0
0
0
0
0
0
0
0
0
1
2
2
2
4
4
3
3
0
0
0
0
0
0
0
0
0
0
0
0
0
0
0
0
0
0
0
0
0
0
0
1
2
2
2
4
4
3
3
0
0
0
0
0
0
0
0
0
0
0
0
0
0
0
0
0
0
0
0
0
0
0
1
2
2
2
4
4
3
3
0
0
0
0
0
0
0
0
0
0
0
0
0
0
0
0
0
0
0
0
0
0
0
2
2
2
2
4
4
3
3
0
0
0
0
0
0
0
0
0
0
0
0
0
0
0
0
0
0
0
0
0
0
0
2
2
2
2
4
4
3
3
0
0
0
0
0
0
0
0
0
0
0
0
0
0
0
0
0
0
0
0
0
0
0
2
2
2
2
4
4
3
3
0
0
0
0
0
0
0
0
0
0
0
0
0
0
0
0
0
0
0
0
0
0
0
2
2
2
2
4
4
3
3
0
0
0
0
0
0
0
0
0
0
0
0
0
0
0
0
0
0
0
0
0
0
1
2
2
2
2
4
4
3
3
0
0
0
0
0
0
0
0
0
0
0
0
0
0
0
0
0
0
0
0
0
0
1
2
2
2
2
4
4
3
3
0
0
0
0
0
0
0
0
0
0
0
0
0
0
0
0
0
0
0
0
0
0
1
2
2
2
2
4
4
3
3
0
0
0
0
0
0
0
0
0
0
0
0
0
0
0
0
0
0
0
0
0
0
1
2
2
2
2
4
4
3
3
0
0
0
0
0
0
0
0
0
0
0
0
0
0
0
0
0
0
0
0
0
0
1
2
2
2
2
4
4
3
3
0
0
0
0
0
0
0
0
0
0
0
0
0
0
0
0
0
0
0
0
0
0
1
2
2
2
2
4
4
3
3
0
0
0
0
0
0
0
0
0
0
0
0
0
0
0
0
0
0
0
0
0
0
1
2
2
2
2
4
4
3
3
0
0
0
0
0
0
0
0
0
0
0
0
0
0
0
0
0
0
0
0
0
0
1
2
2
2
2
4
4
3
3
0
0
0
0
0
0
0
0
0
0
0
0
0
0
0
0
0
0
0
0
0
0
1
2
2
2
2
4
4
3
3
0
0
0
0
0
0
0
0
0
0
0
0
0
0
0
0
0
0
0
0
0
1
1
2
2
2
2
4
4
3
3
3
3
3
3
3
3
3
3
3
3
3
3
3
3
3
3
3
3
3
3
3
3
3
3
2
2
2
4
4
3
3
3
3
3
3
3
3
3
3
3
3
3
3
3
3
3
3
3
3
3
3
3
3
3
3
2
2
2
4
4
4
4
4
4
4
4
4
4
4
4
4
4
4
4
4
4
4
4
4
4
4
4
4
4
4
4
2
2
2
4
4
4
4
4
4
4
4
4
4
4
4
4
4
4
4
4
4
4
4
4
4
4
4
4
4
4
4
2
2
2
</DataArray>
<DataArray NumberOfComponents='1' type='Float32' Name='Temperature' format='ascii'>
0.000000
0.000000
0.000000
0.000000
0.000000
0.000000
0.000000
0.000000
0.000000
0.000000
0.000000
0.000000
0.000000
0.000000
0.000000
0.000000
0.000000
0.000000
0.000000
0.000000
0.000000
0.000000
0.000000
0.000000
0.000000
0.000000
0.000000
0.000000
-5.000000
-5.000000
-5.000000
0.000000
0.000000
0.000000
0.000000
0.000000
0.000000
0.000000
0.000000
0.000000
0.000000
0.000000
0.000000
0.000000
0.000000
0.000000
0.000000
0.000000
0.000000
0.000000
0.000000
0.000000
0.000000
0.000000
0.000000
0.000000
0.000000
0.000000
0.000000
-5.000000
-5.000000
-5.000000
0.000000
0.000000
0.000000
0.000000
0.000000
0.000000
0.000000
0.000000
0.000000
0.000000
0.000000
0.000000
0.000000
0.000000
0.000000
0.000000
0.000000
0.000000
0.000000
0.000000
0.000000
0.000000
0.000000
0.000000
0.000000
0.000000
0.000000
0.000000
-5.000000
-5.000000
-5.000000
0.000000
0.000000
0.000000
0.000000
0.000000
0.000000
0.000000
0.000000
0.000000
0.000000
0.000000
0.000000
0.000000
0.000000
0.000000
0.000000
0.000000
0.000000
0.000000
0.000000
0.000000
0.000000
0.000000
0.000000
0.000000
0.000000
0.000000
0.000000
-5.000000
-5.000000
-5.000000
0.000000
0.000000
0.000000
0.000000
0.159245
0.285368
0.412831
0.533556
0.646745
0.750352
0.842557
0.921558
0.985651
1.033283
1.063101
1.073999
1.065148
1.035993
0.986222
0.915697
0.824381
0.712191
0.579133
0.423359
0.250546
0.009963
0.004332
-2.126299
-5.000000
-5.000000
-5.000000
0.000000
0.000000
0.000000
0.000000
0.288696
0.517062
0.748224
0.967296
1.172895
1.361284
1.529130
1.673110
1.790070
1.877127
1.931773
1.951970
1.936207
1.883507
1.793372
1.665670
1.500497
1.297968
1.058518
0.780023
0.474017
0.052609
0.004233
-2.365069
-5.000000
-5.000000
-5.000000
0.000000
0.000000
0.000000
0.000000
0.425252
0.761852
1.102809
1.426314
1.730344
2.009360
2.258368
2.472340
2.646486
2.776407
2.858283
2.889028
2.866403
2.789026
2.656310
2.468290
2.225436
1.928401
1.578515
1.174683
0.733344
0.169708
0.005461
-2.444055
-5.000000
-5.000000
-5.000000
0.000000
0.000000
0.000000
0.000000
0.563544
1.009896
1.462505
1.892598
2.297532
2.669907
3.002951
3.289783
3.523793
3.698889
3.809787
3.852256
3.823292
3.721164
3.545330
3.296210
2.974925
2.582991
2.122924
1.595524
1.020326
0.323647
0.006418
-2.448749
-5.000000
-5.000000
-5.000000
0.000000
0.000000
0.000000
0.000000
0.705296
1.264373
1.831992
2.372346
2.882182
3.352146
3.773537
4.137413
4.435111
4.658615
4.800977
4.856686
4.821922
4.694656
4.474544
4.162633
3.760971
3.272196
2.700074
2.047270
1.334788
0.500138
0.007041
-2.434110
-5.000000
-5.000000
-5.000000
0.000000
0.000000
0.000000
0.000000
0.850808
1.525839
2.212137
2.866783
3.485924
4.058152
4.572669
5.018236
5.383875
5.659385
5.835930
5.906558
5.866579
5.713716
5.447987
5.071320
4.586986
3.998961
3.312201
2.530732
1.675460
0.694921
0.007585
-2.412588
-5.000000
-5.000000
-5.000000
0.000000
0.000000
0.000000
0.000000
1.000288
1.794680
2.603530
3.376721
4.109812
4.789240
5.401923
5.934084
6.372151
6.703457
6.917039
7.004340
6.959728
6.780726
6.467889
6.024298
5.454772
4.764887
3.960740
3.047116
2.043126
0.907805
0.008523
-2.387003
-5.000000
-5.000000
-5.000000
0.000000
0.000000
0.000000
0.000000
1.153498
2.070467
3.005543
3.901341
4.752844
5.544231
6.259960
6.883474
7.398329
7.789121
8.042521
8.148195
8.099500
7.893807
7.532372
7.019724
6.362603
5.568566
4.644997
3.597002
2.439746
1.141339
0.009014
-2.356461
-5.000000
-5.000000
-5.000000
0.000000
0.000000
0.000000
0.000000
1.309700
2.351859
3.416196
4.438013
5.411734
6.319191
7.142221
7.861267
8.456765
8.910321
9.206015
9.331586
9.279308
9.046436
8.635090
8.051531
7.304850
6.405119
5.361541
4.179687
2.868679
1.403341
0.009523
-2.314805
-5.000000
-5.000000
-5.000000
0.000000
0.000000
0.000000
0.000000
1.467585
2.636475
3.831967
4.982058
6.080629
7.107101
8.040563
8.858281
9.537363
10.056215
10.396148
10.542834
10.487408
10.227039
9.764840
9.109065
8.271577
7.265637
6.103260
4.791706
3.334553
1.710236
0.009692
-2.244417
-5.000000
-5.000000
-5.000000
0.000000
0.000000
0.000000
0.000000
1.625256
2.920868
4.247760
5.526707
6.751068
7.897822
8.943231
9.861265
10.625562
11.211181
11.596536
11.765138
11.706937
11.419030
10.905616
10.177128
9.248556
8.137008
6.858605
5.424749
3.838257
2.085111
0.098149
-2.114340
-5.000000
-5.000000
-5.000000
0.000000
0.000000
0.000000
0.000000
1.780267
3.200595
4.657009
6.063249
7.412174
8.678335
9.835145
10.853237
11.702717
12.355234
12.786240
12.977043
12.916384
12.601291
12.037085
11.236466
10.217746
9.002328
7.611541
6.063510
4.366874
2.528499
0.469303
-1.906693
-5.000000
-5.000000
-5.000000
0.000000
0.000000
0.000000
0.000000
1.929718
3.470389
5.051943
6.581380
8.051092
9.433267
10.698521
11.814189
12.746882
13.464864
13.940648
14.153352
14.090509
13.749076
13.135475
12.264649
11.158217
9.841954
8.342764
6.686526
4.892774
2.987015
0.898374
-1.567593
-5.000000
-5.000000
-5.000000
0.000000
0.000000
0.000000
0.000000
2.070394
3.724416
5.423957
7.069707
8.653624
10.145659
11.513757
12.722089
13.733909
14.514225
15.032719
15.266394
15.201619
14.835266
14.174792
13.237252
12.047364
10.634963
9.032079
7.271322
5.379542
3.400974
1.237006
-1.364949
-5.000000
-5.000000
-5.000000
0.000000
0.000000
0.000000
0.000000
2.198943
3.956597
5.764089
7.516369
9.205003
10.797889
12.260500
13.554081
14.638767
15.476542
16.034454
16.287540
16.221076
15.831842
15.128230
14.129190
12.862200
11.360602
9.660618
7.799791
5.810725
3.743850
1.510439
-0.008796
-5.000000
-5.000000
-5.000000
0.000000
0.000000
0.000000
0.000000
2.312064
4.160945
6.063521
7.909704
9.690724
11.372658
12.918793
14.287767
15.436943
16.325607
16.918462
17.188788
17.120884
16.711435
15.969636
14.916077
13.580574
11.999349
10.211857
8.258930
6.175988
4.019626
1.698774
-0.006499
-5.000000
-5.000000
-5.000000
0.000000
0.000000
0.000000
0.000000
2.406690
4.331905
6.314074
8.238907
10.097349
11.853959
13.470175
14.902445
16.105790
17.037222
17.659462
17.944307
17.875224
17.448810
16.674923
15.575493
14.182234
12.533639
10.671587
8.639172
6.473610
4.233128
1.831749
-0.006269
-5.000000
-5.000000
-5.000000
0.000000
0.000000
0.000000
0.000000
2.480162
4.464657
6.508656
8.494607
10.413240
12.227928
13.898673
15.380210
16.625733
17.590478
18.235616
18.531784
18.461799
18.022184
17.223301
16.088110
14.649762
12.948444
11.027803
8.932525
6.701151
4.391718
1.921621
-0.004104
-5.000000
-5.000000
-5.000000
0.000000
0.000000
0.000000
0.000000
2.530364
4.555368
6.641624
8.669357
10.629148
12.483558
14.191608
15.706857
16.981247
17.968796
18.629614
18.933540
18.862944
18.414297
17.598302
16.438616
14.969357
13.231847
11.270903
9.132268
6.855404
4.498498
1.981581
-0.003828
-5.000000
-5.000000
-5.000000
0.000000
0.000000
0.000000
0.000000
2.555827
4.601378
6.709068
8.757994
10.738664
12.613226
14.340201
15.872554
17.161590
18.160711
18.829485
19.137348
19.066444
18.613215
17.788537
16.616418
15.131463
13.375563
11.394122
9.233418
6.933385
4.552335
2.011726
-0.003326
-5.000000
-5.000000
-5.000000
0.000000
0.000000
0.000000
0.000000
2.555800
4.601327
6.708989
8.757883
10.738516
12.613038
14.339971
15.872282
17.161281
18.160370
18.829121
19.136972
19.066068
18.612850
17.788196
16.616112
15.131202
13.375357
11.393977
9.233336
6.933356
4.552341
2.011742
-0.003323
-5.000000
-5.000000
-5.000000
0.000000
0.000000
0.000000
0.000000
2.530284
4.555218
6.641390
8.669027
10.628709
12.483001
14.190926
15.706053
16.980331
17.967787
18.628537
18.932426
18.861830
18.413218
17.597296
16.437717
14.968599
13.231263
11.270520
9.132096
6.855412
4.498610
1.981697
-0.003818
-5.000000
-5.000000
-5.000000
0.000000
0.000000
0.000000
0.000000
2.480034
4.464414
6.508277
8.494073
10.412530
12.227025
13.897569
15.378907
16.624248
17.588841
18.233869
18.529978
18.459993
18.020438
17.221678
16.086673
14.648580
12.947595
11.027365
8.932536
6.701557
4.392317
1.922115
-0.004079
-5.000000
-5.000000
-5.000000
0.000000
0.000000
0.000000
0.000000
2.406518
4.331581
6.313569
8.238194
10.096400
11.852750
13.468696
14.900699
16.103799
17.035026
17.657118
17.941885
17.872803
17.446476
16.672764
15.573612
14.180758
12.532739
10.671467
8.639970
6.475204
4.234956
1.833132
-0.006219
-5.000000
-5.000000
-5.000000
0.000000
0.000000
0.000000
0.000000
2.311858
4.160555
6.062913
7.908846
9.689578
11.371199
12.917005
14.285654
15.434532
16.322947
16.915622
17.185855
17.117956
16.708620
15.967056
14.913885
13.578995
11.998734
10.212701
8.261656
6.180347
4.024853
1.704154
-0.006408
-5.000000
-5.000000
-5.000000
0.000000
0.000000
0.000000
0.000000
2.198714
3.956163
5.763410
7.515406
9.203717
10.796247
12.258485
13.551698
14.636045
15.473537
16.031244
16.284225
16.217772
15.828680
15.125366
14.126847
12.860746
11.360693
9.663316
7.806263
5.821087
3.753544
1.509581
-0.008687
-5.000000
-5.000000
-5.000000
0.000000
0.000000
0.000000
0.000000
2.070154
3.723960
5.423241
7.068690
8.652261
10.143914
11.511611
12.719546
13.731000
14.511010
15.029284
15.262849
15.198092
14.831908
14.171798
13.234922
12.046249
10.636137
9.037491
7.283817
5.401484
3.421152
1.243862
-1.382270
-5.000000
-5.000000
-5.000000
0.000000
0.000000
0.000000
0.000000
1.929480
3.469934
5.051227
6.580359
8.049718
9.431502
10.696345
11.811604
12.743920
13.461586
13.937144
14.149735
14.086919
13.745680
13.132501
12.262472
11.157564
9.844332
8.351156
6.706120
4.929093
3.041810
0.936598
-1.660360
-5.000000
-5.000000
-5.000000
0.000000
0.000000
0.000000
0.000000
1.780043
3.200166
4.656330
6.062274
7.410855
8.676633
9.833038
10.850726
11.699832
12.352036
12.782818
12.973514
12.912889
12.598008
12.034263
11.234530
10.217537
9.005624
7.621982
6.088210
4.418202
2.621253
0.621870
-1.837372
-5.000000
-5.000000
-5.000000
0.000000
0.000000
0.000000
0.000000
1.625056
2.920485
4.247148
5.525822
6.749862
7.896256
8.941282
9.858932
10.622873
11.208194
11.593336
11.761837
11.703676
11.415988
10.903048
10.175467
9.248647
8.140593
6.869181
5.449069
3.886034
2.178147
0.236075
-2.058254
-5.000000
-5.000000
-5.000000
0.000000
0.000000
0.000000
0.000000
1.467418
2.636152
3.831447
4.981297
6.079582
7.105729
8.038842
8.856210
9.534967
10.053544
10.393281
10.539876
10.484491
10.224334
9.762591
9.107673
8.271783
7.268874
6.112161
4.810793
3.368494
1.765032
0.009939
-2.208900
-5.000000
-5.000000
-5.000000
0.000000
0.000000
0.000000
0.000000
1.309570
2.351604
3.415780
4.437395
5.410872
6.318048
7.140775
7.859514
8.454725
8.908037
9.203558
9.329047
9.276807
9.044129
8.633193
8.050385
7.305033
6.407639
5.368001
4.192306
2.887900
1.427476
0.009384
-2.300100
-5.000000
-5.000000
-5.000000
0.000000
0.000000
0.000000
0.000000
1.153406
2.070282
3.005235
3.900872
4.752176
5.543332
6.258807
6.882062
7.396674
7.787259
8.040508
8.146111
8.097448
7.891918
7.530829
7.018793
6.362698
5.570310
4.649203
3.604421
2.449591
1.151363
0.009001
-2.351409
-5.000000
-5.000000
-5.000000
0.000000
0.000000
0.000000
0.000000
1.000230
1.794560
2.603321
3.376392
4.109329
4.788575
5.401056
5.933009
6.370876
6.702012
6.915469
7.002708
6.958116
6.779242
6.466675
6.023553
5.454770
4.765983
3.963286
3.051237
2.048112
0.912317
0.008520
-2.385097
-5.000000
-5.000000
-5.000000
0.000000
0.000000
0.000000
0.000000
0.850778
1.525772
2.212012
2.866574
3.485603
4.057695
4.572058
5.017464
5.382948
5.658322
5.834766
5.905340
5.865370
5.712596
5.447062
5.070728
4.586902
3.999579
3.313657
2.532970
1.678011
0.697075
0.007946
-2.411823
-5.000000
-5.000000
-5.000000
0.000000
0.000000
0.000000
0.000000
0.705286
1.264346
1.831930
2.372230
2.881989
3.351856
3.773137
4.136894
4.434476
4.657877
4.800159
4.855821
4.821054
4.693842
4.473857
4.162164
3.760829
3.272484
2.700842
2.048446
1.336094
0.501208
0.007264
-2.433770
-5.000000
-5.000000
-5.000000
0.000000
0.000000
0.000000
0.000000
0.563546
1.009893
1.462484
1.892545
2.297431
2.669741
3.002709
3.289458
3.523385
3.698406
3.809243
3.851673
3.822698
3.720595
3.544832
3.295840
2.974748
2.583064
2.123268
1.596088
1.020960
0.324164
0.006484
-2.448592
-5.000000
-5.000000
-5.000000
0.000000
0.000000
0.000000
0.000000
0.425259
0.761860
1.102810
1.426297
1.730298
2.009274
2.258233
2.472151
2.646241
2.776111
2.857942
2.888656
2.866015
2.788644
2.655960
2.468004
2.225252
1.928350
1.578611
1.174901
0.733612
0.169934
0.005396
-2.443983
-5.000000
-5.000000
-5.000000
0.000000
0.000000
0.000000
0.000000
0.288702
0.517071
0.748231
0.967294
1.172877
1.361242
1.529061
1.673007
1.789934
1.876959
1.931576
1.951749
1.935971
1.883267
1.793141
1.665465
1.500337
1.297872
1.058495
0.780067
0.474100
0.052697
0.004486
-2.365030
-5.000000
-5.000000
-5.000000
0.000000
0.000000
0.000000
0.000000
0.159249
0.285373
0.412836
0.533556
0.646738
0.750333
0.842524
0.921508
0.985584
1.033199
1.063001
1.073885
1.065024
1.035863
0.986092
0.915574
0.824274
0.712109
0.579083
0.423342
0.250554
0.009978
0.004185
-2.126292
-5.000000
-5.000000
-5.000000
0.000000
0.000000
0.000000
0.000000
0.000000
0.000000
0.000000
0.000000
0.000000
0.000000
0.000000
0.000000
0.000000
0.000000
0.000000
0.000000
0.000000
0.000000
0.000000
0.000000
0.000000
0.000000
0.000000
0.000000
0.000000
0.000000
0.000000
0.000000
-5.000000
-5.000000
-5.000000
0.000000
0.000000
0.000000
0.000000
0.000000
0.000000
0.000000
0.000000
0.000000
0.000000
0.000000
0.000000
0.000000
0.000000
0.000000
0.000000
0.000000
0.000000
0.000000
0.000000
0.000000
0.000000
0.000000
0.000000
0.000000
0.000000
0.000000
0.000000
-5.000000
-5.000000
-5.000000
0.000000
0.000000
0.000000
0.000000
0.000000
0.000000
0.000000
0.000000
0.000000
0.000000
0.000000
0.000000
0.000000
0.000000
0.000000
0.000000
0.000000
0.000000
0.000000
0.000000
0.000000
0.000000
0.000000
0.000000
0.000000
0.000000
0.000000
0.000000
-5.000000
-5.000000
-5.000000
0.000000
0.000000
0.000000
0.000000
0.000000
0.000000
0.000000
0.000000
0.000000
0.000000
0.000000
0.000000
0.000000
0.000000
0.000000
0.000000
0.000000
0.000000
0.000000
0.000000
0.000000
0.000000
0.000000
0.000000
0.000000
0.000000
0.000000
0.000000
-5.000000
-5.000000
-5.000000
</DataArray>
</PointData>
<Cells>
<DataArray type='Int32' Name='connectivity' format='ascii'>
0
1
2
3
4
5
6
7
8
9
10
11
12
13
14
15
16
17
18
19
20
21
22
23
24
25
26
27
28
29
30
31
32
33
34
35
36
37
38
39
40
41
42
43
44
45
46
47
48
49
50
51
52
53
54
55
56
57
58
59
60
61
62
63
64
65
66
67
68
69
70
71
72
73
74
75
76
77
78
79
80
81
82
83
84
85
86
87
88
89
90
91
92
93
94
95
96
97
98
99
100
101
102
103
104
105
106
107
108
109
110
111
112
113
114
115
116
117
118
119
120
121
122
123
124
125
126
127
128
129
130
131
132
133
134
135
136
137
138
139
140
141
142
143
144
145
146
147
148
149
150
151
152
153
154
155
156
157
158
159
160
161
162
163
164
165
166
167
168
169
170
171
172
173
174
175
176
177
178
179
180
181
182
183
184
185
186
187
188
189
190
191
192
193
194
195
196
197
198
199
200
201
202
203
204
205
206
207
208
209
210
211
212
213
214
215
216
217
218
219
220
221
222
223
224
225
226
227
228
229
230
231
232
233
234
235
236
237
238
239
240
241
242
243
244
245
246
247
248
249
250
251
252
253
254
255
256
257
258
259
260
261
262
263
264
265
266
267
268
269
270
271
272
273
274
275
276
277
278
279
280
281
282
283
284
285
286
287
288
289
290
291
292
293
294
295
296
297
298
299
300
301
302
303
304
305
306
307
308
309
310
311
312
313
314
315
316
317
318
319
320
321
322
323
324
325
326
327
328
329
330
331
332
333
334
335
336
337
338
339
340
341
342
343
344
345
346
347
348
349
350
351
352
353
354
355
356
357
358
359
360
361
362
363
364
365
366
367
368
369
370
371
372
373
374
375
376
377
378
379
380
381
382
383
384
385
386
387
388
389
390
391
392
393
394
395
396
397
398
399
400
401
402
403
404
405
406
407
408
409
410
411
412
413
414
415
416
417
418
419
420
421
422
423
424
425
426
427
428
429
430
431
432
433
434
435
436
437
438
439
440
441
442
443
444
445
446
447
448
449
450
451
452
453
454
455
456
457
458
459
460
461
462
463
464
465
466
467
468
469
470
471
472
473
474
475
476
477
478
479
480
481
482
483
484
485
486
487
488
489
490
491
492
493
494
495
496
497
498
499
500
501
502
503
504
505
506
507
508
509
510
511
512
513
514
515
516
517
518
519
520
521
522
523
524
525
526
527
528
529
530
531
532
533
534
535
536
537
538
539
540
541
542
543
544
545
546
547
548
549
550
551
552
553
554
555
556
557
558
559
560
561
562
563
564
565
566
567
568
569
570
571
572
573
574
575
576
577
578
579
580
581
582
583
584
585
586
587
588
589
590
591
592
593
594
595
596
597
598
599
600
601
602
603
604
605
606
607
608
609
610
611
612
613
614
615
616
617
618
619
620
621
622
623
624
625
626
627
628
629
630
631
632
633
634
635
636
637
638
639
640
641
642
643
644
645
646
647
648
649
650
651
652
653
654
655
656
657
658
659
660
661
662
663
664
665
666
667
668
669
670
671
672
673
674
675
676
677
678
679
680
681
682
683
684
685
686
687
688
689
690
691
692
693
694
695
696
697
698
699
700
701
702
703
704
705
706
707
708
709
710
711
712
713
714
715
716
717
718
719
720
721
722
723
724
725
726
727
728
729
730
731
732
733
734
735
736
737
738
739
740
741
742
743
744
745
746
747
748
749
750