<?xml version='1.0' encoding='UTF-8'?>
<VTKFile xmlns='VTK' byte_order='LittleEndian' version='0.1' type='UnstructuredGrid'>
<UnstructuredGrid>
<Piece NumberOfCells='1488' NumberOfPoints='1488'>
<Points>
<DataArray NumberOfComponents='3' type='Float32' Name='Position' format='ascii'>
-0.075000 -0.075000 0.000000
-0.075000 -0.050000 0.000000
-0.075000 -0.025000 0.000000
-0.075000 0.000000 0.000000
-0.075000 0.025000 0.000000
-0.075000 0.050000 0.000000
-0.075000 0.075000 0.000000
-0.075000 0.100000 0.000000
-0.075000 0.125000 0.000000
-0.075000 0.150000 0.000000
-0.075000 0.175000 0.000000
-0.075000 0.200000 0.000000
-0.075000 0.225000 0.000000
-0.075000 0.250000 0.000000
-0.075000 0.275000 0.000000
-0.075000 0.300000 0.000000
-0.075000 0.325000 0.000000
-0.075000 0.350000 0.000000
-0.075000 0.375000 0.000000
-0.075000 0.400000 0.000000
-0.075000 0.425000 0.000000
-0.075000 0.450000 0.000000
-0.075000 0.475000 0.000000
-0.075000 0.500000 0.000000
-0.075000 0.525000 0.000000
-0.075000 0.550000 0.000000
-0.075000 0.575000 0.000000
-0.075000 0.600000 0.000000
-0.075000 0.625000 0.000000
-0.075000 0.650000 0.000000
-0.075000 0.675000 0.000000
-0.050000 -0.075000 0.000000
-0.050000 -0.050000 0.000000
-0.050000 -0.025000 0.000000
-0.050000 0.000000 0.000000
-0.050000 0.025000 0.000000
-0.050000 0.050000 0.000000
-0.050000 0.075000 0.000000
-0.050000 0.100000 0.000000
-0.050000 0.125000 0.000000
-0.050000 0.150000 0.000000
-0.050000 0.175000 0.000000
-0.050000 0.200000 0.000000
-0.050000 0.225000 0.000000
-0.050000 0.250000 0.000000
-0.050000 0.275000 0.000000
-0.050000 0.300000 0.000000
-0.050000 0.325000 0.000000
-0.050000 0.350000 0.000000
-0.050000 0.375000 0.000000
-0.050000 0.400000 0.000000
-0.050000 0.425000 0.000000
-0.050000 0.450000 0.000000
-0.050000 0.475000 0.000000
-0.050000 0.500000 0.000000
-0.050000 0.525000 0.000000
-0.050000 0.550000 0.000000
-0.050000 0.575000 0.000000
-0.050000 0.600000 0.000000
-0.050000 0.625000 0.000000
-0.050000 0.650000 0.000000
-0.050000 0.675000 0.000000
-0.025000 -0.075000 0.000000
-0.025000 -0.050000 0.000000
-0.025000 -0.025000 0.000000
-0.025000 0.000000 0.000000
-0.025000 0.025000 0.000000
-0.025000 0.050000 0.000000
-0.025000 0.075000 0.000000
-0.025000 0.100000 0.000000
-0.025000 0.125000 0.000000
-0.025000 0.150000 0.000000
-0.025000 0.175000 0.000000
-0.025000 0.200000 0.000000
-0.025000 0.225000 0.000000
-0.025000 0.250000 0.000000
-0.025000 0.275000 0.000000
-0.025000 0.300000 0.000000
-0.025000 0.325000 0.000000
-0.025000 0.350000 0.000000
-0.025000 0.375000 0.000000
-0.025000 0.400000 0.000000
-0.025000 0.425000 0.000000
-0.025000 0.450000 0.000000
-0.025000 0.475000 0.000000
-0.025000 0.500000 0.000000
-0.025000 0.525000 0.000000
-0.025000 0.550000 0.000000
-0.025000 0.575000 0.000000
-0.025000 0.600000 0.000000
-0.025000 0.625000 0.000000
-0.025000 0.650000 0.000000
-0.025000 0.675000 0.000000
0.000000 -0.075000 0.000000
0.000000 -0.050000 0.000000
0.000000 -0.025000 0.000000
0.000000 0.000000 0.000000
0.000000 0.025000 0.000000
0.000000 0.050000 0.000000
0.000000 0.075000 0.000000
0.000000 0.100000 0.000000
0.000000 0.125000 0.000000
0.000000 0.150000 0.000000
0.000000 0.175000 0.000000
0.000000 0.200000 0.000000
0.000000 0.225000 0.000000
0.000000 0.250000 0.000000
0.000000 0.275000 0.000000
0.000000 0.300000 0.000000
0.000000 0.325000 0.000000
0.000000 0.350000 0.000000
0.000000 0.375000 0.000000
0.000000 0.400000 0.000000
0.000000 0.425000 0.000000
0.000000 0.450000 0.000000
0.000000 0.475000 0.000000
0.000000 0.500000 0.000000
0.000000 0.525000 0.000000
0.000000 0.550000 0.000000
0.000000 0.575000 0.000000
0.000000 0.600000 0.000000
0.000000 0.625000 0.000000
0.000000 0.650000 0.000000
0.000000 0.675000 0.000000
0.025000 -0.075000 0.000000
0.025000 -0.050000 0.000000
0.025000 -0.025000 0.000000
0.025000 0.000000 0.000000
0.025000 0.025000 0.000000
0.025000 0.050000 0.000000
0.025000 0.075000 0.000000
0.025000 0.100000 0.000000
0.025000 0.125000 0.000000
0.025000 0.150000 0.000000
0.025000 0.175000 0.000000
0.025000 0.200000 0.000000
0.025000 0.225000 0.000000
0.025000 0.250000 0.000000
0.025000 0.275000 0.000000
0.025000 0.300000 0.000000
0.025000 0.325000 0.000000
0.025000 0.350000 0.000000
0.025000 0.375000 0.000000
0.025000 0.400000 0.000000
0.025000 0.425000 0.000000
0.025000 0.450000 0.000000
0.025000 0.475000 0.000000
0.025000 0.500000 0.000000
0.025000 0.525000 0.000000
0.025000 0.550000 0.000000
0.025000 0.575000 0.000000
0.025000 0.600000 0.000000
0.025000 0.625000 0.000000
0.025000 0.650000 0.000000
0.025000 0.675000 0.000000
0.050000 -0.075000 0.000000
0.050000 -0.050000 0.000000
0.050000 -0.025000 0.000000
0.050000 0.000000 0.000000
0.050000 0.025000 0.000000
0.050000 0.050000 0.000000
0.050000 0.075000 0.000000
0.050000 0.100000 0.000000
0.050000 0.125000 0.000000
0.050000 0.150000 0.000000
0.050000 0.175000 0.000000
0.050000 0.200000 0.000000
0.050000 0.225000 0.000000
0.050000 0.250000 0.000000
0.050000 0.275000 0.000000
0.050000 0.300000 0.000000
0.050000 0.325000 0.000000
0.050000 0.350000 0.000000
0.050000 0.375000 0.000000
0.050000 0.400000 0.000000
0.050000 0.425000 0.000000
0.050000 0.450000 0.000000
0.050000 0.475000 0.000000
0.050000 0.500000 0.000000
0.050000 0.525000 0.000000
0.050000 0.550000 0.000000
0.050000 0.575000 0.000000
0.050000 0.600000 0.000000
0.050000 0.625000 0.000000
0.050000 0.650000 0.000000
0.050000 0.675000 0.000000
0.075000 -0.075000 0.000000
0.075000 -0.050000 0.000000
0.075000 -0.025000 0.000000
0.075000 0.000000 0.000000
0.075000 0.025000 0.000000
0.075000 0.050000 0.000000
0.075000 0.075000 0.000000
0.075000 0.100000 0.000000
0.075000 0.125000 0.000000
0.075000 0.150000 0.000000
0.075000 0.175000 0.000000
0.075000 0.200000 0.000000
0.075000 0.225000 0.000000
0.075000 0.250000 0.000000
0.075000 0.275000 0.000000
0.075000 0.300000 0.000000
0.075000 0.325000 0.000000
0.075000 0.350000 0.000000
0.075000 0.375000 0.000000
0.075000 0.400000 0.000000
0.075000 0.425000 0.000000
0.075000 0.450000 0.000000
0.075000 0.475000 0.000000
0.075000 0.500000 0.000000
0.075000 0.525000 0.000000
0.075000 0.550000 0.000000
0.075000 0.575000 0.000000
0.075000 0.600000 0.000000
0.075000 0.625000 0.000000
0.075000 0.650000 0.000000
0.075000 0.675000 0.000000
0.100000 -0.075000 0.000000
0.100000 -0.050000 0.000000
0.100000 -0.025000 0.000000
0.100000 0.000000 0.000000
0.100000 0.025000 0.000000
0.100000 0.050000 0.000000
0.100000 0.075000 0.000000
0.100000 0.100000 0.000000
0.100000 0.125000 0.000000
0.100000 0.150000 0.000000
0.100000 0.175000 0.000000
0.100000 0.200000 0.000000
0.100000 0.225000 0.000000
0.100000 0.250000 0.000000
0.100000 0.275000 0.000000
0.100000 0.300000 0.000000
0.100000 0.325000 0.000000
0.100000 0.350000 0.000000
0.100000 0.375000 0.000000
0.100000 0.400000 0.000000
0.100000 0.425000 0.000000
0.100000 0.450000 0.000000
0.100000 0.475000 0.000000
0.100000 0.500000 0.000000
0.100000 0.525000 0.000000
0.100000 0.550000 0.000000
0.100000 0.575000 0.000000
0.100000 0.600000 0.000000
0.100000 0.625000 0.000000
0.100000 0.650000 0.000000
0.100000 0.675000 0.000000
0.125000 -0.075000 0.000000
0.125000 -0.050000 0.000000
0.125000 -0.025000 0.000000
0.125000 0.000000 0.000000
0.125000 0.025000 0.000000
0.125000 0.050000 0.000000
0.125000 0.075000 0.000000
0.125000 0.100000 0.000000
0.125000 0.125000 0.000000
0.125000 0.150000 0.000000
0.125000 0.175000 0.000000
0.125000 0.200000 0.000000
0.125000 0.225000 0.000000
0.125000 0.250000 0.000000
0.125000 0.275000 0.000000
0.125000 0.300000 0.000000
0.125000 0.325000 0.000000
0.125000 0.350000 0.000000
0.125000 0.375000 0.000000
0.125000 0.400000 0.000000
0.125000 0.425000 0.000000
0.125000 0.450000 0.000000
0.125000 0.475000 0.000000
0.125000 0.500000 0.000000
0.125000 0.525000 0.000000
0.125000 0.550000 0.000000
0.125000 0.575000 0.000000
0.125000 0.600000 0.000000
0.125000 0.625000 0.000000
0.125000 0.650000 0.000000
0.125000 0.675000 0.000000
0.150000 -0.075000 0.000000
0.150000 -0.050000 0.000000
0.150000 -0.025000 0.000000
0.150000 0.000000 0.000000
0.150000 0.025000 0.000000
0.150000 0.050000 0.000000
0.150000 0.075000 0.000000
0.150000 0.100000 0.000000
0.150000 0.125000 0.000000
0.150000 0.150000 0.000000
0.150000 0.175000 0.000000
0.150000 0.200000 0.000000
0.150000 0.225000 0.000000
0.150000 0.250000 0.000000
0.150000 0.275000 0.000000
0.150000 0.300000 0.000000
0.150000 0.325000 0.000000
0.150000 0.350000 0.000000
0.150000 0.375000 0.000000
0.150000 0.400000 0.000000
0.150000 0.425000 0.000000
0.150000 0.450000 0.000000
0.150000 0.475000 0.000000
0.150000 0.500000 0.000000
0.150000 0.525000 0.000000
0.150000 0.550000 0.000000
0.150000 0.575000 0.000000
0.150000 0.600000 0.000000
0.150000 0.625000 0.000000
0.150000 0.650000 0.000000
0.150000 0.675000 0.000000
0.175000 -0.075000 0.000000
0.175000 -0.050000 0.000000
0.175000 -0.025000 0.000000
0.175000 0.000000 0.000000
0.175000 0.025000 0.000000
0.175000 0.050000 0.000000
0.175000 0.075000 0.000000
0.175000 0.100000 0.000000
0.175000 0.125000 0.000000
0.175000 0.150000 0.000000
0.175000 0.175000 0.000000
0.175000 0.200000 0.000000
0.175000 0.225000 0.000000
0.175000 0.250000 0.000000
0.175000 0.275000 0.000000
0.175000 0.300000 0.000000
0.175000 0.325000 0.000000
0.175000 0.350000 0.000000
0.175000 0.375000 0.000000
0.175000 0.400000 0.000000
0.175000 0.425000 0.000000
0.175000 0.450000 0.000000
0.175000 0.475000 0.000000
0.175000 0.500000 0.000000
0.175000 0.525000 0.000000
0.175000 0.550000 0.000000
0.175000 0.575000 0.000000
0.175000 0.600000 0.000000
0.175000 0.625000 0.000000
0.175000 0.650000 0.000000
0.175000 0.675000 0.000000
0.200000 -0.075000 0.000000
0.200000 -0.050000 0.000000
0.200000 -0.025000 0.000000
0.200000 0.000000 0.000000
0.200000 0.025000 0.000000
0.200000 0.050000 0.000000
0.200000 0.075000 0.000000
0.200000 0.100000 0.000000
0.200000 0.125000 0.000000
0.200000 0.150000 0.000000
0.200000 0.175000 0.000000
0.200000 0.200000 0.000000
0.200000 0.225000 0.000000
0.200000 0.250000 0.000000
[...]
<PointData>
<DataArray NumberOfComponents='1' type='Int32' Name='ParticleType' format='ascii'>
4
4
4
4
4
4
4
4
4
4
4
4
4
4
4
4
4
4
4
4
4
4
4
4
4
4
4
4
2
2
2
4
4
4
4
4
4
4
4
4
4
4
4
4
4
4
4
4
4
4
4
4
4
4
4
4
4
4
4
2
2
2
4
4
3
3
3
3
3
3
3
3
3
3
3
3
3
3
3
3
3
3
3
3
3
3
3
3
3
3
2
2
2
4
4
3
3
3
3
3
3
3
3
3
3
3
3
3
3
3
3
3
3
3
3
3
3
3
3
3
3
2
2
2
4
4
3
3
0
0
0
0
0
0
0
0
0
0
0
0
0
0
0
0
0
0
0
0
0
0
1
2
2
2
2
4
4
3
3
0
0
0
0
0
0
0
0
0
0
0
0
0
0
0
0
0
0
0
0
0
0
1
2
2
2
2
4
4
3
3
0
0
0
0
0
0
0
0
0
0
0
0
0
0
0
0
0
0
0
0
0
0
1
2
2
2
2
4
4
3
3
0
0
0
0
0
0
0
0
0
0
0
0
0
0
0
0
0
0
0
0
0
0
1
2
2
2
2
4
4
3
3
0
0
0
0
0
0
0
0
0
0
0
0
0
0
0
0
0
0
0
0
0
0
1
2
2
2
2
4
4
3
3
0
0
0
0
0
0
0
0
0
0
0
0
0
0
0
0
0
0
0
0
0
0
1
2
2
2
2
4
4
3
3
0
0
0
0
0
0
0
0
0
0
0
0
0
0
0
0
0
0
0
0
0
0
1
2
2
2
2
4
4
3
3
0
0
0
0
0
0
0
0
0
0
0
0
0
0
0
0
0
0
0
0
0
0
1
2
2
2
2
4
4
3
3
0
0
0
0
0
0
0
0
0
0
0
0
0
0
0
0
0
0
0
0
0
0
0
2
2
2
2
4
4
3
3
0
0
0
0
0
0
0
0
0
0
0
0
0
0
0
0
0
0
0
0
0
0
0
2
2
2
2
4
4
3
3
0
0
0
0
0
0
0
0
0
0
0
0
0
0
0
0
0
0
0
0
0
0
0
1
2
2
2
4
4
3
3
0
0
0
0
0
0
0
0
0
0
0
0
0
0
0
0
0
0
0
0
0
0
0
1
2
2
2
4
4
3
3
0
0
0
0
0
0
0
0
0
0
0
0
0
0
0
0
0
0
0
0
0
0
0
1
2
2
2
4
4
3
3
0
0
0
0
0
0
0
0
0
0
0
0
0
0
0
0
0
0
0
0
0
0
0
1
2
2
2
4
4
3
3
0
0
0
0
0
0
0
0
0
0
0
0
0
0
0
0
0
0
0
0
0
0
0
1
2
2
2
4
4
3
3
0
0
0
0
0
0
0
0
0
0
0
0
0
0
0
0
0
0
0
0
0
0
0
1
2
2
2
4
4
3
3
0
0
0
0
0
0
0
0
0
0
0
0
0
0
0
0
0
0
0
0
0
0
0
1
2
2
2
4
4
3
3
0
0
0
0
0
0
0
0
0
0
0
0
0
0
0
0
0
0
0
0
0
0
0
1
2
2
2
4
4
3
3
0
0
0
0
0
0
0
0
0
0
0
0
0
0
0
0
0
0
0
0
0
0
0
1
2
2
2
4
4
3
3
0
0
0
0
0
0
0
0
0
0
0
0
0
0
0
0
0
0
0
0
0
0
0
1
2
2
2
4
4
3
3
0
0
0
0
0
0
0
0
0
0
0
0
0
0
0
0
0
0
0
0
0
0
0
1
2
2
2
4
4
3
3
0
0
0
0
0
0
0
0
0
0
0
0
0
0
0
0
0
0
0
0
0
0
0
1
2
2
2
4
4
3
3
0
0
0
0
0
0
0
0
0
0
0
0
0
0
0
0
0
0
0
0
0
0
0
1
2
2
2
4
4
3
3
0
0
0
0
0
0
0
0
0
0
0
0
0
0
0
0
0
0
0
0
0
0
0
1
2
2
2
4
4
3
3
0
0
0
0
0
0
0
0
0
0
0
0
0
0
0
0
0
0
0
0
0
0
0
1
2
2
2
4
4
3
3
0
0
0
0
0
0
0
0
0
0
0
0
0
0
0
0
0
0
0
0
0
0
0
1
2
2
2
4
4
3
3
0
0
0
0
0
0
0
0
0
0
0
0
0
0
0
0
0
0
0
0
0
0
0
1
2
2
2
4
4
3
3
0
0
0
0
0
0
0
0
0
0
0
0
0
0
0
0
0
0
0
0
0
0
0
1
2
2
2
4
4
3
3
0
0
0
0
0
0
0
0
0
0
0
0
0
0
0
0
0
0
0
0
0
0
0
1
2
2
2
4
4
3
3
0
0
0
0
0
0
0
0
0
0
0
0
0
0
0
0
0
0
0
0
0
0
0
1
2
2
2
4
4
3
3
0
0
0
0
0
0
0
0
0
0
0
0
0
0
0
0
0
0
0
0
0
0
0
2
2
2
2
4
4
3
3
0
0
0
0
0
0
0
0
0
0
0
0
0
0
0
0
0
0
0
0
0
0
0
2
2
2
2
4
4
3
3
0
0
0
0
0
0
0
0
0
0
0
0
0
0
0
0
0
0
0
0
0
0
1
2
2
2
2
4
4
3
3
0
0
0
0
0
0
0
0
0
0
0
0
0
0
0
0
0
0
0
0
0
0
1
2
2
2
2
4
4
3
3
0
0
0
0
0
0
0
0
0
0
0
0
0
0
0
0
0
0
0
0
0
0
1
2
2
2
2
4
4
3
3
0
0
0
0
0
0
0
0
0
0
0
0
0
0
0
0
0
0
0
0
0
0
1
2
2
2
2
4
4
3
3
0
0
0
0
0
0
0
0
0
0
0
0
0
0
0
0
0
0
0
0
0
0
1
2
2
2
2
4
4
3
3
0
0
0
0
0
0
0
0
0
0
0
0
0
0
0
0
0
0
0
0
0
0
1
2
2
2
2
4
4
3
3
0
0
0
0
0
0
0
0
0
0
0
0
0
0
0
0
0
0
0
0
0
0
1
2
2
2
2
4
4
3
3
0
0
0
0
0
0
0
0
0
0
0
0
0
0
0
0
0
0
0
0
0
0
1
2
2
2
2
4
4
3
3
3
3
3
3
3
3
3
3
3
3
3
3
3
3
3
3
3
3
3
3
3
3
3
3
2
2
2
4
4
3
3
3
3
3
3
3
3
3
3
3
3
3
3
3
3
3
3
3
3
3
3
3
3
3
3
2
2
2
4
4
4
4
4
4
4
4
4
4
4
4
4
4
4
4
4
4
4
4
4
4
4
4
4
4
4
4
2
2
2
4
4
4
4
4
4
4
4
4
4
4
4
4
4
4
4
4
4
4
4
4
4
4
4
4
4
4
4
2
2
2
</DataArray>
<DataArray NumberOfComponents='1' type='Float32' Name='Temperature' format='ascii'>
0.000000
0.000000
0.000000
0.000000
0.000000
0.000000
0.000000
0.000000
0.000000
0.000000
0.000000
0.000000
0.000000
0.000000
0.000000
0.000000
0.000000
0.000000
0.000000
0.000000
0.000000
0.000000
0.000000
0.000000
0.000000
0.000000
0.000000
0.000000
-5.000000
-5.000000
-5.000000
0.000000
0.000000
0.000000
0.000000
0.000000
0.000000
0.000000
0.000000
0.000000
0.000000
0.000000
0.000000
0.000000
0.000000
0.000000
0.000000
0.000000
0.000000
0.000000
0.000000
0.000000
0.000000
0.000000
0.000000
0.000000
0.000000
0.000000
0.000000
-5.000000
-5.000000
-5.000000
0.000000
0.000000
0.000000
0.000000
0.000000
0.000000
0.000000
0.000000
0.000000
0.000000
0.000000
0.000000
0.000000
0.000000
0.000000
0.000000
0.000000
0.000000
0.000000
0.000000
0.000000
0.000000
0.000000
0.000000
0.000000
0.000000
0.000000
0.000000
-5.000000
-5.000000
-5.000000
0.000000
0.000000
0.000000
0.000000
0.000000
0.000000
0.000000
0.000000
0.000000
0.000000
0.000000
0.000000
0.000000
0.000000
0.000000
0.000000
0.000000
0.000000
0.000000
0.000000
0.000000
0.000000
0.000000
0.000000
0.000000
0.000000
0.000000
0.000000
-5.000000
-5.000000
-5.000000
0.000000
0.000000
0.000000
0.000000
0.164988
0.295311
0.426498
0.550073
0.665241
0.770033
0.862809
0.942002
1.006158
1.053947
1.084195
1.095922
1.088371
1.061029
1.013599
0.945918
0.857782
0.748616
0.617326
0.460091
0.280271
0.011851
0.006555
-2.123866
-5.000000
-5.000000
-5.000000
0.000000
0.000000
0.000000
0.000000
0.298563
0.534186
0.771880
0.996092
1.205456
1.396362
1.565763
1.710696
1.828384
1.916271
1.972102
1.994009
1.980585
1.930925
1.844592
1.721467
1.561461
1.363960
1.127627
0.847164
0.530240
0.089116
0.006782
-2.360124
-5.000000
-5.000000
-5.000000
0.000000
0.000000
0.000000
0.000000
0.438706
0.785332
1.135530
1.466648
1.776713
2.060338
2.312856
2.529635
2.706266
2.838658
2.923204
2.956946
2.937729
2.864276
2.736152
2.553564
2.316951
2.026239
1.680539
1.274578
0.818517
0.226754
0.007786
-2.436180
-5.000000
-5.000000
-5.000000
0.000000
0.000000
0.000000
0.000000
0.579759
1.038453
1.502867
1.943341
2.357333
2.737587
3.077603
3.370769
3.610681
3.791343
3.907468
3.954781
3.930267
3.832324
3.660731
3.416397
3.100828
2.715193
2.259742
1.730195
1.136921
0.403376
0.008427
-2.437403
-5.000000
-5.000000
-5.000000
0.000000
0.000000
0.000000
0.000000
0.723674
1.297183
1.879332
2.433515
2.956663
3.439511
3.873441
4.249465
4.558715
4.792818
4.944393
5.007537
4.978240
4.854613
4.636889
4.327108
3.928447
3.444053
2.875969
2.221275
1.488145
0.608203
0.008775
-2.417367
-5.000000
-5.000000
-5.000000
0.000000
0.000000
0.000000
0.000000
0.871147
1.562826
2.266951
2.940031
3.578508
4.170948
4.706289
5.172707
5.558333
5.851872
6.043366
6.124937
6.091403
5.940632
5.673564
5.293827
4.806905
4.218706
3.533836
2.751255
1.874741
0.842297
0.009046
-2.384879
-5.000000
-5.000000
-5.000000
0.000000
0.000000
0.000000
0.000000
1.022930
1.836764
2.667804
3.465706
4.226469
4.936309
5.581368
6.146486
6.616217
6.975752
7.212035
7.314831
7.277595
7.097982
6.777892
6.323003
5.741742
5.043594
4.236730
3.323234
2.301797
1.116466
0.009649
-2.330932
-5.000000
-5.000000
-5.000000
0.000000
0.000000
0.000000
0.000000
1.179358
2.119600
3.082767
4.011681
4.901940
5.737229
6.500532
7.172854
7.734582
8.166798
8.452819
8.579661
8.539218
8.328954
7.951968
7.416419
6.734278
5.919391
4.984660
3.937297
2.774373
1.451789
0.009850
-2.223548
-5.000000
-5.000000
-5.000000
0.000000
0.000000
0.000000
0.000000
1.340181
2.410847
3.511059
4.576823
5.603375
6.571695
7.461274
8.248807
8.909962
9.421149
9.761557
9.915086
9.871877
9.629212
9.191602
8.570067
7.780633
6.842155
5.773300
4.588637
3.290038
1.862609
0.169949
-2.004934
-5.000000
-5.000000
-5.000000
0.000000
0.000000
0.000000
0.000000
1.504386
2.708620
3.949799
5.157148
6.325579
7.433225
8.455795
9.365267
10.132115
10.727593
11.126331
11.308790
11.263193
10.986644
10.485240
9.773163
8.870881
7.802681
6.593537
5.266332
3.833552
2.314534
0.589689
-1.575284
-5.000000
-5.000000
-5.000000
0.000000
0.000000
0.000000
0.000000
1.670121
3.009496
4.393804
5.745576
7.059432
8.310560
9.470678
10.506744
11.383684
12.067227
12.527123
12.740148
12.692482
12.381054
11.813667
11.007882
9.988855
8.786481
7.432045
5.956030
4.380403
2.750382
0.946177
-0.009429
-5.000000
-5.000000
-5.000000
0.000000
0.000000
0.000000
0.000000
1.834723
3.308567
4.835682
6.332064
7.792075
9.187921
10.487219
11.651744
12.640669
13.413995
13.936398
14.180837
14.131371
13.784759
13.150578
12.249881
11.112615
9.774285
8.272181
6.643113
4.915597
3.143805
1.211536
-0.007663
-5.000000
-5.000000
-5.000000
0.000000
0.000000
0.000000
0.000000
1.994841
3.599677
5.266194
6.904115
8.507569
10.045823
11.482405
12.773901
13.873711
14.736080
15.320590
15.596361
15.545328
15.164081
14.463983
13.469579
12.215577
10.742957
9.094655
7.312783
5.430543
3.503156
1.420636
-0.006814
-5.000000
-5.000000
-5.000000
0.000000
0.000000
0.000000
0.000000
2.146656
3.875821
5.674849
7.447573
9.187917
10.862333
12.430401
13.843684
15.049988
15.997971
16.642273
16.948291
16.895898
16.481524
15.718265
14.634048
13.268163
11.666816
9.878217
7.949184
5.916808
3.836993
1.607131
-0.004129
-5.000000
-5.000000
-5.000000
0.000000
0.000000
0.000000
0.000000
2.286146
4.129633
6.050634
7.947613
9.814313
11.614580
13.304324
14.830423
16.135462
17.162886
17.862719
18.196879
18.143319
17.698320
16.876596
15.709225
14.239762
12.519250
10.600741
8.535322
6.363601
4.142457
1.776806
-0.003023
-5.000000
-5.000000
-5.000000
0.000000
0.000000
0.000000
0.000000
2.409363
4.353885
6.382765
8.389742
10.368408
12.280296
14.078044
15.704353
17.097146
18.195215
18.944458
19.303693
19.249154
18.776989
17.903361
16.662157
15.100735
13.274439
11.240619
9.054140
6.758754
4.412285
1.926458
-0.001626
-5.000000
-5.000000
-5.000000
0.000000
0.000000
0.000000
0.000000
2.512683
4.541955
6.661368
8.760715
10.833461
12.839194
14.727795
16.438437
17.905111
19.062676
19.853550
20.233928
20.178598
19.683596
18.766303
17.462983
15.824199
13.908922
11.778121
9.489846
7.090498
4.638725
2.051955
-0.001699
-5.000000
-5.000000
-5.000000
0.000000
0.000000
0.000000
0.000000
2.593016
4.688194
6.878032
9.049260
11.195246
13.274063
15.233438
17.009794
18.534050
19.737996
20.561332
20.958207
20.902277
20.389492
19.438186
18.086476
16.387425
14.402837
12.196502
9.828953
7.348661
4.814921
2.149638
-0.000143
-5.000000
-5.000000
-5.000000
0.000000
0.000000
0.000000
0.000000
2.647943
4.788191
7.026195
9.246593
11.442689
13.571518
15.579332
17.400670
18.964346
20.200047
21.045612
21.453787
21.397452
20.872501
19.897919
18.513090
16.772794
14.740772
12.482746
10.060950
7.525274
4.935459
2.216450
-0.000032
-5.000000
-5.000000
-5.000000
0.000000
0.000000
0.000000
0.000000
2.675817
4.838935
7.101381
9.346730
11.568252
13.722457
15.754850
17.599010
19.182686
20.434499
21.291342
21.705252
21.648714
21.117591
20.131202
18.729573
16.968352
14.912262
12.628009
10.178688
7.614906
4.996632
2.250363
0.000321
-5.000000
-5.000000
-5.000000
0.000000
0.000000
0.000000
0.000000
2.675801
4.838904
7.101327
9.346646
11.568129
13.722288
15.754630
17.598739
19.182366
20.434137
21.290950
21.704842
21.648304
21.117196
20.130836
18.729247
16.968073
14.912035
12.627831
10.178556
7.614815
4.996576
2.250335
0.000323
-5.000000
-5.000000
-5.000000
0.000000
0.000000
0.000000
0.000000
2.647898
4.788098
7.026034
9.246342
11.442323
13.571016
15.578680
17.399864
18.963393
20.198969
21.044443
21.452569
21.396232
20.871325
19.896829
18.512121
16.771966
14.740094
12.482216
10.060559
7.525003
4.935291
2.216367
-0.000024
-5.000000
-5.000000
-5.000000
0.000000
0.000000
0.000000
0.000000
2.592941
4.688041
6.877769
9.048849
11.194647
13.273241
15.232371
17.008475
18.532492
19.736233
20.559420
20.956214
20.900280
20.387567
19.436403
18.084889
16.386069
14.401728
12.195636
9.828313
7.348220
4.814650
2.149505
-0.000123
-5.000000
-5.000000
-5.000000
0.000000
0.000000
0.000000
0.000000
2.512583
4.541748
6.661011
8.760157
10.832649
12.838081
14.726348
16.436647
17.902996
19.060284
19.850954
20.231223
20.175887
19.680983
18.763883
17.460829
15.822359
13.907418
11.776949
9.488983
7.089906
4.638365
2.051783
-0.001661
-5.000000
-5.000000
-5.000000
0.000000
0.000000
0.000000
0.000000
2.409241
4.353633
6.382330
8.389062
10.367416
12.278934
14.076273
15.702160
17.094555
18.192283
18.941276
19.300375
19.245829
18.773786
17.900393
16.659517
15.098482
13.272601
11.239192
9.053098
6.758051
4.411869
1.926269
-0.001561
-5.000000
-5.000000
-5.000000
0.000000
0.000000
0.000000
0.000000
2.286011
4.129352
6.050146
7.946846
9.813190
11.613034
13.302309
14.827925
16.132507
17.159541
17.859085
18.193090
18.139522
17.694661
16.873208
15.706213
14.237197
12.517167
10.599143
8.534183
6.362872
4.142066
1.776658
-0.002935
-5.000000
-5.000000
-5.000000
0.000000
0.000000
0.000000
0.000000
2.146517
3.875530
5.674339
7.446765
9.186727
10.860686
12.428247
13.841007
15.046814
15.994373
16.638362
16.944210
16.891807
16.477583
15.714619
14.630811
13.265418
11.664610
9.876575
7.948105
5.916241
3.836810
1.607152
-0.003988
-5.000000
-5.000000
-5.000000
0.000000
0.000000
0.000000
0.000000
1.994710
3.599398
5.265698
6.903319
8.506384
10.044170
11.480231
12.771187
13.870485
14.732415
15.316600
15.592196
15.541152
15.160059
14.460265
13.466289
12.212808
10.740785
9.093163
7.312054
5.430554
3.503651
1.421170
-0.006637
-5.000000
-5.000000
-5.000000
0.000000
0.000000
0.000000
0.000000
1.834612
3.308325
4.835239
6.331336
7.790972
9.186363
10.485150
11.649145
12.637565
13.410456
13.932538
14.176802
14.127324
13.780864
13.146984
12.246714
11.109987
9.772324
8.271100
6.643221
4.917084
3.144942
1.208639
-0.007507
-5.000000
-5.000000
-5.000000
0.000000
0.000000
0.000000
0.000000
1.670041
3.009311
4.393446
5.744963
7.058478
8.309186
9.468827
10.504397
11.380861
12.063995
12.523586
12.736445
12.688765
12.377478
11.810375
11.005002
9.986518
8.784896
7.431644
5.957605
4.384850
2.752519
0.938415
-0.009280
-5.000000
-5.000000
-5.000000
0.000000
0.000000
0.000000
0.000000
1.504342
2.708504
3.949549
5.156687
6.324825
7.432104
8.454253
9.363281
10.129703
10.724811
11.123274
11.305579
11.259967
10.983543
10.482394
9.770695
8.868944
7.801569
6.593948
5.269750
3.841642
2.322431
0.581079
-1.705706
-5.000000
-5.000000
-5.000000
0.000000
0.000000
0.000000
0.000000
1.340177
2.410806
3.510927
4.576531
5.602848
6.570866
7.460092
8.247250
8.908040
9.418910
9.759080
9.912473
9.869248
9.626684
9.189290
8.568083
7.779135
6.841495
5.774358
4.593449
3.301567
1.879222
0.184585
-2.048446
-5.000000
-5.000000
-5.000000
0.000000
0.000000
0.000000
0.000000
1.179390
2.119629
3.082747
4.011553
4.901639
5.736695
6.499720
7.171742
7.733176
8.165132
8.450956
8.577684
8.537222
8.327032
7.950213
7.414926
6.733191
5.919050
4.985912
3.942106
2.785328
1.470467
0.009823
-2.240565
-5.000000
-5.000000
-5.000000
0.000000
0.000000
0.000000
0.000000
1.022990
1.836849
2.667878
3.465718
4.226367
4.936042
5.580896
6.145789
6.615296
6.974631
7.210759
7.313462
7.276202
7.096635
6.776659
6.321953
5.740987
5.043398
4.237719
3.326776
2.309131
1.128611
0.009640
-2.334789
-5.000000
-5.000000
-5.000000
0.000000
0.000000
0.000000
0.000000
0.871223
1.562946
2.267088
2.940145
3.578558
4.170893
4.706097
5.172358
5.557824
5.851218
6.042597
6.124094
6.090532
5.939778
5.672768
5.293131
4.806380
4.218519
3.534355
2.753193
1.878436
0.847438
0.009347
-2.385476
-5.000000
-5.000000
-5.000000
0.000000
0.000000
0.000000
0.000000
0.723755
1.297317
1.879498
2.433687
2.956808
3.439599
3.873447
4.249372
4.558517
4.792522
4.944015
5.007103
4.977774
4.854137
4.636420
4.326660
3.928050
3.443797
2.876038
2.221973
1.489552
0.609960
0.008957
-2.417268
-5.000000
-5.000000
-5.000000
0.000000
0.000000
0.000000
0.000000
0.579833
1.038579
1.503032
1.943526
2.357516
2.737747
3.077721
3.370833
3.610683
3.791284
3.907356
3.954625
3.930078
3.832105
3.660477
3.416098
3.100482
2.714833
2.259463
1.730144
1.137178
0.403878
0.008480
-2.437294
-5.000000
-5.000000
-5.000000
0.000000
0.000000
0.000000
0.000000
0.438765
0.785434
1.135668
1.466810
1.776886
2.060508
2.313011
2.529765
2.706365
2.838724
2.923236
2.956947
2.937698
2.864203
2.736020
2.553346
2.316622
2.025796
1.680028
1.274106
0.818202
0.226668
0.007734
-2.436141
-5.000000
-5.000000
-5.000000
0.000000
0.000000
0.000000
0.000000
0.298602
0.534254
0.771974
0.996207
1.205584
1.396496
1.565896
1.710821
1.828496
1.916368
1.972181
1.994067
1.980616
1.930916
1.844522
1.721304
1.561171
1.363522
1.127059
0.846544
0.529699
0.088781
0.006983
-2.360124
-5.000000
-5.000000
-5.000000
0.000000
0.000000
0.000000
0.000000
0.165008
0.295346
0.426547
0.550134
0.665312
0.770109
0.862888
0.942081
1.006233
1.054017
1.084257
1.095972
1.088404
1.061035
1.013561
0.945813
0.857582
0.748302
0.616900
0.459598
0.279808
0.011524
0.006434
-2.123886
-5.000000
-5.000000
-5.000000
0.000000
0.000000
0.000000
0.000000
0.000000
0.000000
0.000000
0.000000
0.000000
0.000000
0.000000
0.000000
0.000000
0.000000
0.000000
0.000000
0.000000
0.000000
0.000000
0.000000
0.000000
0.000000
0.000000
0.000000
0.000000
0.000000
0.000000
0.000000
-5.000000
-5.000000
-5.000000
0.000000
0.000000
0.000000
0.000000
0.000000
0.000000
0.000000
0.000000
0.000000
0.000000
0.000000
0.000000
0.000000
0.000000
0.000000
0.000000
0.000000
0.000000
0.000000
0.000000
0.000000
0.000000
0.000000
0.000000
0.000000
0.000000
0.000000
0.000000
-5.000000
-5.000000
-5.000000
0.000000
0.000000
0.000000
0.000000
0.000000
0.000000
0.000000
0.000000
0.000000
0.000000
0.000000
0.000000
0.000000
0.000000
0.000000
0.000000
0.000000
0.000000
0.000000
0.000000
0.000000
0.000000
0.000000
0.000000
0.000000
0.000000
0.000000
0.000000
-5.000000
-5.000000
-5.000000
0.000000
0.000000
0.000000
0.000000
0.000000
0.000000
0.000000
0.000000
0.000000
0.000000
0.000000
0.000000
0.000000
0.000000
0.000000
0.000000
0.000000
0.000000
0.000000
0.000000
0.000000
0.000000
0.000000
0.000000
0.000000
0.000000
0.000000
0.000000
-5.000000
-5.000000
-5.000000
</DataArray>
</PointData>
<Cells>
<DataArray type='Int32' Name='connectivity' format='ascii'>
0
1
2
3
4
5
6
7
8
9
10
11
12
13
14
15
16
17
18
19
20
21
22
23
24
25
26
27
28
29
30
31
32
33
34
35
36
37
38
39
40
41
42
43
44
45
46
47
48
49
50
51
52
53
54
55
56
57
58
59
60
61
62
63
64
65
66
67
68
69
70
71
72
73
74
75
76
77
78
79
80
81
82
83
84
85
86
87
88
89
90
91
92
93
94
95
96
97
98
99
100
101
102
103
104
105
106
107
108
109
110
111
112
113
114
115
116
117
118
119
120
121
122
123
124
125
126
127
128
129
130
131
132
133
134
135
136
137
138
139
140
141
142
143
144
145
146
147
148
149
150
151
152
153
154
155
156
157
158
159
160
161
162
163
164
165
166
167
168
169
170
171
172
173
174
175
176
177
178
179
180
181
182
183
184
185
186
187
188
189
190
191
192
193
194
195
196
197
198
199
200
201
202
203
204
205
206
207
208
209
210
211
212
213
214
215
216
217
218
219
220
221
222
223
224
225
226
227
228
229
230
231
232
233
234
235
236
237
238
239
240
241
242
243
244
245
246
247
248
249
250
251
252
253
254
255
256
257
258
259
260
261
262
263
264
265
266
267
268
269
270
271
272
273
274
275
276
277
278
279
280
281
282
283
284
285
286
287
288
289
290
291
292
293
294
295
296
297
298
299
300
301
302
303
304
305
306
307
308
309
310
311
312
313
314
315
316
317
318
319
320
321
322
323
324
325
326
327
328
329
330
331
332
333
334
335
336
337
338
339
340
341
342
343
344
345
346
347
348
349
350
351
352
353
354
355
356
357
358
359
360
361
362
363
364
365
366
367
368
369
370
371
372
373
374
375
376
377
378
379
380
381
382
383
384
385
386
387
388
389
390
391
392
393
394
395
396
397
398
399
400
401
402
403
404
405
406
407
408
409
410
411
412
413
414
415
416
417
418
419
420
421
422
423
424
425
426
427
428
429
430
431
432
433
434
435
436
437
438
439
440
441
442
443
444
445
446
447
448
449
450
451
452
453
454
455
456
457
458
459
460
461
462
463
464
465
466
467
468
469
470
471
472
473
474
475
476
477
478
479
480
481
482
483
484
485
486
487
488
489
490
491
492
493
494
495
496
497
498
499
500
501
502
503
504
505
506
507
508
509
510
511
512
513
514
515
516
517
518
519
520
521
522
523
524
525
526
527
528
529
530
531
532
533
534
535
536
537
538
539
540
541
542
543
544
545
546
547
548
549
550
551
552
553
554
555
556
557
558
559
560
561
562
563
564
565
566
567
568
569
570
571
572
573
574
575
576
577
578
579
580
581
582
583
584
585
586
587
588
589
590
591
592
593
594
595
596
597
598
599
600
601
602
603
604
605
606
607
608
609
610
611
612
613
614
615
616
617
618
619
620
621
622
623
624
625
626
627
628
629
630
631
632
633
634
635
636
637
638
639
640
641
642
643
644
645
646
647
648
649
650
651
652
653
654
655
656
657
658
659
660
661
662
663
664
665
666
667
668
669
670
671
672
673
674
675
676
677
678
679
680
681
682
683
684
685
686
687
688
689
690
691
692
693
694
695
696
697
698
699
700
701
702
703
704
705
706
707
708
709
710
711
712
713
714
715
716
717
718
719
720
721
722
723
724
725
726
727
728
729
730
731
732
733
734
735
736
737
738
739
740
741
742
743
744
745