<?xml version='1.0' encoding='UTF-8'?>
<VTKFile xmlns='VTK' byte_order='LittleEndian' version='0.1' type='UnstructuredGrid'>
<UnstructuredGrid>
<Piece NumberOfCells='1488' NumberOfPoints='1488'>
<Points>
<DataArray NumberOfComponents='3' type='Float32' Name='Position' format='ascii'>
-0.075000 -0.075000 0.000000
-0.075000 -0.050000 0.000000
-0.075000 -0.025000 0.000000
-0.075000 0.000000 0.000000
-0.075000 0.025000 0.000000
-0.075000 0.050000 0.000000
-0.075000 0.075000 0.000000
-0.075000 0.100000 0.000000
-0.075000 0.125000 0.000000
-0.075000 0.150000 0.000000
-0.075000 0.175000 0.000000
-0.075000 0.200000 0.000000
-0.075000 0.225000 0.000000
-0.075000 0.250000 0.000000
-0.075000 0.275000 0.000000
-0.075000 0.300000 0.000000
-0.075000 0.325000 0.000000
-0.075000 0.350000 0.000000
-0.075000 0.375000 0.000000
-0.075000 0.400000 0.000000
-0.075000 0.425000 0.000000
-0.075000 0.450000 0.000000
-0.075000 0.475000 0.000000
-0.075000 0.500000 0.000000
-0.075000 0.525000 0.000000
-0.075000 0.550000 0.000000
-0.075000 0.575000 0.000000
-0.075000 0.600000 0.000000
-0.075000 0.625000 0.000000
-0.075000 0.650000 0.000000
-0.075000 0.675000 0.000000
-0.050000 -0.075000 0.000000
-0.050000 -0.050000 0.000000
-0.050000 -0.025000 0.000000
-0.050000 0.000000 0.000000
-0.050000 0.025000 0.000000
-0.050000 0.050000 0.000000
-0.050000 0.075000 0.000000
-0.050000 0.100000 0.000000
-0.050000 0.125000 0.000000
-0.050000 0.150000 0.000000
-0.050000 0.175000 0.000000
-0.050000 0.200000 0.000000
-0.050000 0.225000 0.000000
-0.050000 0.250000 0.000000
-0.050000 0.275000 0.000000
-0.050000 0.300000 0.000000
-0.050000 0.325000 0.000000
-0.050000 0.350000 0.000000
-0.050000 0.375000 0.000000
-0.050000 0.400000 0.000000
-0.050000 0.425000 0.000000
-0.050000 0.450000 0.000000
-0.050000 0.475000 0.000000
-0.050000 0.500000 0.000000
-0.050000 0.525000 0.000000
-0.050000 0.550000 0.000000
-0.050000 0.575000 0.000000
-0.050000 0.600000 0.000000
-0.050000 0.625000 0.000000
-0.050000 0.650000 0.000000
-0.050000 0.675000 0.000000
-0.025000 -0.075000 0.000000
-0.025000 -0.050000 0.000000
-0.025000 -0.025000 0.000000
-0.025000 0.000000 0.000000
-0.025000 0.025000 0.000000
-0.025000 0.050000 0.000000
-0.025000 0.075000 0.000000
-0.025000 0.100000 0.000000
-0.025000 0.125000 0.000000
-0.025000 0.150000 0.000000
-0.025000 0.175000 0.000000
-0.025000 0.200000 0.000000
-0.025000 0.225000 0.000000
-0.025000 0.250000 0.000000
-0.025000 0.275000 0.000000
-0.025000 0.300000 0.000000
-0.025000 0.325000 0.000000
-0.025000 0.350000 0.000000
-0.025000 0.375000 0.000000
-0.025000 0.400000 0.000000
-0.025000 0.425000 0.000000
-0.025000 0.450000 0.000000
-0.025000 0.475000 0.000000
-0.025000 0.500000 0.000000
-0.025000 0.525000 0.000000
-0.025000 0.550000 0.000000
-0.025000 0.575000 0.000000
-0.025000 0.600000 0.000000
-0.025000 0.625000 0.000000
-0.025000 0.650000 0.000000
-0.025000 0.675000 0.000000
0.000000 -0.075000 0.000000
0.000000 -0.050000 0.000000
0.000000 -0.025000 0.000000
0.000000 0.000000 0.000000
0.000000 0.025000 0.000000
0.000000 0.050000 0.000000
0.000000 0.075000 0.000000
0.000000 0.100000 0.000000
0.000000 0.125000 0.000000
0.000000 0.150000 0.000000
0.000000 0.175000 0.000000
0.000000 0.200000 0.000000
0.000000 0.225000 0.000000
0.000000 0.250000 0.000000
0.000000 0.275000 0.000000
0.000000 0.300000 0.000000
0.000000 0.325000 0.000000
0.000000 0.350000 0.000000
0.000000 0.375000 0.000000
0.000000 0.400000 0.000000
0.000000 0.425000 0.000000
0.000000 0.450000 0.000000
0.000000 0.475000 0.000000
0.000000 0.500000 0.000000
0.000000 0.525000 0.000000
0.000000 0.550000 0.000000
0.000000 0.575000 0.000000
0.000000 0.600000 0.000000
0.000000 0.625000 0.000000
0.000000 0.650000 0.000000
0.000000 0.675000 0.000000
0.025000 -0.075000 0.000000
0.025000 -0.050000 0.000000
0.025000 -0.025000 0.000000
0.025000 0.000000 0.000000
0.025000 0.025000 0.000000
0.025000 0.050000 0.000000
0.025000 0.075000 0.000000
0.025000 0.100000 0.000000
0.025000 0.125000 0.000000
0.025000 0.150000 0.000000
0.025000 0.175000 0.000000
0.025000 0.200000 0.000000
0.025000 0.225000 0.000000
0.025000 0.250000 0.000000
0.025000 0.275000 0.000000
0.025000 0.300000 0.000000
0.025000 0.325000 0.000000
0.025000 0.350000 0.000000
0.025000 0.375000 0.000000
0.025000 0.400000 0.000000
0.025000 0.425000 0.000000
0.025000 0.450000 0.000000
0.025000 0.475000 0.000000
0.025000 0.500000 0.000000
0.025000 0.525000 0.000000
0.025000 0.550000 0.000000
0.025000 0.575000 0.000000
0.025000 0.600000 0.000000
0.025000 0.625000 0.000000
0.025000 0.650000 0.000000
0.025000 0.675000 0.000000
0.050000 -0.075000 0.000000
0.050000 -0.050000 0.000000
0.050000 -0.025000 0.000000
0.050000 0.000000 0.000000
0.050000 0.025000 0.000000
0.050000 0.050000 0.000000
0.050000 0.075000 0.000000
0.050000 0.100000 0.000000
0.050000 0.125000 0.000000
0.050000 0.150000 0.000000
0.050000 0.175000 0.000000
0.050000 0.200000 0.000000
0.050000 0.225000 0.000000
0.050000 0.250000 0.000000
0.050000 0.275000 0.000000
0.050000 0.300000 0.000000
0.050000 0.325000 0.000000
0.050000 0.350000 0.000000
0.050000 0.375000 0.000000
0.050000 0.400000 0.000000
0.050000 0.425000 0.000000
0.050000 0.450000 0.000000
0.050000 0.475000 0.000000
0.050000 0.500000 0.000000
0.050000 0.525000 0.000000
0.050000 0.550000 0.000000
0.050000 0.575000 0.000000
0.050000 0.600000 0.000000
0.050000 0.625000 0.000000
0.050000 0.650000 0.000000
0.050000 0.675000 0.000000
0.075000 -0.075000 0.000000
0.075000 -0.050000 0.000000
0.075000 -0.025000 0.000000
0.075000 0.000000 0.000000
0.075000 0.025000 0.000000
0.075000 0.050000 0.000000
0.075000 0.075000 0.000000
0.075000 0.100000 0.000000
0.075000 0.125000 0.000000
0.075000 0.150000 0.000000
0.075000 0.175000 0.000000
0.075000 0.200000 0.000000
0.075000 0.225000 0.000000
0.075000 0.250000 0.000000
0.075000 0.275000 0.000000
0.075000 0.300000 0.000000
0.075000 0.325000 0.000000
0.075000 0.350000 0.000000
0.075000 0.375000 0.000000
0.075000 0.400000 0.000000
0.075000 0.425000 0.000000
0.075000 0.450000 0.000000
0.075000 0.475000 0.000000
0.075000 0.500000 0.000000
0.075000 0.525000 0.000000
0.075000 0.550000 0.000000
0.075000 0.575000 0.000000
0.075000 0.600000 0.000000
0.075000 0.625000 0.000000
0.075000 0.650000 0.000000
0.075000 0.675000 0.000000
0.100000 -0.075000 0.000000
0.100000 -0.050000 0.000000
0.100000 -0.025000 0.000000
0.100000 0.000000 0.000000
0.100000 0.025000 0.000000
0.100000 0.050000 0.000000
0.100000 0.075000 0.000000
0.100000 0.100000 0.000000
0.100000 0.125000 0.000000
0.100000 0.150000 0.000000
0.100000 0.175000 0.000000
0.100000 0.200000 0.000000
0.100000 0.225000 0.000000
0.100000 0.250000 0.000000
0.100000 0.275000 0.000000
0.100000 0.300000 0.000000
0.100000 0.325000 0.000000
0.100000 0.350000 0.000000
0.100000 0.375000 0.000000
0.100000 0.400000 0.000000
0.100000 0.425000 0.000000
0.100000 0.450000 0.000000
0.100000 0.475000 0.000000
0.100000 0.500000 0.000000
0.100000 0.525000 0.000000
0.100000 0.550000 0.000000
0.100000 0.575000 0.000000
0.100000 0.600000 0.000000
0.100000 0.625000 0.000000
0.100000 0.650000 0.000000
0.100000 0.675000 0.000000
0.125000 -0.075000 0.000000
0.125000 -0.050000 0.000000
0.125000 -0.025000 0.000000
0.125000 0.000000 0.000000
0.125000 0.025000 0.000000
0.125000 0.050000 0.000000
0.125000 0.075000 0.000000
0.125000 0.100000 0.000000
0.125000 0.125000 0.000000
0.125000 0.150000 0.000000
0.125000 0.175000 0.000000
0.125000 0.200000 0.000000
0.125000 0.225000 0.000000
0.125000 0.250000 0.000000
0.125000 0.275000 0.000000
0.125000 0.300000 0.000000
0.125000 0.325000 0.000000
0.125000 0.350000 0.000000
0.125000 0.375000 0.000000
0.125000 0.400000 0.000000
0.125000 0.425000 0.000000
0.125000 0.450000 0.000000
0.125000 0.475000 0.000000
0.125000 0.500000 0.000000
0.125000 0.525000 0.000000
0.125000 0.550000 0.000000
0.125000 0.575000 0.000000
0.125000 0.600000 0.000000
0.125000 0.625000 0.000000
0.125000 0.650000 0.000000
0.125000 0.675000 0.000000
0.150000 -0.075000 0.000000
0.150000 -0.050000 0.000000
0.150000 -0.025000 0.000000
0.150000 0.000000 0.000000
0.150000 0.025000 0.000000
0.150000 0.050000 0.000000
0.150000 0.075000 0.000000
0.150000 0.100000 0.000000
0.150000 0.125000 0.000000
0.150000 0.150000 0.000000
0.150000 0.175000 0.000000
0.150000 0.200000 0.000000
0.150000 0.225000 0.000000
0.150000 0.250000 0.000000
0.150000 0.275000 0.000000
0.150000 0.300000 0.000000
0.150000 0.325000 0.000000
0.150000 0.350000 0.000000
0.150000 0.375000 0.000000
0.150000 0.400000 0.000000
0.150000 0.425000 0.000000
0.150000 0.450000 0.000000
0.150000 0.475000 0.000000
0.150000 0.500000 0.000000
0.150000 0.525000 0.000000
0.150000 0.550000 0.000000
0.150000 0.575000 0.000000
0.150000 0.600000 0.000000
0.150000 0.625000 0.000000
0.150000 0.650000 0.000000
0.150000 0.675000 0.000000
0.175000 -0.075000 0.000000
0.175000 -0.050000 0.000000
0.175000 -0.025000 0.000000
0.175000 0.000000 0.000000
0.175000 0.025000 0.000000
0.175000 0.050000 0.000000
0.175000 0.075000 0.000000
0.175000 0.100000 0.000000
0.175000 0.125000 0.000000
0.175000 0.150000 0.000000
0.175000 0.175000 0.000000
0.175000 0.200000 0.000000
0.175000 0.225000 0.000000
0.175000 0.250000 0.000000
0.175000 0.275000 0.000000
0.175000 0.300000 0.000000
0.175000 0.325000 0.000000
0.175000 0.350000 0.000000
0.175000 0.375000 0.000000
0.175000 0.400000 0.000000
0.175000 0.425000 0.000000
0.175000 0.450000 0.000000
0.175000 0.475000 0.000000
0.175000 0.500000 0.000000
0.175000 0.525000 0.000000
0.175000 0.550000 0.000000
0.175000 0.575000 0.000000
0.175000 0.600000 0.000000
0.175000 0.625000 0.000000
0.175000 0.650000 0.000000
0.175000 0.675000 0.000000
0.200000 -0.075000 0.000000
0.200000 -0.050000 0.000000
0.200000 -0.025000 0.000000
0.200000 0.000000 0.000000
0.200000 0.025000 0.000000
0.200000 0.050000 0.000000
0.200000 0.075000 0.000000
0.200000 0.100000 0.000000
0.200000 0.125000 0.000000
0.200000 0.150000 0.000000
0.200000 0.175000 0.000000
0.200000 0.200000 0.000000
0.200000 0.225000 0.000000
0.200000 0.250000 0.000000
[...]
<PointData>
<DataArray NumberOfComponents='1' type='Int32' Name='ParticleType' format='ascii'>
4
4
4
4
4
4
4
4
4
4
4
4
4
4
4
4
4
4
4
4
4
4
4
4
4
4
4
4
2
2
2
4
4
4
4
4
4
4
4
4
4
4
4
4
4
4
4
4
4
4
4
4
4
4
4
4
4
4
4
2
2
2
4
4
3
3
3
3
3
3
3
3
3
3
3
3
3
3
3
3
3
3
3
3
3
3
3
3
3
3
2
2
2
4
4
3
3
3
3
3
3
3
3
3
3
3
3
3
3
3
3
3
3
3
3
3
3
3
3
3
3
2
2
2
4
4
3
3
0
0
0
0
0
0
0
0
0
0
0
0
0
0
0
0
0
0
0
0
0
0
1
1
2
2
2
4
4
3
3
0
0
0
0
0
0
0
0
0
0
0
0
0
0
0
0
0
0
0
0
0
0
0
1
2
2
2
4
4
3
3
0
0
0
0
0
0
0
0
0
0
0
0
0
0
0
0
0
0
0
0
0
0
0
1
2
2
2
4
4
3
3
0
0
0
0
0
0
0
0
0
0
0
0
0
0
0
0
0
0
0
0
0
0
0
1
2
2
2
4
4
3
3
0
0
0
0
0
0
0
0
0
0
0
0
0
0
0
0
0
0
0
0
0
0
0
1
2
2
2
4
4
3
3
0
0
0
0
0
0
0
0
0
0
0
0
0
0
0
0
0
0
0
0
0
0
0
1
2
2
2
4
4
3
3
0
0
0
0
0
0
0
0
0
0
0
0
0
0
0
0
0
0
0
0
0
0
0
1
2
2
2
4
4
3
3
0
0
0
0
0
0
0
0
0
0
0
0
0
0
0
0
0
0
0
0
0
0
0
1
2
2
2
4
4
3
3
0
0
0
0
0
0
0
0
0
0
0
0
0
0
0
0
0
0
0
0
0
0
0
1
2
2
2
4
4
3
3
0
0
0
0
0
0
0
0
0
0
0
0
0
0
0
0
0
0
0
0
0
0
0
1
2
2
2
4
4
3
3
0
0
0
0
0
0
0
0
0
0
0
0
0
0
0
0
0
0
0
0
0
0
0
1
2
2
2
4
4
3
3
0
0
0
0
0
0
0
0
0
0
0
0
0
0
0
0
0
0
0
0
0
0
0
1
2
2
2
4
4
3
3
0
0
0
0
0
0
0
0
0
0
0
0
0
0
0
0
0
0
0
0
0
0
0
1
2
2
2
4
4
3
3
0
0
0
0
0
0
0
0
0
0
0
0
0
0
0
0
0
0
0
0
0
0
0
1
2
2
2
4
4
3
3
0
0
0
0
0
0
0
0
0
0
0
0
0
0
0
0
0
0
0
0
0
0
0
1
2
2
2
4
4
3
3
0
0
0
0
0
0
0
0
0
0
0
0
0
0
0
0
0
0
0
0
0
0
0
1
2
2
2
4
4
3
3
0
0
0
0
0
0
0
0
0
0
0
0
0
0
0
0
0
0
0
0
0
0
0
1
2
2
2
4
4
3
3
0
0
0
0
0
0
0
0
0
0
0
0
0
0
0
0
0
0
0
0
0
0
0
1
2
2
2
4
4
3
3
0
0
0
0
0
0
0
0
0
0
0
0
0
0
0
0
0
0
0
0
0
0
0
1
2
2
2
4
4
3
3
0
0
0
0
0
0
0
0
0
0
0
0
0
0
0
0
0
0
0
0
0
0
0
1
2
2
2
4
4
3
3
0
0
0
0
0
0
0
0
0
0
0
0
0
0
0
0
0
0
0
0
0
0
0
1
2
2
2
4
4
3
3
0
0
0
0
0
0
0
0
0
0
0
0
0
0
0
0
0
0
0
0
0
0
0
1
2
2
2
4
4
3
3
0
0
0
0
0
0
0
0
0
0
0
0
0
0
0
0
0
0
0
0
0
0
0
1
2
2
2
4
4
3
3
0
0
0
0
0
0
0
0
0
0
0
0
0
0
0
0
0
0
0
0
0
0
0
1
2
2
2
4
4
3
3
0
0
0
0
0
0
0
0
0
0
0
0
0
0
0
0
0
0
0
0
0
0
0
1
2
2
2
4
4
3
3
0
0
0
0
0
0
0
0
0
0
0
0
0
0
0
0
0
0
0
0
0
0
0
1
2
2
2
4
4
3
3
0
0
0
0
0
0
0
0
0
0
0
0
0
0
0
0
0
0
0
0
0
0
0
1
2
2
2
4
4
3
3
0
0
0
0
0
0
0
0
0
0
0
0
0
0
0
0
0
0
0
0
0
0
0
1
2
2
2
4
4
3
3
0
0
0
0
0
0
0
0
0
0
0
0
0
0
0
0
0
0
0
0
0
0
0
1
2
2
2
4
4
3
3
0
0
0
0
0
0
0
0
0
0
0
0
0
0
0
0
0
0
0
0
0
0
0
1
2
2
2
4
4
3
3
0
0
0
0
0
0
0
0
0
0
0
0
0
0
0
0
0
0
0
0
0
0
0
1
2
2
2
4
4
3
3
0
0
0
0
0
0
0
0
0
0
0
0
0
0
0
0
0
0
0
0
0
0
0
1
2
2
2
4
4
3
3
0
0
0
0
0
0
0
0
0
0
0
0
0
0
0
0
0
0
0
0
0
0
0
1
2
2
2
4
4
3
3
0
0
0
0
0
0
0
0
0
0
0
0
0
0
0
0
0
0
0
0
0
0
0
1
2
2
2
4
4
3
3
0
0
0
0
0
0
0
0
0
0
0
0
0
0
0
0
0
0
0
0
0
0
0
1
2
2
2
4
4
3
3
0
0
0
0
0
0
0
0
0
0
0
0
0
0
0
0
0
0
0
0
0
0
0
1
2
2
2
4
4
3
3
0
0
0
0
0
0
0
0
0
0
0
0
0
0
0
0
0
0
0
0
0
0
0
1
2
2
2
4
4
3
3
0
0
0
0
0
0
0
0
0
0
0
0
0
0
0
0
0
0
0
0
0
0
0
1
2
2
2
4
4
3
3
0
0
0
0
0
0
0
0
0
0
0
0
0
0
0
0
0
0
0
0
0
0
0
1
2
2
2
4
4
3
3
0
0
0
0
0
0
0
0
0
0
0
0
0
0
0
0
0
0
0
0
0
0
1
1
2
2
2
4
4
3
3
3
3
3
3
3
3
3
3
3
3
3
3
3
3
3
3
3
3
3
3
3
3
3
3
2
2
2
4
4
3
3
3
3
3
3
3
3
3
3
3
3
3
3
3
3
3
3
3
3
3
3
3
3
3
3
2
2
2
4
4
4
4
4
4
4
4
4
4
4
4
4
4
4
4
4
4
4
4
4
4
4
4
4
4
4
4
2
2
2
4
4
4
4
4
4
4
4
4
4
4
4
4
4
4
4
4
4
4
4
4
4
4
4
4
4
4
4
2
2
2
</DataArray>
<DataArray NumberOfComponents='1' type='Float32' Name='Temperature' format='ascii'>
0.000000
0.000000
0.000000
0.000000
0.000000
0.000000
0.000000
0.000000
0.000000
0.000000
0.000000
0.000000
0.000000
0.000000
0.000000
0.000000
0.000000
0.000000
0.000000
0.000000
0.000000
0.000000
0.000000
0.000000
0.000000
0.000000
0.000000
0.000000
-5.000000
-5.000000
-5.000000
0.000000
0.000000
0.000000
0.000000
0.000000
0.000000
0.000000
0.000000
0.000000
0.000000
0.000000
0.000000
0.000000
0.000000
0.000000
0.000000
0.000000
0.000000
0.000000
0.000000
0.000000
0.000000
0.000000
0.000000
0.000000
0.000000
0.000000
0.000000
-5.000000
-5.000000
-5.000000
0.000000
0.000000
0.000000
0.000000
0.000000
0.000000
0.000000
0.000000
0.000000
0.000000
0.000000
0.000000
0.000000
0.000000
0.000000
0.000000
0.000000
0.000000
0.000000
0.000000
0.000000
0.000000
0.000000
0.000000
0.000000
0.000000
0.000000
0.000000
-5.000000
-5.000000
-5.000000
0.000000
0.000000
0.000000
0.000000
0.000000
0.000000
0.000000
0.000000
0.000000
0.000000
0.000000
0.000000
0.000000
0.000000
0.000000
0.000000
0.000000
0.000000
0.000000
0.000000
0.000000
0.000000
0.000000
0.000000
0.000000
0.000000
0.000000
0.000000
-5.000000
-5.000000
-5.000000
0.000000
0.000000
0.000000
0.000000
0.444116
0.753437
1.010713
1.193702
1.315104
1.389738
1.432977
1.456905
1.469772
1.476562
1.479975
1.481277
1.480832
1.478287
1.472362
1.460221
1.436335
1.390938
1.308312
1.166591
0.935043
0.603162
0.009851
0.006751
-5.000000
-5.000000
-5.000000
0.000000
0.000000
0.000000
0.000000
0.753546
1.278480
1.716929
2.029879
2.238594
2.367903
2.443777
2.486673
2.510532
2.523721
2.530710
2.533541
2.532773
2.527797
2.516493
2.494142
2.451503
2.372239
2.230237
1.989859
1.603564
1.061319
0.159889
0.007065
-5.000000
-5.000000
-5.000000
0.000000
0.000000
0.000000
0.000000
1.011322
1.717773
2.309814
2.734768
3.020554
3.200080
3.307960
3.371438
3.408928
3.431267
3.444034
3.449618
3.448567
3.440052
3.421410
3.386651
3.323844
3.211684
3.016155
2.691404
2.179713
1.469193
0.383891
0.007439
-5.000000
-5.000000
-5.000000
0.000000
0.000000
0.000000
0.000000
1.195684
2.033312
2.738457
3.248668
3.596459
3.820270
3.960551
4.048836
4.105917
4.143408
4.166699
4.177656
4.176391
4.161911
4.131581
4.079279
3.992173
3.846549
3.603969
3.212530
2.609205
1.779716
0.561180
0.007480
-5.000000
-5.000000
-5.000000
0.000000
0.000000
0.000000
0.000000
1.320127
2.248088
3.033978
3.609449
4.010462
4.279180
4.459458
4.584494
4.674800
4.740247
4.783901
4.805571
4.804156
4.778550
4.727050
4.645155
4.521666
4.333613
4.041684
3.591401
2.916810
2.001155
0.688350
0.007563
-5.000000
-5.000000
-5.000000
0.000000
0.000000
0.000000
0.000000
1.400669
2.389639
3.234513
3.864794
4.319863
4.644746
4.884698
5.071625
5.222016
5.339989
5.422650
5.465074
5.463565
5.416945
5.325926
5.190475
5.004943
4.751553
4.394376
3.879742
3.140496
2.157253
0.776449
0.007905
-5.000000
-5.000000
-5.000000
0.000000
0.000000
0.000000
0.000000
1.454302
2.487675
3.382152
4.068889
4.592074
4.999908
5.337531
5.631901
5.889918
6.103439
6.257551
6.338118
6.336556
6.251640
6.088870
5.857267
5.562976
5.200172
4.742165
4.139923
3.326408
2.278780
0.842072
0.007964
-5.000000
-5.000000
-5.000000
0.000000
0.000000
0.000000
0.000000
1.494972
2.567057
3.513220
4.270585
4.891197
5.428179
5.925541
6.400517
6.842066
7.219569
7.496536
7.642702
7.641107
7.490500
7.204700
6.808777
6.330336
5.785857
5.166378
4.432350
3.517714
2.394071
0.900583
0.007733
-5.000000
-5.000000
-5.000000
0.000000
0.000000
0.000000
0.000000
1.532612
2.645840
3.654948
4.508192
5.270366
6.002962
6.748515
7.508453
8.241957
8.881064
9.353943
9.604566
9.602932
9.347779
8.865939
8.208217
7.437499
6.607506
5.738897
4.807686
3.749004
2.525114
0.963720
0.008068
-5.000000
-5.000000
-5.000000
0.000000
0.000000
0.000000
0.000000
1.573123
2.734777
3.823686
4.805157
5.763194
6.772778
7.875586
9.050264
10.211205
11.233764
11.993302
12.396392
12.394689
11.986927
11.218281
10.176958
8.978637
7.733648
6.507278
5.298039
4.041510
2.685164
1.038471
0.007870
-5.000000
-5.000000
-5.000000
0.000000
0.000000
0.000000
0.000000
1.618768
2.837526
4.023969
5.166326
6.374760
7.743755
9.315827
11.040282
12.770537
14.303914
15.444237
16.049221
16.047400
15.437511
14.287863
12.735562
10.967840
9.172993
7.477099
5.907665
4.398909
2.877196
1.126727
0.008075
-5.000000
-5.000000
-5.000000
0.000000
0.000000
0.000000
0.000000
1.668779
2.951429
4.248817
5.576566
7.076512
8.867746
10.995745
13.375835
15.787703
17.932127
19.526698
20.371822
20.369838
19.519484
17.915295
15.751751
13.302363
10.851909
8.599975
6.607645
4.805579
3.093715
1.225443
0.008009
-5.000000
-5.000000
-5.000000
0.000000
0.000000
0.000000
0.000000
1.720264
3.069202
4.482390
6.004529
7.811248
10.048290
12.765052
15.841608
18.980373
21.774606
23.851419
24.951190
24.949025
23.843662
21.756902
18.943328
15.767010
12.620174
9.779434
7.340702
5.230092
3.319001
1.327866
0.007691
-5.000000
-5.000000
-5.000000
0.000000
0.000000
0.000000
0.000000
1.769399
3.181575
4.705102
6.412107
8.509856
11.168651
14.440808
18.172414
21.992203
25.396973
27.927672
29.267401
29.265074
27.919435
25.378505
21.954213
18.096845
14.295028
10.898842
8.037788
5.634463
3.533891
1.425680
0.008151
-5.000000
-5.000000
-5.000000
0.000000
0.000000
0.000000
0.000000
1.812675
3.280201
4.899648
6.766186
9.113167
12.130310
15.870685
20.151012
24.539101
28.453827
31.364697
32.906007
32.903568
31.356128
28.434833
24.500464
20.074776
15.724270
11.859775
8.639825
5.985739
3.721527
1.511415
0.008086
-5.000000
-5.000000
-5.000000
0.000000
0.000000
0.000000
0.000000
1.847816
3.359804
5.055452
7.047268
9.587714
12.879856
16.975751
21.669248
26.483377
30.780407
33.977125
35.670487
35.667990
33.968382
30.761140
26.444406
21.592666
16.828982
12.608842
9.113391
6.264542
3.871648
1.580435
0.008251
-5.000000
-5.000000
-5.000000
0.000000
0.000000
0.000000
0.000000
1.874097
3.418877
5.169935
7.251549
9.928746
13.412707
17.753718
22.729605
27.833534
32.390452
35.781883
37.579091
37.576576
35.773088
32.371101
27.794459
22.652910
17.606808
13.141419
9.453725
6.467100
3.981809
1.631467
0.007833
-5.000000
-5.000000
-5.000000
0.000000
0.000000
0.000000
0.000000
1.892077
3.458951
5.246765
7.387029
10.152241
13.758003
18.252876
23.404529
28.687979
33.405700
36.917755
38.779418
38.776907
36.908970
33.386363
28.648921
23.327846
18.105945
13.486577
9.676762
6.601386
4.055628
1.665977
0.008302
-5.000000
-5.000000
-5.000000
0.000000
0.000000
0.000000
0.000000
1.902990
3.483081
5.292563
7.466899
10.282560
13.957291
18.538409
23.787856
29.170760
33.977439
37.556260
39.453641
39.451140
37.547503
33.958145
29.131753
23.711223
18.391500
13.685805
9.806809
6.680518
4.099565
1.686678
0.008165
-5.000000
-5.000000
-5.000000
0.000000
0.000000
0.000000
0.000000
1.908084
3.494275
5.313645
7.503364
10.341572
14.046855
18.665898
23.958119
29.384382
34.229796
37.837692
39.750639
39.748145
37.828955
34.210532
29.345412
23.881520
18.519010
13.775348
9.865697
6.716633
4.119766
1.696256
0.008249
-5.000000
-5.000000
-5.000000
0.000000
0.000000
0.000000
0.000000
1.908110
3.494327
5.313731
7.503492
10.341749
14.047087
18.666186
23.958460
29.384772
34.230227
37.838152
39.751115
39.748621
37.829416
34.210963
29.345802
23.881862
18.519298
13.775579
9.865873
6.716758
4.119847
1.696299
0.008250
-5.000000
-5.000000
-5.000000
0.000000
0.000000
0.000000
0.000000
1.903071
3.483240
5.292821
7.467279
10.283079
13.957959
18.539224
23.788807
29.171829
33.978603
37.557493
39.454911
39.452410
37.548736
33.959309
29.132822
23.712173
18.392314
13.686471
9.807325
6.680889
4.099805
1.686807
0.008169
-5.000000
-5.000000
-5.000000
0.000000
0.000000
0.000000
0.000000
1.892212
3.459216
5.247192
7.387644
10.153058
13.759016
18.254057
23.405840
28.689384
33.407171
36.919270
38.780956
38.778445
36.910484
33.387833
28.650325
23.329156
18.107124
13.487586
9.677572
6.601985
4.056024
1.666192
0.008312
-5.000000
-5.000000
-5.000000
0.000000
0.000000
0.000000
0.000000
1.874288
3.419245
5.170516
7.252359
9.929770
13.413887
17.754962
22.730816
27.834646
32.391445
35.782781
37.579938
37.577423
35.773984
32.372093
27.795569
22.654120
17.608049
13.142593
9.454738
6.467889
3.982347
1.631765
0.007851
-5.000000
-5.000000
-5.000000
0.000000
0.000000
0.000000
0.000000
1.848059
3.360264
5.056160
7.048209
9.588812
12.880954
16.976639
21.669726
26.483331
30.779851
33.976180
35.669339
35.666841
33.967437
30.760582
26.444359
21.593141
16.829866
12.609933
9.114475
6.265455
3.872301
1.580807
0.008280
-5.000000
-5.000000
-5.000000
0.000000
0.000000
0.000000
0.000000
1.812961
3.280736
4.900445
6.767185
9.114201
12.131083
15.870818
20.150159
24.537089
28.450721
31.360772
32.901653
32.899214
31.352201
28.431725
24.498449
20.073921
15.724398
11.860539
8.640842
5.986705
3.722258
1.511846
0.008124
-5.000000
-5.000000
-5.000000
0.000000
0.000000
0.000000
0.000000
1.769717
3.182162
4.705952
6.413110
8.510749
11.168992
14.440037
18.170030
21.987965
25.391011
27.920430
29.259492
29.257165
27.912192
25.372541
21.949973
18.094457
14.294252
10.899173
8.038662
5.635427
3.534666
1.426150
0.008207
-5.000000
-5.000000
-5.000000
0.000000
0.000000
0.000000
0.000000
1.720600
3.069817
4.483266
6.005523
7.812035
10.048328
12.763661
15.838176
18.974612
21.766695
23.841919
24.940867
24.938701
23.834161
21.748990
18.937566
15.763575
12.618778
9.779461
7.341467
5.231044
3.319798
1.328358
0.007757
-5.000000
-5.000000
-5.000000
0.000000
0.000000
0.000000
0.000000
1.669120
2.952054
4.249706
5.577576
7.077318
8.867805
10.994376
13.372427
15.781968
17.924241
19.517224
20.361525
20.359541
19.510010
17.907408
15.746014
13.298953
10.850534
8.600022
6.608428
4.806545
3.094521
1.225940
0.008065
-5.000000
-5.000000
-5.000000
0.000000
0.000000
0.000000
0.000000
1.619103
2.838144
4.024862
5.167384
6.375719
7.744168
9.315135
11.037980
12.766385
14.298041
15.437086
16.041404
16.039583
15.430358
14.281988
12.731407
10.965534
9.172292
7.477497
5.908597
4.399921
2.878005
1.127217
0.008125
-5.000000
-5.000000
-5.000000
0.000000
0.000000
0.000000
0.000000
1.573446
2.735377
3.824574
4.806270
5.764361
6.773701
7.875881
9.049584
10.209373
11.230846
11.989569
12.392233
12.390529
11.983192
11.215360
10.175122
8.977951
7.733933
6.508183
5.299177
4.042573
2.685965
1.038942
0.007917
-5.000000
-5.000000
-5.000000
0.000000
0.000000
0.000000
0.000000
1.532919
2.646416
3.655818
4.509338
5.271705
6.004332
6.749700
7.509249
8.242246
8.880855
9.353354
9.603778
9.602143
9.347188
8.865726
8.208500
7.438285
6.608675
5.740243
4.808988
3.750093
2.525893
0.964167
0.008097
-5.000000
-5.000000
-5.000000
0.000000
0.000000
0.000000
0.000000
1.495267
2.567611
3.514065
4.271730
4.892618
5.429811
5.927283
6.402266
6.843746
7.221156
7.498044
7.644169
7.642573
7.492006
7.206281
6.810449
6.332070
5.787576
5.167975
4.433722
3.518789
2.394815
0.901006
0.007768
-5.000000
-5.000000
-5.000000
0.000000
0.000000
0.000000
0.000000
1.454591
2.488212
3.382969
4.070005
4.593492
5.001612
5.339483
5.634051
5.892220
6.105853
6.260040
6.340646
6.339083
6.254126
6.091277
5.859556
5.565105
5.202090
4.743818
4.141271
3.327432
2.279482
0.842474
0.008012
-5.000000
-5.000000
-5.000000
0.000000
0.000000
0.000000
0.000000
1.400946
2.390151
3.235289
3.865849
4.321208
4.646379
4.886606
5.073782
5.224388
5.342534
5.425319
5.467807
5.466297
5.419609
5.328461
5.192828
5.007068
4.753411
4.395936
3.880988
3.141430
2.157894
0.776830
0.007997
-5.000000
-5.000000
-5.000000
0.000000
0.000000
0.000000
0.000000
1.320367
2.248536
3.034660
3.610381
4.011652
4.280628
4.461152
4.586416
4.676920
4.742528
4.786297
4.808026
4.806609
4.780940
4.729318
4.647250
4.523543
4.335239
4.043031
3.592459
2.917587
2.001683
0.688676
0.007783
-5.000000
-5.000000
-5.000000
0.000000
0.000000
0.000000
0.000000
1.195841
2.033618
2.738948
3.249366
3.597377
3.821404
3.961888
4.050355
4.107592
4.145207
4.168585
4.179586
4.178318
4.163789
4.133363
4.080921
3.993636
3.847797
3.604976
3.213284
2.609717
1.780033
0.561370
0.007857
-5.000000
-5.000000
-5.000000
0.000000
0.000000
0.000000
0.000000
1.011343
1.717852
2.310002
2.735108
3.021068
3.200767
3.308807
3.372423
3.410026
3.432452
3.445278
3.450891
3.449837
3.441286
3.422575
3.387712
3.324765
3.212429
3.016698
2.691734
2.179851
1.469199
0.383836
0.007268
-5.000000
-5.000000
-5.000000
0.000000
0.000000
0.000000
0.000000
0.753421
1.278313
1.716787
2.029825
2.238661
2.368099
2.444090
2.487085
2.511020
2.524266
2.531292
2.534141
2.533371
2.528371
2.517019
2.494595
2.451852
2.372454
2.230294
1.989753
1.603328
1.061012
0.159597
0.007118
-5.000000
-5.000000
-5.000000
0.000000
0.000000
0.000000
0.000000
0.443916
0.753136
1.010379
1.193399
1.314870
1.389584
1.432897
1.456886
1.469798
1.476620
1.480054
1.481365
1.480918
1.478358
1.472406
1.460220
1.436268
1.390783
1.308054
1.166231
0.934620
0.602740
0.009907
0.005225
-5.000000
-5.000000
-5.000000
0.000000
0.000000
0.000000
0.000000
0.000000
0.000000
0.000000
0.000000
0.000000
0.000000
0.000000
0.000000
0.000000
0.000000
0.000000
0.000000
0.000000
0.000000
0.000000
0.000000
0.000000
0.000000
0.000000
0.000000
0.000000
0.000000
0.000000
0.000000
-5.000000
-5.000000
-5.000000
0.000000
0.000000
0.000000
0.000000
0.000000
0.000000
0.000000
0.000000
0.000000
0.000000
0.000000
0.000000
0.000000
0.000000
0.000000
0.000000
0.000000
0.000000
0.000000
0.000000
0.000000
0.000000
0.000000
0.000000
0.000000
0.000000
0.000000
0.000000
-5.000000
-5.000000
-5.000000
0.000000
0.000000
0.000000
0.000000
0.000000
0.000000
0.000000
0.000000
0.000000
0.000000
0.000000
0.000000
0.000000
0.000000
0.000000
0.000000
0.000000
0.000000
0.000000
0.000000
0.000000
0.000000
0.000000
0.000000
0.000000
0.000000
0.000000
0.000000
-5.000000
-5.000000
-5.000000
0.000000
0.000000
0.000000
0.000000
0.000000
0.000000
0.000000
0.000000
0.000000
0.000000
0.000000
0.000000
0.000000
0.000000
0.000000
0.000000
0.000000
0.000000
0.000000
0.000000
0.000000
0.000000
0.000000
0.000000
0.000000
0.000000
0.000000
0.000000
-5.000000
-5.000000
-5.000000
</DataArray>
</PointData>
<Cells>
<DataArray type='Int32' Name='connectivity' format='ascii'>
0
1
2
3
4
5
6
7
8
9
10
11
12
13
14
15
16
17
18
19
20
21
22
23
24
25
26
27
28
29
30
31
32
33
34
35
36
37
38
39
40
41
42
43
44
45
46
47
48
49
50
51
52
53
54
55
56
57
58
59
60
61
62
63
64
65
66
67
68
69
70
71
72
73
74
75
76
77
78
79
80
81
82
83
84
85
86
87
88
89
90
91
92
93
94
95
96
97
98
99
100
101
102
103
104
105
106
107
108
109
110
111
112
113
114
115
116
117
118
119
120
121
122
123
124
125
126
127
128
129
130
131
132
133
134
135
136
137
138
139
140
141
142
143
144
145
146
147
148
149
150
151
152
153
154
155
156
157
158
159
160
161
162
163
164
165
166
167
168
169
170
171
172
173
174
175
176
177
178
179
180
181
182
183
184
185
186
187
188
189
190
191
192
193
194
195
196
197
198
199
200
201
202
203
204
205
206
207
208
209
210
211
212
213
214
215
216
217
218
219
220
221
222
223
224
225
226
227
228
229
230
231
232
233
234
235
236
237
238
239
240
241
242
243
244
245
246
247
248
249
250
251
252
253
254
255
256
257
258
259
260
261
262
263
264
265
266
267
268
269
270
271
272
273
274
275
276
277
278
279
280
281
282
283
284
285
286
287
288
289
290
291
292
293
294
295
296
297
298
299
300
301
302
303
304
305
306
307
308
309
310
311
312
313
314
315
316
317
318
319
320
321
322
323
324
325
326
327
328
329
330
331
332
333
334
335
336
337
338
339
340
341
342
343
344
345
346
347
348
349
350
351
352
353
354
355
356
357
358
359
360
361
362
363
364
365
366
367
368
369
370
371
372
373
374
375
376
377
378
379
380
381
382
383
384
385
386
387
388
389
390
391
392
393
394
395
396
397
398
399
400
401
402
403
404
405
406
407
408
409
410
411
412
413
414
415
416
417
418
419
420
421
422
423
424
425
426
427
428
429
430
431
432
433
434
435
436
437
438
439
440
441
442
443
444
445
446
447
448
449
450
451
452
453
454
455
456
457
458
459
460
461
462
463
464
465
466
467
468
469
470
471
472
473
474
475
476
477
478
479
480
481
482
483
484
485
486
487
488
489
490
491
492
493
494
495
496
497
498
499
500
501
502
503
504
505
506
507
508
509
510
511
512
513
514
515
516
517
518
519
520
521
522
523
524
525
526
527
528
529
530
531
532
533
534
535
536
537
538
539
540
541
542
543
544
545
546
547
548
549
550
551
552
553
554
555
556
557
558
559
560
561
562
563
564
565
566
567
568
569
570
571
572
573
574
575
576
577
578
579
580
581
582
583
584
585
586
587
588
589
590
591
592
593
594
595
596
597
598
599
600
601
602
603
604
605
606
607
608
609
610
611
612
613
614
615
616
617
618
619
620
621
622
623
624
625
626
627
628
629
630
631
632
633
634
635
636
637
638
639
640
641
642
643
644
645
646
647
648
649
650
651
652
653
654
655
656
657
658
659
660
661
662
663
664
665
666
667
668
669
670
671
672
673
674
675
676
677
678
679
680
681
682
683
684
685
686
687
688
689
690
691
692
693
694
695
696
697
698
699
700
701
702
703
704
705
706
707
708
709
710
711
712
713
714
715
716
717
718
719
720
721
722
723
724
725
726
727
728
729
730
731
732
733
734
735
736
737
738
739
740
741
742
743
744
745
746
747
748
749
750
751
752
753
754
755