<?xml version='1.0' encoding='UTF-8'?>
<VTKFile xmlns='VTK' byte_order='LittleEndian' version='0.1' type='UnstructuredGrid'>
<UnstructuredGrid>
<Piece NumberOfCells='1488' NumberOfPoints='1488'>
<Points>
<DataArray NumberOfComponents='3' type='Float32' Name='Position' format='ascii'>
-0.075000 -0.075000 0.000000
-0.075000 -0.050000 0.000000
-0.075000 -0.025000 0.000000
-0.075000 0.000000 0.000000
-0.075000 0.025000 0.000000
-0.075000 0.050000 0.000000
-0.075000 0.075000 0.000000
-0.075000 0.100000 0.000000
-0.075000 0.125000 0.000000
-0.075000 0.150000 0.000000
-0.075000 0.175000 0.000000
-0.075000 0.200000 0.000000
-0.075000 0.225000 0.000000
-0.075000 0.250000 0.000000
-0.075000 0.275000 0.000000
-0.075000 0.300000 0.000000
-0.075000 0.325000 0.000000
-0.075000 0.350000 0.000000
-0.075000 0.375000 0.000000
-0.075000 0.400000 0.000000
-0.075000 0.425000 0.000000
-0.075000 0.450000 0.000000
-0.075000 0.475000 0.000000
-0.075000 0.500000 0.000000
-0.075000 0.525000 0.000000
-0.075000 0.550000 0.000000
-0.075000 0.575000 0.000000
-0.075000 0.600000 0.000000
-0.075000 0.625000 0.000000
-0.075000 0.650000 0.000000
-0.075000 0.675000 0.000000
-0.050000 -0.075000 0.000000
-0.050000 -0.050000 0.000000
-0.050000 -0.025000 0.000000
-0.050000 0.000000 0.000000
-0.050000 0.025000 0.000000
-0.050000 0.050000 0.000000
-0.050000 0.075000 0.000000
-0.050000 0.100000 0.000000
-0.050000 0.125000 0.000000
-0.050000 0.150000 0.000000
-0.050000 0.175000 0.000000
-0.050000 0.200000 0.000000
-0.050000 0.225000 0.000000
-0.050000 0.250000 0.000000
-0.050000 0.275000 0.000000
-0.050000 0.300000 0.000000
-0.050000 0.325000 0.000000
-0.050000 0.350000 0.000000
-0.050000 0.375000 0.000000
-0.050000 0.400000 0.000000
-0.050000 0.425000 0.000000
-0.050000 0.450000 0.000000
-0.050000 0.475000 0.000000
-0.050000 0.500000 0.000000
-0.050000 0.525000 0.000000
-0.050000 0.550000 0.000000
-0.050000 0.575000 0.000000
-0.050000 0.600000 0.000000
-0.050000 0.625000 0.000000
-0.050000 0.650000 0.000000
-0.050000 0.675000 0.000000
-0.025000 -0.075000 0.000000
-0.025000 -0.050000 0.000000
-0.025000 -0.025000 0.000000
-0.025000 0.000000 0.000000
-0.025000 0.025000 0.000000
-0.025000 0.050000 0.000000
-0.025000 0.075000 0.000000
-0.025000 0.100000 0.000000
-0.025000 0.125000 0.000000
-0.025000 0.150000 0.000000
-0.025000 0.175000 0.000000
-0.025000 0.200000 0.000000
-0.025000 0.225000 0.000000
-0.025000 0.250000 0.000000
-0.025000 0.275000 0.000000
-0.025000 0.300000 0.000000
-0.025000 0.325000 0.000000
-0.025000 0.350000 0.000000
-0.025000 0.375000 0.000000
-0.025000 0.400000 0.000000
-0.025000 0.425000 0.000000
-0.025000 0.450000 0.000000
-0.025000 0.475000 0.000000
-0.025000 0.500000 0.000000
-0.025000 0.525000 0.000000
-0.025000 0.550000 0.000000
-0.025000 0.575000 0.000000
-0.025000 0.600000 0.000000
-0.025000 0.625000 0.000000
-0.025000 0.650000 0.000000
-0.025000 0.675000 0.000000
0.000000 -0.075000 0.000000
0.000000 -0.050000 0.000000
0.000000 -0.025000 0.000000
0.000000 0.000000 0.000000
0.000000 0.025000 0.000000
0.000000 0.050000 0.000000
0.000000 0.075000 0.000000
0.000000 0.100000 0.000000
0.000000 0.125000 0.000000
0.000000 0.150000 0.000000
0.000000 0.175000 0.000000
0.000000 0.200000 0.000000
0.000000 0.225000 0.000000
0.000000 0.250000 0.000000
0.000000 0.275000 0.000000
0.000000 0.300000 0.000000
0.000000 0.325000 0.000000
0.000000 0.350000 0.000000
0.000000 0.375000 0.000000
0.000000 0.400000 0.000000
0.000000 0.425000 0.000000
0.000000 0.450000 0.000000
0.000000 0.475000 0.000000
0.000000 0.500000 0.000000
0.000000 0.525000 0.000000
0.000000 0.550000 0.000000
0.000000 0.575000 0.000000
0.000000 0.600000 0.000000
0.000000 0.625000 0.000000
0.000000 0.650000 0.000000
0.000000 0.675000 0.000000
0.025000 -0.075000 0.000000
0.025000 -0.050000 0.000000
0.025000 -0.025000 0.000000
0.025000 0.000000 0.000000
0.025000 0.025000 0.000000
0.025000 0.050000 0.000000
0.025000 0.075000 0.000000
0.025000 0.100000 0.000000
0.025000 0.125000 0.000000
0.025000 0.150000 0.000000
0.025000 0.175000 0.000000
0.025000 0.200000 0.000000
0.025000 0.225000 0.000000
0.025000 0.250000 0.000000
0.025000 0.275000 0.000000
0.025000 0.300000 0.000000
0.025000 0.325000 0.000000
0.025000 0.350000 0.000000
0.025000 0.375000 0.000000
0.025000 0.400000 0.000000
0.025000 0.425000 0.000000
0.025000 0.450000 0.000000
0.025000 0.475000 0.000000
0.025000 0.500000 0.000000
0.025000 0.525000 0.000000
0.025000 0.550000 0.000000
0.025000 0.575000 0.000000
0.025000 0.600000 0.000000
0.025000 0.625000 0.000000
0.025000 0.650000 0.000000
0.025000 0.675000 0.000000
0.050000 -0.075000 0.000000
0.050000 -0.050000 0.000000
0.050000 -0.025000 0.000000
0.050000 0.000000 0.000000
0.050000 0.025000 0.000000
0.050000 0.050000 0.000000
0.050000 0.075000 0.000000
0.050000 0.100000 0.000000
0.050000 0.125000 0.000000
0.050000 0.150000 0.000000
0.050000 0.175000 0.000000
0.050000 0.200000 0.000000
0.050000 0.225000 0.000000
0.050000 0.250000 0.000000
0.050000 0.275000 0.000000
0.050000 0.300000 0.000000
0.050000 0.325000 0.000000
0.050000 0.350000 0.000000
0.050000 0.375000 0.000000
0.050000 0.400000 0.000000
0.050000 0.425000 0.000000
0.050000 0.450000 0.000000
0.050000 0.475000 0.000000
0.050000 0.500000 0.000000
0.050000 0.525000 0.000000
0.050000 0.550000 0.000000
0.050000 0.575000 0.000000
0.050000 0.600000 0.000000
0.050000 0.625000 0.000000
0.050000 0.650000 0.000000
0.050000 0.675000 0.000000
0.075000 -0.075000 0.000000
0.075000 -0.050000 0.000000
0.075000 -0.025000 0.000000
0.075000 0.000000 0.000000
0.075000 0.025000 0.000000
0.075000 0.050000 0.000000
0.075000 0.075000 0.000000
0.075000 0.100000 0.000000
0.075000 0.125000 0.000000
0.075000 0.150000 0.000000
0.075000 0.175000 0.000000
0.075000 0.200000 0.000000
0.075000 0.225000 0.000000
0.075000 0.250000 0.000000
0.075000 0.275000 0.000000
0.075000 0.300000 0.000000
0.075000 0.325000 0.000000
0.075000 0.350000 0.000000
0.075000 0.375000 0.000000
0.075000 0.400000 0.000000
0.075000 0.425000 0.000000
0.075000 0.450000 0.000000
0.075000 0.475000 0.000000
0.075000 0.500000 0.000000
0.075000 0.525000 0.000000
0.075000 0.550000 0.000000
0.075000 0.575000 0.000000
0.075000 0.600000 0.000000
0.075000 0.625000 0.000000
0.075000 0.650000 0.000000
0.075000 0.675000 0.000000
0.100000 -0.075000 0.000000
0.100000 -0.050000 0.000000
0.100000 -0.025000 0.000000
0.100000 0.000000 0.000000
0.100000 0.025000 0.000000
0.100000 0.050000 0.000000
0.100000 0.075000 0.000000
0.100000 0.100000 0.000000
0.100000 0.125000 0.000000
0.100000 0.150000 0.000000
0.100000 0.175000 0.000000
0.100000 0.200000 0.000000
0.100000 0.225000 0.000000
0.100000 0.250000 0.000000
0.100000 0.275000 0.000000
0.100000 0.300000 0.000000
0.100000 0.325000 0.000000
0.100000 0.350000 0.000000
0.100000 0.375000 0.000000
0.100000 0.400000 0.000000
0.100000 0.425000 0.000000
0.100000 0.450000 0.000000
0.100000 0.475000 0.000000
0.100000 0.500000 0.000000
0.100000 0.525000 0.000000
0.100000 0.550000 0.000000
0.100000 0.575000 0.000000
0.100000 0.600000 0.000000
0.100000 0.625000 0.000000
0.100000 0.650000 0.000000
0.100000 0.675000 0.000000
0.125000 -0.075000 0.000000
0.125000 -0.050000 0.000000
0.125000 -0.025000 0.000000
0.125000 0.000000 0.000000
0.125000 0.025000 0.000000
0.125000 0.050000 0.000000
0.125000 0.075000 0.000000
0.125000 0.100000 0.000000
0.125000 0.125000 0.000000
0.125000 0.150000 0.000000
0.125000 0.175000 0.000000
0.125000 0.200000 0.000000
0.125000 0.225000 0.000000
0.125000 0.250000 0.000000
0.125000 0.275000 0.000000
0.125000 0.300000 0.000000
0.125000 0.325000 0.000000
0.125000 0.350000 0.000000
0.125000 0.375000 0.000000
0.125000 0.400000 0.000000
0.125000 0.425000 0.000000
0.125000 0.450000 0.000000
0.125000 0.475000 0.000000
0.125000 0.500000 0.000000
0.125000 0.525000 0.000000
0.125000 0.550000 0.000000
0.125000 0.575000 0.000000
0.125000 0.600000 0.000000
0.125000 0.625000 0.000000
0.125000 0.650000 0.000000
0.125000 0.675000 0.000000
0.150000 -0.075000 0.000000
0.150000 -0.050000 0.000000
0.150000 -0.025000 0.000000
0.150000 0.000000 0.000000
0.150000 0.025000 0.000000
0.150000 0.050000 0.000000
0.150000 0.075000 0.000000
0.150000 0.100000 0.000000
0.150000 0.125000 0.000000
0.150000 0.150000 0.000000
0.150000 0.175000 0.000000
0.150000 0.200000 0.000000
0.150000 0.225000 0.000000
0.150000 0.250000 0.000000
0.150000 0.275000 0.000000
0.150000 0.300000 0.000000
0.150000 0.325000 0.000000
0.150000 0.350000 0.000000
0.150000 0.375000 0.000000
0.150000 0.400000 0.000000
0.150000 0.425000 0.000000
0.150000 0.450000 0.000000
0.150000 0.475000 0.000000
0.150000 0.500000 0.000000
0.150000 0.525000 0.000000
0.150000 0.550000 0.000000
0.150000 0.575000 0.000000
0.150000 0.600000 0.000000
0.150000 0.625000 0.000000
0.150000 0.650000 0.000000
0.150000 0.675000 0.000000
0.175000 -0.075000 0.000000
0.175000 -0.050000 0.000000
0.175000 -0.025000 0.000000
0.175000 0.000000 0.000000
0.175000 0.025000 0.000000
0.175000 0.050000 0.000000
0.175000 0.075000 0.000000
0.175000 0.100000 0.000000
0.175000 0.125000 0.000000
0.175000 0.150000 0.000000
0.175000 0.175000 0.000000
0.175000 0.200000 0.000000
0.175000 0.225000 0.000000
0.175000 0.250000 0.000000
0.175000 0.275000 0.000000
0.175000 0.300000 0.000000
0.175000 0.325000 0.000000
0.175000 0.350000 0.000000
0.175000 0.375000 0.000000
0.175000 0.400000 0.000000
0.175000 0.425000 0.000000
0.175000 0.450000 0.000000
0.175000 0.475000 0.000000
0.175000 0.500000 0.000000
0.175000 0.525000 0.000000
0.175000 0.550000 0.000000
0.175000 0.575000 0.000000
0.175000 0.600000 0.000000
0.175000 0.625000 0.000000
0.175000 0.650000 0.000000
0.175000 0.675000 0.000000
0.200000 -0.075000 0.000000
0.200000 -0.050000 0.000000
0.200000 -0.025000 0.000000
0.200000 0.000000 0.000000
0.200000 0.025000 0.000000
0.200000 0.050000 0.000000
0.200000 0.075000 0.000000
0.200000 0.100000 0.000000
0.200000 0.125000 0.000000
0.200000 0.150000 0.000000
0.200000 0.175000 0.000000
0.200000 0.200000 0.000000
0.200000 0.225000 0.000000
0.200000 0.250000 0.000000
[...]
<PointData>
<DataArray NumberOfComponents='1' type='Int32' Name='ParticleType' format='ascii'>
4
4
4
4
4
4
4
4
4
4
4
4
4
4
4
4
4
4
4
4
4
4
4
4
4
4
4
4
2
2
2
4
4
4
4
4
4
4
4
4
4
4
4
4
4
4
4
4
4
4
4
4
4
4
4
4
4
4
4
2
2
2
4
4
3
3
3
3
3
3
3
3
3
3
3
3
3
3
3
3
3
3
3
3
3
3
3
3
3
3
2
2
2
4
4
3
3
3
3
3
3
3
3
3
3
3
3
3
3
3
3
3
3
3
3
3
3
3
3
3
3
2
2
2
4
4
3
3
0
0
0
0
0
0
0
0
0
0
0
0
0
0
0
0
0
0
0
0
0
0
1
1
2
2
2
4
4
3
3
0
0
0
0
0
0
0
0
0
0
0
0
0
0
0
0
0
0
0
0
0
0
1
1
2
2
2
4
4
3
3
0
0
0
0
0
0
0
0
0
0
0
0
0
0
0
0
0
0
0
0
0
0
1
1
2
2
2
4
4
3
3
0
0
0
0
0
0
0
0
0
0
0
0
0
0
0
0
0
0
0
0
0
0
0
1
2
2
2
4
4
3
3
0
0
0
0
0
0
0
0
0
0
0
0
0
0
0
0
0
0
0
0
0
0
0
1
2
2
2
4
4
3
3
0
0
0
0
0
0
0
0
0
0
0
0
0
0
0
0
0
0
0
0
0
0
0
1
2
2
2
4
4
3
3
0
0
0
0
0
0
0
0
0
0
0
0
0
0
0
0
0
0
0
0
0
0
0
1
2
2
2
4
4
3
3
0
0
0
0
0
0
0
0
0
0
0
0
0
0
0
0
0
0
0
0
0
0
0
1
2
2
2
4
4
3
3
0
0
0
0
0
0
0
0
0
0
0
0
0
0
0
0
0
0
0
0
0
0
0
1
2
2
2
4
4
3
3
0
0
0
0
0
0
0
0
0
0
0
0
0
0
0
0
0
0
0
0
0
0
0
1
2
2
2
4
4
3
3
0
0
0
0
0
0
0
0
0
0
0
0
0
0
0
0
0
0
0
0
0
0
0
1
2
2
2
4
4
3
3
0
0
0
0
0
0
0
0
0
0
0
0
0
0
0
0
0
0
0
0
0
0
0
1
2
2
2
4
4
3
3
0
0
0
0
0
0
0
0
0
0
0
0
0
0
0
0
0
0
0
0
0
0
0
1
2
2
2
4
4
3
3
0
0
0
0
0
0
0
0
0
0
0
0
0
0
0
0
0
0
0
0
0
0
0
1
2
2
2
4
4
3
3
0
0
0
0
0
0
0
0
0
0
0
0
0
0
0
0
0
0
0
0
0
0
0
1
2
2
2
4
4
3
3
0
0
0
0
0
0
0
0
0
0
0
0
0
0
0
0
0
0
0
0
0
0
0
1
2
2
2
4
4
3
3
0
0
0
0
0
0
0
0
0
0
0
0
0
0
0
0
0
0
0
0
0
0
0
1
2
2
2
4
4
3
3
0
0
0
0
0
0
0
0
0
0
0
0
0
0
0
0
0
0
0
0
0
0
0
1
2
2
2
4
4
3
3
0
0
0
0
0
0
0
0
0
0
0
0
0
0
0
0
0
0
0
0
0
0
0
1
2
2
2
4
4
3
3
0
0
0
0
0
0
0
0
0
0
0
0
0
0
0
0
0
0
0
0
0
0
0
1
2
2
2
4
4
3
3
0
0
0
0
0
0
0
0
0
0
0
0
0
0
0
0
0
0
0
0
0
0
0
1
2
2
2
4
4
3
3
0
0
0
0
0
0
0
0
0
0
0
0
0
0
0
0
0
0
0
0
0
0
0
1
2
2
2
4
4
3
3
0
0
0
0
0
0
0
0
0
0
0
0
0
0
0
0
0
0
0
0
0
0
0
1
2
2
2
4
4
3
3
0
0
0
0
0
0
0
0
0
0
0
0
0
0
0
0
0
0
0
0
0
0
0
1
2
2
2
4
4
3
3
0
0
0
0
0
0
0
0
0
0
0
0
0
0
0
0
0
0
0
0
0
0
0
1
2
2
2
4
4
3
3
0
0
0
0
0
0
0
0
0
0
0
0
0
0
0
0
0
0
0
0
0
0
0
1
2
2
2
4
4
3
3
0
0
0
0
0
0
0
0
0
0
0
0
0
0
0
0
0
0
0
0
0
0
0
1
2
2
2
4
4
3
3
0
0
0
0
0
0
0
0
0
0
0
0
0
0
0
0
0
0
0
0
0
0
0
1
2
2
2
4
4
3
3
0
0
0
0
0
0
0
0
0
0
0
0
0
0
0
0
0
0
0
0
0
0
0
1
2
2
2
4
4
3
3
0
0
0
0
0
0
0
0
0
0
0
0
0
0
0
0
0
0
0
0
0
0
0
1
2
2
2
4
4
3
3
0
0
0
0
0
0
0
0
0
0
0
0
0
0
0
0
0
0
0
0
0
0
0
1
2
2
2
4
4
3
3
0
0
0
0
0
0
0
0
0
0
0
0
0
0
0
0
0
0
0
0
0
0
0
1
2
2
2
4
4
3
3
0
0
0
0
0
0
0
0
0
0
0
0
0
0
0
0
0
0
0
0
0
0
0
1
2
2
2
4
4
3
3
0
0
0
0
0
0
0
0
0
0
0
0
0
0
0
0
0
0
0
0
0
0
0
1
2
2
2
4
4
3
3
0
0
0
0
0
0
0
0
0
0
0
0
0
0
0
0
0
0
0
0
0
0
0
1
2
2
2
4
4
3
3
0
0
0
0
0
0
0
0
0
0
0
0
0
0
0
0
0
0
0
0
0
0
0
1
2
2
2
4
4
3
3
0
0
0
0
0
0
0
0
0
0
0
0
0
0
0
0
0
0
0
0
0
0
0
1
2
2
2
4
4
3
3
0
0
0
0
0
0
0
0
0
0
0
0
0
0
0
0
0
0
0
0
0
0
1
1
2
2
2
4
4
3
3
0
0
0
0
0
0
0
0
0
0
0
0
0
0
0
0
0
0
0
0
0
0
1
1
2
2
2
4
4
3
3
0
0
0
0
0
0
0
0
0
0
0
0
0
0
0
0
0
0
0
0
0
0
1
1
2
2
2
4
4
3
3
3
3
3
3
3
3
3
3
3
3
3
3
3
3
3
3
3
3
3
3
3
3
3
3
2
2
2
4
4
3
3
3
3
3
3
3
3
3
3
3
3
3
3
3
3
3
3
3
3
3
3
3
3
3
3
2
2
2
4
4
4
4
4
4
4
4
4
4
4
4
4
4
4
4
4
4
4
4
4
4
4
4
4
4
4
4
2
2
2
4
4
4
4
4
4
4
4
4
4
4
4
4
4
4
4
4
4
4
4
4
4
4
4
4
4
4
4
2
2
2
</DataArray>
<DataArray NumberOfComponents='1' type='Float32' Name='Temperature' format='ascii'>
0.000000
0.000000
0.000000
0.000000
0.000000
0.000000
0.000000
0.000000
0.000000
0.000000
0.000000
0.000000
0.000000
0.000000
0.000000
0.000000
0.000000
0.000000
0.000000
0.000000
0.000000
0.000000
0.000000
0.000000
0.000000
0.000000
0.000000
0.000000
-5.000000
-5.000000
-5.000000
0.000000
0.000000
0.000000
0.000000
0.000000
0.000000
0.000000
0.000000
0.000000
0.000000
0.000000
0.000000
0.000000
0.000000
0.000000
0.000000
0.000000
0.000000
0.000000
0.000000
0.000000
0.000000
0.000000
0.000000
0.000000
0.000000
0.000000
0.000000
-5.000000
-5.000000
-5.000000
0.000000
0.000000
0.000000
0.000000
0.000000
0.000000
0.000000
0.000000
0.000000
0.000000
0.000000
0.000000
0.000000
0.000000
0.000000
0.000000
0.000000
0.000000
0.000000
0.000000
0.000000
0.000000
0.000000
0.000000
0.000000
0.000000
0.000000
0.000000
-5.000000
-5.000000
-5.000000
0.000000
0.000000
0.000000
0.000000
0.000000
0.000000
0.000000
0.000000
0.000000
0.000000
0.000000
0.000000
0.000000
0.000000
0.000000
0.000000
0.000000
0.000000
0.000000
0.000000
0.000000
0.000000
0.000000
0.000000
0.000000
0.000000
0.000000
0.000000
-5.000000
-5.000000
-5.000000
0.000000
0.000000
0.000000
0.000000
0.261031
0.456510
0.637640
0.788637
0.910047
1.003578
1.073257
1.123675
1.159067
1.182739
1.196887
1.202637
1.200136
1.188570
1.166059
1.129450
1.074147
0.994162
0.882528
0.732851
0.538853
0.308617
0.009465
0.001788
-5.000000
-5.000000
-5.000000
0.000000
0.000000
0.000000
0.000000
0.457564
0.800093
1.118628
1.385216
1.600930
1.768633
1.895137
1.988140
2.054640
2.099983
2.127613
2.139194
2.134820
2.113077
2.070860
2.003010
1.901968
1.757843
1.559098
1.295181
0.954988
0.556942
0.009562
0.002394
-5.000000
-5.000000
-5.000000
0.000000
0.000000
0.000000
0.000000
0.641906
1.123614
1.573300
1.952279
2.262153
2.506707
2.694941
2.836812
2.941106
3.014227
3.059991
3.079959
3.073851
3.039706
2.973646
2.869308
2.717276
2.505067
2.217990
1.842642
1.364549
0.809235
0.009968
0.003112
-5.000000
-5.000000
-5.000000
0.000000
0.000000
0.000000
0.000000
0.799949
1.402369
1.968202
2.450167
2.850538
3.173636
3.429607
3.629193
3.781254
3.891530
3.962698
3.995109
3.987562
3.937660
3.841524
3.692980
3.482636
3.197594
2.822282
2.342532
1.742939
1.054385
0.100503
0.003348
-5.000000
-5.000000
-5.000000
0.000000
0.000000
0.000000
0.000000
0.934468
1.641797
2.312058
2.891700
3.383958
3.793294
4.129752
4.402973
4.619605
4.782334
4.890548
4.941779
4.933086
4.861735
4.724888
4.518424
4.235443
3.865376
3.394442
2.809827
2.097527
1.291167
0.226285
0.003631
-5.000000
-5.000000
-5.000000
0.000000
0.000000
0.000000
0.000000
1.049942
1.850288
2.617907
3.295393
3.887429
4.398238
4.836304
5.207814
5.514227
5.751987
5.914262
5.993540
5.983976
5.882592
5.688945
5.403417
5.024775
4.548207
3.964880
3.265636
2.439151
1.520255
0.350798
0.004259
-5.000000
-5.000000
-5.000000
0.000000
0.000000
0.000000
0.000000
1.153445
2.040829
2.905313
3.688006
4.395778
5.032272
5.602778
6.107209
6.538140
6.881719
7.121104
7.240842
7.230638
7.087343
6.814612
6.420396
5.913080
5.297801
4.574389
3.739948
2.786817
1.750014
0.475004
0.004467
-5.000000
-5.000000
-5.000000
0.000000
0.000000
0.000000
0.000000
1.252433
2.227009
3.194538
4.096933
4.944226
5.739216
6.482226
7.163665
7.762864
8.250809
8.596059
8.771673
8.761005
8.560791
8.180803
7.640218
6.961737
6.165367
5.263909
4.263700
3.161963
1.993261
0.604791
0.004270
-5.000000
-5.000000
-5.000000
0.000000
0.000000
0.000000
0.000000
1.353191
2.420155
3.502205
4.544209
5.560521
6.552918
7.514946
8.424036
9.241486
9.917702
10.401500
10.650466
10.639455
10.365129
9.845604
9.115347
8.216575
7.189595
6.064886
4.861262
3.582225
2.261384
0.746149
0.004864
-5.000000
-5.000000
-5.000000
0.000000
0.000000
0.000000
0.000000
1.459640
2.627079
3.837762
5.041442
6.258020
7.488162
8.716929
9.905372
10.991978
11.901118
12.556669
12.896718
12.885439
12.519450
11.827442
10.863248
9.693828
8.385230
6.990313
5.543577
4.056193
2.560361
0.902390
0.004739
-5.000000
-5.000000
-5.000000
0.000000
0.000000
0.000000
0.000000
1.572751
2.848934
4.201604
5.586982
7.031617
8.535042
10.072417
11.585504
12.985831
14.166973
15.023325
15.469952
15.458448
14.985403
14.092022
12.855050
11.370751
9.735655
8.029083
6.303984
4.580392
2.888673
1.073012
0.005172
-5.000000
-5.000000
-5.000000
0.000000
0.000000
0.000000
0.000000
1.690611
3.081310
4.585173
6.165965
7.857649
9.658644
11.533264
13.402007
15.146595
16.626533
17.703605
18.267435
18.255731
17.665066
16.550487
15.014089
13.184569
11.192209
9.145586
7.117989
5.139104
3.237171
1.253529
0.005250
-5.000000
-5.000000
-5.000000
0.000000
0.000000
0.000000
0.000000
1.809076
3.315506
4.973016
6.753356
8.698183
10.804810
13.026374
15.261398
17.360792
19.148815
20.453531
21.138267
21.126383
20.414442
19.071805
17.226784
15.041629
12.681541
10.285349
7.947354
5.707172
3.590805
1.436418
0.005004
-5.000000
-5.000000
-5.000000
0.000000
0.000000
0.000000
0.000000
1.922843
3.540632
5.346268
7.319265
9.508692
11.910751
14.467717
17.056836
19.499213
21.585052
23.109825
23.911445
23.899403
23.070256
21.507204
19.363904
16.835035
14.119544
11.385517
8.747594
6.255029
3.931693
1.612678
0.005755
-5.000000
-5.000000
-5.000000
0.000000
0.000000
0.000000
0.000000
2.026618
3.745955
5.686579
7.834989
10.246885
12.917345
15.778706
18.688898
21.442071
23.797662
25.521717
26.429180
26.417008
25.481751
23.719120
21.305674
18.465374
15.427644
12.387028
9.476616
6.754478
4.242643
1.773512
0.005813
-5.000000
-5.000000
-5.000000
0.000000
0.000000
0.000000
0.000000
2.116098
3.922830
5.979358
8.277996
10.879960
13.779224
16.899578
20.082535
23.099441
25.683770
27.576739
28.573906
28.561635
27.536468
25.604688
22.962181
19.857610
16.546115
13.244607
10.101846
7.183483
4.510088
1.911974
0.006136
-5.000000
-5.000000
-5.000000
0.000000
0.000000
0.000000
0.000000
2.188502
4.065749
6.215479
8.634485
11.388245
14.469714
17.795810
21.195024
24.420727
27.185979
29.212481
30.280547
30.268205
29.171992
27.106506
24.282826
20.969025
17.440454
13.931650
10.603787
7.528606
4.725633
2.023700
0.005709
-5.000000
-5.000000
-5.000000
0.000000
0.000000
0.000000
0.000000
2.242586
4.172337
6.391200
8.899137
11.764649
14.979840
18.456537
22.013721
25.391711
28.288782
30.412518
31.532198
31.519811
30.371889
28.209049
25.253368
21.786956
18.099795
14.439211
10.975436
7.784722
4.885913
2.106932
0.006354
-5.000000
-5.000000
-5.000000
0.000000
0.000000
0.000000
0.000000
2.278246
4.242512
6.506661
9.072640
12.010850
15.312785
18.886943
22.546164
26.022383
29.004402
31.190762
32.343676
32.331263
31.150052
28.924515
25.883770
22.318913
18.529300
14.770466
11.218486
7.952560
4.991144
2.161648
0.006228
-5.000000
-5.000000
-5.000000
0.000000
0.000000
0.000000
0.000000
2.295907
4.277227
6.563693
9.158193
12.132039
15.476405
19.098153
22.807128
26.331194
29.354561
31.571390
32.740470
32.728046
31.530644
29.274604
26.192453
22.579642
18.740067
14.933247
11.338106
8.035293
5.043086
2.188689
0.006351
-5.000000
-5.000000
-5.000000
0.000000
0.000000
0.000000
0.000000
2.295949
4.277302
6.563797
9.158318
12.132175
15.476539
19.098270
22.807218
26.331250
29.354584
31.571385
32.740450
32.728026
31.530638
29.274625
26.192508
22.579730
18.740181
14.933375
11.338234
8.035406
5.043172
2.188739
0.006352
-5.000000
-5.000000
-5.000000
0.000000
0.000000
0.000000
0.000000
2.278371
4.242730
6.506960
9.072994
12.011224
15.313137
18.887229
22.546348
26.022447
29.004347
31.190612
32.343474
32.331061
31.149901
28.924458
25.883830
22.319092
18.529576
14.770802
11.218835
7.952877
4.991387
2.161794
0.006233
-5.000000
-5.000000
-5.000000
0.000000
0.000000
0.000000
0.000000
2.242783
4.172676
6.391656
8.899660
11.765170
14.980278
18.456811
22.013766
25.391496
28.288318
30.411858
31.531430
31.519042
30.371227
28.208582
25.253149
21.786993
18.100054
14.439624
10.975916
7.785183
4.886279
2.107157
0.006366
-5.000000
-5.000000
-5.000000
0.000000
0.000000
0.000000
0.000000
2.188755
4.066178
6.216039
8.635092
11.388788
14.470060
17.795831
21.194621
24.419857
27.184668
29.210826
30.278705
30.266363
29.170336
27.105190
24.281949
20.968610
17.440454
13.931961
10.604275
7.529132
4.726075
2.023981
0.005731
-5.000000
-5.000000
-5.000000
0.000000
0.000000
0.000000
0.000000
2.116392
3.923317
5.979970
8.278606
10.880405
13.779313
16.899127
20.081405
23.097577
25.681224
27.573665
28.570545
28.558272
27.533391
25.602136
22.960309
19.856466
16.545637
13.244653
10.102224
7.183994
4.510558
1.912287
0.006173
-5.000000
-5.000000
-5.000000
0.000000
0.000000
0.000000
0.000000
2.026937
3.746474
5.687202
7.835548
10.247160
12.917085
15.777670
18.686910
21.439064
23.793713
25.517044
26.424114
26.411942
25.477075
23.715166
21.302657
18.463368
15.426578
12.386718
9.476813
6.754921
4.243106
1.773839
0.005861
-5.000000
-5.000000
-5.000000
0.000000
0.000000
0.000000
0.000000
1.923179
3.541170
5.346887
7.319762
9.508802
11.910172
14.466160
17.054090
19.495206
21.579882
23.103765
23.904901
23.892859
23.064193
21.502028
19.359885
16.832269
14.117952
11.384882
8.747617
6.255399
3.932138
1.613010
0.005828
-5.000000
-5.000000
-5.000000
0.000000
0.000000
0.000000
0.000000
1.809428
3.316061
4.973645
6.753833
8.698215
10.804067
13.024538
15.258239
17.356232
19.142967
20.446697
21.130899
21.119013
20.407605
19.065950
17.222210
15.038446
12.679665
10.284543
7.947291
5.707512
3.591247
1.436757
0.005090
-5.000000
-5.000000
-5.000000
0.000000
0.000000
0.000000
0.000000
1.690978
3.081894
4.585843
6.166494
7.857745
9.657974
11.531511
13.398938
15.142133
16.620787
17.696876
18.260173
18.248468
17.658333
16.544732
15.009610
13.181474
11.190412
9.144847
7.117982
5.139488
3.237644
1.253885
0.005324
-5.000000
-5.000000
-5.000000
0.000000
0.000000
0.000000
0.000000
1.573137
2.849559
4.202350
5.587643
7.031925
8.534692
10.071117
11.583040
12.982125
14.162120
15.017591
15.463740
15.452234
14.979663
14.087157
12.851325
11.368255
9.734306
8.028657
6.304182
4.580898
2.889213
1.073397
0.005238
-5.000000
-5.000000
-5.000000
0.000000
0.000000
0.000000
0.000000
1.460044
2.627749
3.838604
5.042285
6.258641
7.488305
8.716347
9.903882
10.989506
11.897732
12.552578
12.892242
12.880961
12.515351
11.824041
10.860751
9.692300
8.384591
6.990372
5.544079
4.056875
2.560990
0.902812
0.004803
-5.000000
-5.000000
-5.000000
0.000000
0.000000
0.000000
0.000000
1.353606
2.420861
3.503138
4.545237
5.561477
6.553605
7.515172
8.423654
9.240428
9.916004
10.399304
10.647997
10.636983
10.362923
9.843887
9.114257
8.216147
7.189754
6.065480
4.862091
3.583086
2.262099
0.746603
0.004903
-5.000000
-5.000000
-5.000000
0.000000
0.000000
0.000000
0.000000
1.252846
2.227726
3.195523
4.098097
4.945454
5.740370
6.483169
7.164283
7.763097
8.250664
8.595614
8.771060
8.760388
8.560332
8.180633
7.640411
6.962298
6.166231
5.264958
4.264792
3.162956
1.994031
0.605265
0.004320
-5.000000
-5.000000
-5.000000
0.000000
0.000000
0.000000
0.000000
1.153833
2.041516
2.906284
3.689211
4.397148
5.033719
5.604210
6.108544
6.539323
6.882736
7.121981
7.241637
7.231428
7.088203
6.815599
6.421531
5.914346
5.299141
4.575719
3.741174
2.787852
1.750786
0.475478
0.004534
-5.000000
-5.000000
-5.000000
0.000000
0.000000
0.000000
0.000000
1.050277
1.850892
2.618784
3.296522
3.888778
4.399757
4.837936
5.209502
5.515924
5.753665
5.915910
5.995166
5.985595
5.884218
5.690585
5.405057
5.026383
4.549735
3.966270
3.266834
2.440115
1.520961
0.351245
0.004390
-5.000000
-5.000000
-5.000000
0.000000
0.000000
0.000000
0.000000
0.934724
1.642267
2.312759
2.892637
3.385123
3.794668
4.131303
4.404663
4.621394
4.784187
4.892436
4.943679
4.934978
4.863598
4.726697
4.520147
4.237043
3.866813
3.395679
2.810841
2.098309
1.291731
0.226659
0.003946
-5.000000
-5.000000
-5.000000
0.000000
0.000000
0.000000
0.000000
0.800104
1.402665
1.968667
2.450822
2.851396
3.174698
3.430859
3.630610
3.782806
3.893180
3.964411
3.996849
3.989293
3.939346
3.843127
3.694461
3.483958
3.198727
2.823207
2.343246
1.743457
1.054742
0.100746
0.003893
-5.000000
-5.000000
-5.000000
0.000000
0.000000
0.000000
0.000000
0.641957
1.123729
1.573512
1.952620
2.262651
2.507375
2.695777
2.837804
2.942228
3.015449
3.061280
3.081277
3.075160
3.040968
2.974822
2.870361
2.718175
2.505791
2.218532
1.843015
1.364784
0.809370
0.009963
0.002861
-5.000000
-5.000000
-5.000000
0.000000
0.000000
0.000000
0.000000
0.457535
0.800065
1.118633
1.385291
1.601106
1.768929
1.895561
1.988684
2.055288
2.100713
2.128397
2.140002
2.135621
2.113837
2.071549
2.003598
1.902433
1.758172
1.559295
1.295265
0.955003
0.556907
0.009811
0.002472
-5.000000
-5.000000
-5.000000
0.000000
0.000000
0.000000
0.000000
0.260969
0.456417
0.637540
0.788562
0.910023
1.003623
1.073377
1.123870
1.159328
1.183051
1.197234
1.202999
1.200493
1.188901
1.166343
1.129670
1.074289
0.994220
0.882510
0.732775
0.538757
0.308499
0.009524
-0.000515
-5.000000
-5.000000
-5.000000
0.000000
0.000000
0.000000
0.000000
0.000000
0.000000
0.000000
0.000000
0.000000
0.000000
0.000000
0.000000
0.000000
0.000000
0.000000
0.000000
0.000000
0.000000
0.000000
0.000000
0.000000
0.000000
0.000000
0.000000
0.000000
0.000000
0.000000
0.000000
-5.000000
-5.000000
-5.000000
0.000000
0.000000
0.000000
0.000000
0.000000
0.000000
0.000000
0.000000
0.000000
0.000000
0.000000
0.000000
0.000000
0.000000
0.000000
0.000000
0.000000
0.000000
0.000000
0.000000
0.000000
0.000000
0.000000
0.000000
0.000000
0.000000
0.000000
0.000000
-5.000000
-5.000000
-5.000000
0.000000
0.000000
0.000000
0.000000
0.000000
0.000000
0.000000
0.000000
0.000000
0.000000
0.000000
0.000000
0.000000
0.000000
0.000000
0.000000
0.000000
0.000000
0.000000
0.000000
0.000000
0.000000
0.000000
0.000000
0.000000
0.000000
0.000000
0.000000
-5.000000
-5.000000
-5.000000
0.000000
0.000000
0.000000
0.000000
0.000000
0.000000
0.000000
0.000000
0.000000
0.000000
0.000000
0.000000
0.000000
0.000000
0.000000
0.000000
0.000000
0.000000
0.000000
0.000000
0.000000
0.000000
0.000000
0.000000
0.000000
0.000000
0.000000
0.000000
-5.000000
-5.000000
-5.000000
</DataArray>
</PointData>
<Cells>
<DataArray type='Int32' Name='connectivity' format='ascii'>
0
1
2
3
4
5
6
7
8
9
10
11
12
13
14
15
16
17
18
19
20
21
22
23
24
25
26
27
28
29
30
31
32
33
34
35
36
37
38
39
40
41
42
43
44
45
46
47
48
49
50
51
52
53
54
55
56
57
58
59
60
61
62
63
64
65
66
67
68
69
70
71
72
73
74
75
76
77
78
79
80
81
82
83
84
85
86
87
88
89
90
91
92
93
94
95
96
97
98
99
100
101
102
103
104
105
106
107
108
109
110
111
112
113
114
115
116
117
118
119
120
121
122
123
124
125
126
127
128
129
130
131
132
133
134
135
136
137
138
139
140
141
142
143
144
145
146
147
148
149
150
151
152
153
154
155
156
157
158
159
160
161
162
163
164
165
166
167
168
169
170
171
172
173
174
175
176
177
178
179
180
181
182
183
184
185
186
187
188
189
190
191
192
193
194
195
196
197
198
199
200
201
202
203
204
205
206
207
208
209
210
211
212
213
214
215
216
217
218
219
220
221
222
223
224
225
226
227
228
229
230
231
232
233
234
235
236
237
238
239
240
241
242
243
244
245
246
247
248
249
250
251
252
253
254
255
256
257
258
259
260
261
262
263
264
265
266
267
268
269
270
271
272
273
274
275
276
277
278
279
280
281
282
283
284
285
286
287
288
289
290
291
292
293
294
295
296
297
298
299
300
301
302
303
304
305
306
307
308
309
310
311
312
313
314
315
316
317
318
319
320
321
322
323
324
325
326
327
328
329
330
331
332
333
334
335
336
337
338
339
340
341
342
343
344
345
346
347
348
349
350
351
352
353
354
355
356
357
358
359
360
361
362
363
364
365
366
367
368
369
370
371
372
373
374
375
376
377
378
379
380
381
382
383
384
385
386
387
388
389
390
391
392
393
394
395
396
397
398
399
400
401
402
403
404
405
406
407
408
409
410
411
412
413
414
415
416
417
418
419
420
421
422
423
424
425
426
427
428
429
430
431
432
433
434
435
436
437
438
439
440
441
442
443
444
445
446
447
448
449
450
451
452
453
454
455
456
457
458
459
460
461
462
463
464
465
466
467
468
469
470
471
472
473
474
475
476
477
478
479
480
481
482
483
484
485
486
487
488
489
490
491
492
493
494
495
496
497
498
499
500
501
502
503
504
505
506
507
508
509
510
511
512
513
514
515
516
517
518
519
520
521
522
523
524
525
526
527
528
529
530
531
532
533
534
535
536
537
538
539
540
541
542
543
544
545
546
547
548
549
550
551
552
553
554
555
556
557
558
559
560
561
562
563
564
565
566
567
568
569
570
571
572
573
574
575
576
577
578
579
580
581
582
583
584
585
586
587
588
589
590
591
592
593
594
595
596
597
598
599
600
601
602
603
604
605
606
607
608
609
610
611
612
613
614
615
616
617
618
619
620
621
622
623
624
625
626
627
628
629
630
631
632
633
634
635
636
637
638
639
640
641
642
643
644
645
646
647
648
649
650
651
652
653
654
655
656
657
658
659
660
661
662
663
664
665
666
667
668
669
670
671
672
673
674
675
676
677
678
679
680
681
682
683
684
685
686
687
688
689
690
691
692
693
694
695
696
697
698
699
700
701
702
703
704
705
706
707
708
709
710
711
712
713
714
715
716
717
718
719
720
721
722
723
724
725
726
727
728
729
730
731
732
733
734
735
736
737
738
739
740
741
742
743
744
745
746
747