<?xml version='1.0' encoding='UTF-8'?>
<VTKFile xmlns='VTK' byte_order='LittleEndian' version='0.1' type='UnstructuredGrid'>
<UnstructuredGrid>
<Piece NumberOfCells='1488' NumberOfPoints='1488'>
<Points>
<DataArray NumberOfComponents='3' type='Float32' Name='Position' format='ascii'>
-0.075000 -0.075000 0.000000
-0.075000 -0.050000 0.000000
-0.075000 -0.025000 0.000000
-0.075000 0.000000 0.000000
-0.075000 0.025000 0.000000
-0.075000 0.050000 0.000000
-0.075000 0.075000 0.000000
-0.075000 0.100000 0.000000
-0.075000 0.125000 0.000000
-0.075000 0.150000 0.000000
-0.075000 0.175000 0.000000
-0.075000 0.200000 0.000000
-0.075000 0.225000 0.000000
-0.075000 0.250000 0.000000
-0.075000 0.275000 0.000000
-0.075000 0.300000 0.000000
-0.075000 0.325000 0.000000
-0.075000 0.350000 0.000000
-0.075000 0.375000 0.000000
-0.075000 0.400000 0.000000
-0.075000 0.425000 0.000000
-0.075000 0.450000 0.000000
-0.075000 0.475000 0.000000
-0.075000 0.500000 0.000000
-0.075000 0.525000 0.000000
-0.075000 0.550000 0.000000
-0.075000 0.575000 0.000000
-0.075000 0.600000 0.000000
-0.075000 0.625000 0.000000
-0.075000 0.650000 0.000000
-0.075000 0.675000 0.000000
-0.050000 -0.075000 0.000000
-0.050000 -0.050000 0.000000
-0.050000 -0.025000 0.000000
-0.050000 0.000000 0.000000
-0.050000 0.025000 0.000000
-0.050000 0.050000 0.000000
-0.050000 0.075000 0.000000
-0.050000 0.100000 0.000000
-0.050000 0.125000 0.000000
-0.050000 0.150000 0.000000
-0.050000 0.175000 0.000000
-0.050000 0.200000 0.000000
-0.050000 0.225000 0.000000
-0.050000 0.250000 0.000000
-0.050000 0.275000 0.000000
-0.050000 0.300000 0.000000
-0.050000 0.325000 0.000000
-0.050000 0.350000 0.000000
-0.050000 0.375000 0.000000
-0.050000 0.400000 0.000000
-0.050000 0.425000 0.000000
-0.050000 0.450000 0.000000
-0.050000 0.475000 0.000000
-0.050000 0.500000 0.000000
-0.050000 0.525000 0.000000
-0.050000 0.550000 0.000000
-0.050000 0.575000 0.000000
-0.050000 0.600000 0.000000
-0.050000 0.625000 0.000000
-0.050000 0.650000 0.000000
-0.050000 0.675000 0.000000
-0.025000 -0.075000 0.000000
-0.025000 -0.050000 0.000000
-0.025000 -0.025000 0.000000
-0.025000 0.000000 0.000000
-0.025000 0.025000 0.000000
-0.025000 0.050000 0.000000
-0.025000 0.075000 0.000000
-0.025000 0.100000 0.000000
-0.025000 0.125000 0.000000
-0.025000 0.150000 0.000000
-0.025000 0.175000 0.000000
-0.025000 0.200000 0.000000
-0.025000 0.225000 0.000000
-0.025000 0.250000 0.000000
-0.025000 0.275000 0.000000
-0.025000 0.300000 0.000000
-0.025000 0.325000 0.000000
-0.025000 0.350000 0.000000
-0.025000 0.375000 0.000000
-0.025000 0.400000 0.000000
-0.025000 0.425000 0.000000
-0.025000 0.450000 0.000000
-0.025000 0.475000 0.000000
-0.025000 0.500000 0.000000
-0.025000 0.525000 0.000000
-0.025000 0.550000 0.000000
-0.025000 0.575000 0.000000
-0.025000 0.600000 0.000000
-0.025000 0.625000 0.000000
-0.025000 0.650000 0.000000
-0.025000 0.675000 0.000000
0.000000 -0.075000 0.000000
0.000000 -0.050000 0.000000
0.000000 -0.025000 0.000000
0.000000 0.000000 0.000000
0.000000 0.025000 0.000000
0.000000 0.050000 0.000000
0.000000 0.075000 0.000000
0.000000 0.100000 0.000000
0.000000 0.125000 0.000000
0.000000 0.150000 0.000000
0.000000 0.175000 0.000000
0.000000 0.200000 0.000000
0.000000 0.225000 0.000000
0.000000 0.250000 0.000000
0.000000 0.275000 0.000000
0.000000 0.300000 0.000000
0.000000 0.325000 0.000000
0.000000 0.350000 0.000000
0.000000 0.375000 0.000000
0.000000 0.400000 0.000000
0.000000 0.425000 0.000000
0.000000 0.450000 0.000000
0.000000 0.475000 0.000000
0.000000 0.500000 0.000000
0.000000 0.525000 0.000000
0.000000 0.550000 0.000000
0.000000 0.575000 0.000000
0.000000 0.600000 0.000000
0.000000 0.625000 0.000000
0.000000 0.650000 0.000000
0.000000 0.675000 0.000000
0.025000 -0.075000 0.000000
0.025000 -0.050000 0.000000
0.025000 -0.025000 0.000000
0.025000 0.000000 0.000000
0.025000 0.025000 0.000000
0.025000 0.050000 0.000000
0.025000 0.075000 0.000000
0.025000 0.100000 0.000000
0.025000 0.125000 0.000000
0.025000 0.150000 0.000000
0.025000 0.175000 0.000000
0.025000 0.200000 0.000000
0.025000 0.225000 0.000000
0.025000 0.250000 0.000000
0.025000 0.275000 0.000000
0.025000 0.300000 0.000000
0.025000 0.325000 0.000000
0.025000 0.350000 0.000000
0.025000 0.375000 0.000000
0.025000 0.400000 0.000000
0.025000 0.425000 0.000000
0.025000 0.450000 0.000000
0.025000 0.475000 0.000000
0.025000 0.500000 0.000000
0.025000 0.525000 0.000000
0.025000 0.550000 0.000000
0.025000 0.575000 0.000000
0.025000 0.600000 0.000000
0.025000 0.625000 0.000000
0.025000 0.650000 0.000000
0.025000 0.675000 0.000000
0.050000 -0.075000 0.000000
0.050000 -0.050000 0.000000
0.050000 -0.025000 0.000000
0.050000 0.000000 0.000000
0.050000 0.025000 0.000000
0.050000 0.050000 0.000000
0.050000 0.075000 0.000000
0.050000 0.100000 0.000000
0.050000 0.125000 0.000000
0.050000 0.150000 0.000000
0.050000 0.175000 0.000000
0.050000 0.200000 0.000000
0.050000 0.225000 0.000000
0.050000 0.250000 0.000000
0.050000 0.275000 0.000000
0.050000 0.300000 0.000000
0.050000 0.325000 0.000000
0.050000 0.350000 0.000000
0.050000 0.375000 0.000000
0.050000 0.400000 0.000000
0.050000 0.425000 0.000000
0.050000 0.450000 0.000000
0.050000 0.475000 0.000000
0.050000 0.500000 0.000000
0.050000 0.525000 0.000000
0.050000 0.550000 0.000000
0.050000 0.575000 0.000000
0.050000 0.600000 0.000000
0.050000 0.625000 0.000000
0.050000 0.650000 0.000000
0.050000 0.675000 0.000000
0.075000 -0.075000 0.000000
0.075000 -0.050000 0.000000
0.075000 -0.025000 0.000000
0.075000 0.000000 0.000000
0.075000 0.025000 0.000000
0.075000 0.050000 0.000000
0.075000 0.075000 0.000000
0.075000 0.100000 0.000000
0.075000 0.125000 0.000000
0.075000 0.150000 0.000000
0.075000 0.175000 0.000000
0.075000 0.200000 0.000000
0.075000 0.225000 0.000000
0.075000 0.250000 0.000000
0.075000 0.275000 0.000000
0.075000 0.300000 0.000000
0.075000 0.325000 0.000000
0.075000 0.350000 0.000000
0.075000 0.375000 0.000000
0.075000 0.400000 0.000000
0.075000 0.425000 0.000000
0.075000 0.450000 0.000000
0.075000 0.475000 0.000000
0.075000 0.500000 0.000000
0.075000 0.525000 0.000000
0.075000 0.550000 0.000000
0.075000 0.575000 0.000000
0.075000 0.600000 0.000000
0.075000 0.625000 0.000000
0.075000 0.650000 0.000000
0.075000 0.675000 0.000000
0.100000 -0.075000 0.000000
0.100000 -0.050000 0.000000
0.100000 -0.025000 0.000000
0.100000 0.000000 0.000000
0.100000 0.025000 0.000000
0.100000 0.050000 0.000000
0.100000 0.075000 0.000000
0.100000 0.100000 0.000000
0.100000 0.125000 0.000000
0.100000 0.150000 0.000000
0.100000 0.175000 0.000000
0.100000 0.200000 0.000000
0.100000 0.225000 0.000000
0.100000 0.250000 0.000000
0.100000 0.275000 0.000000
0.100000 0.300000 0.000000
0.100000 0.325000 0.000000
0.100000 0.350000 0.000000
0.100000 0.375000 0.000000
0.100000 0.400000 0.000000
0.100000 0.425000 0.000000
0.100000 0.450000 0.000000
0.100000 0.475000 0.000000
0.100000 0.500000 0.000000
0.100000 0.525000 0.000000
0.100000 0.550000 0.000000
0.100000 0.575000 0.000000
0.100000 0.600000 0.000000
0.100000 0.625000 0.000000
0.100000 0.650000 0.000000
0.100000 0.675000 0.000000
0.125000 -0.075000 0.000000
0.125000 -0.050000 0.000000
0.125000 -0.025000 0.000000
0.125000 0.000000 0.000000
0.125000 0.025000 0.000000
0.125000 0.050000 0.000000
0.125000 0.075000 0.000000
0.125000 0.100000 0.000000
0.125000 0.125000 0.000000
0.125000 0.150000 0.000000
0.125000 0.175000 0.000000
0.125000 0.200000 0.000000
0.125000 0.225000 0.000000
0.125000 0.250000 0.000000
0.125000 0.275000 0.000000
0.125000 0.300000 0.000000
0.125000 0.325000 0.000000
0.125000 0.350000 0.000000
0.125000 0.375000 0.000000
0.125000 0.400000 0.000000
0.125000 0.425000 0.000000
0.125000 0.450000 0.000000
0.125000 0.475000 0.000000
0.125000 0.500000 0.000000
0.125000 0.525000 0.000000
0.125000 0.550000 0.000000
0.125000 0.575000 0.000000
0.125000 0.600000 0.000000
0.125000 0.625000 0.000000
0.125000 0.650000 0.000000
0.125000 0.675000 0.000000
0.150000 -0.075000 0.000000
0.150000 -0.050000 0.000000
0.150000 -0.025000 0.000000
0.150000 0.000000 0.000000
0.150000 0.025000 0.000000
0.150000 0.050000 0.000000
0.150000 0.075000 0.000000
0.150000 0.100000 0.000000
0.150000 0.125000 0.000000
0.150000 0.150000 0.000000
0.150000 0.175000 0.000000
0.150000 0.200000 0.000000
0.150000 0.225000 0.000000
0.150000 0.250000 0.000000
0.150000 0.275000 0.000000
0.150000 0.300000 0.000000
0.150000 0.325000 0.000000
0.150000 0.350000 0.000000
0.150000 0.375000 0.000000
0.150000 0.400000 0.000000
0.150000 0.425000 0.000000
0.150000 0.450000 0.000000
0.150000 0.475000 0.000000
0.150000 0.500000 0.000000
0.150000 0.525000 0.000000
0.150000 0.550000 0.000000
0.150000 0.575000 0.000000
0.150000 0.600000 0.000000
0.150000 0.625000 0.000000
0.150000 0.650000 0.000000
0.150000 0.675000 0.000000
0.175000 -0.075000 0.000000
0.175000 -0.050000 0.000000
0.175000 -0.025000 0.000000
0.175000 0.000000 0.000000
0.175000 0.025000 0.000000
0.175000 0.050000 0.000000
0.175000 0.075000 0.000000
0.175000 0.100000 0.000000
0.175000 0.125000 0.000000
0.175000 0.150000 0.000000
0.175000 0.175000 0.000000
0.175000 0.200000 0.000000
0.175000 0.225000 0.000000
0.175000 0.250000 0.000000
0.175000 0.275000 0.000000
0.175000 0.300000 0.000000
0.175000 0.325000 0.000000
0.175000 0.350000 0.000000
0.175000 0.375000 0.000000
0.175000 0.400000 0.000000
0.175000 0.425000 0.000000
0.175000 0.450000 0.000000
0.175000 0.475000 0.000000
0.175000 0.500000 0.000000
0.175000 0.525000 0.000000
0.175000 0.550000 0.000000
0.175000 0.575000 0.000000
0.175000 0.600000 0.000000
0.175000 0.625000 0.000000
0.175000 0.650000 0.000000
0.175000 0.675000 0.000000
0.200000 -0.075000 0.000000
0.200000 -0.050000 0.000000
0.200000 -0.025000 0.000000
0.200000 0.000000 0.000000
0.200000 0.025000 0.000000
0.200000 0.050000 0.000000
0.200000 0.075000 0.000000
0.200000 0.100000 0.000000
0.200000 0.125000 0.000000
0.200000 0.150000 0.000000
0.200000 0.175000 0.000000
0.200000 0.200000 0.000000
0.200000 0.225000 0.000000
0.200000 0.250000 0.000000
[...]
<PointData>
<DataArray NumberOfComponents='1' type='Int32' Name='ParticleType' format='ascii'>
4
4
4
4
4
4
4
4
4
4
4
4
4
4
4
4
4
4
4
4
4
4
4
4
4
4
4
4
2
2
2
4
4
4
4
4
4
4
4
4
4
4
4
4
4
4
4
4
4
4
4
4
4
4
4
4
4
4
4
2
2
2
4
4
3
3
3
3
3
3
3
3
3
3
3
3
3
3
3
3
3
3
3
3
3
3
3
3
3
3
2
2
2
4
4
3
3
3
3
3
3
3
3
3
3
3
3
3
3
3
3
3
3
3
3
3
3
3
3
3
3
2
2
2
4
4
3
3
0
0
0
0
0
0
0
0
0
0
0
0
0
0
0
0
0
0
0
0
0
0
1
2
2
2
2
4
4
3
3
0
0
0
0
0
0
0
0
0
0
0
0
0
0
0
0
0
0
0
0
0
0
1
2
2
2
2
4
4
3
3
0
0
0
0
0
0
0
0
0
0
0
0
0
0
0
0
0
0
0
0
0
0
1
2
2
2
2
4
4
3
3
0
0
0
0
0
0
0
0
0
0
0
0
0
0
0
0
0
0
0
0
0
0
1
2
2
2
2
4
4
3
3
0
0
0
0
0
0
0
0
0
0
0
0
0
0
0
0
0
0
0
0
0
0
1
2
2
2
2
4
4
3
3
0
0
0
0
0
0
0
0
0
0
0
0
0
0
0
0
0
0
0
0
0
0
0
1
2
2
2
4
4
3
3
0
0
0
0
0
0
0
0
0
0
0
0
0
0
0
0
0
0
0
0
0
0
0
1
2
2
2
4
4
3
3
0
0
0
0
0
0
0
0
0
0
0
0
0
0
0
0
0
0
0
0
0
0
0
1
2
2
2
4
4
3
3
0
0
0
0
0
0
0
0
0
0
0
0
0
0
0
0
0
0
0
0
0
0
0
1
2
2
2
4
4
3
3
0
0
0
0
0
0
0
0
0
0
0
0
0
0
0
0
0
0
0
0
0
0
0
1
2
2
2
4
4
3
3
0
0
0
0
0
0
0
0
0
0
0
0
0
0
0
0
0
0
0
0
0
0
0
1
2
2
2
4
4
3
3
0
0
0
0
0
0
0
0
0
0
0
0
0
0
0
0
0
0
0
0
0
0
0
1
2
2
2
4
4
3
3
0
0
0
0
0
0
0
0
0
0
0
0
0
0
0
0
0
0
0
0
0
0
0
1
2
2
2
4
4
3
3
0
0
0
0
0
0
0
0
0
0
0
0
0
0
0
0
0
0
0
0
0
0
0
1
2
2
2
4
4
3
3
0
0
0
0
0
0
0
0
0
0
0
0
0
0
0
0
0
0
0
0
0
0
0
1
2
2
2
4
4
3
3
0
0
0
0
0
0
0
0
0
0
0
0
0
0
0
0
0
0
0
0
0
0
0
1
2
2
2
4
4
3
3
0
0
0
0
0
0
0
0
0
0
0
0
0
0
0
0
0
0
0
0
0
0
0
1
2
2
2
4
4
3
3
0
0
0
0
0
0
0
0
0
0
0
0
0
0
0
0
0
0
0
0
0
0
0
1
2
2
2
4
4
3
3
0
0
0
0
0
0
0
0
0
0
0
0
0
0
0
0
0
0
0
0
0
0
0
1
2
2
2
4
4
3
3
0
0
0
0
0
0
0
0
0
0
0
0
0
0
0
0
0
0
0
0
0
0
0
1
2
2
2
4
4
3
3
0
0
0
0
0
0
0
0
0
0
0
0
0
0
0
0
0
0
0
0
0
0
0
1
2
2
2
4
4
3
3
0
0
0
0
0
0
0
0
0
0
0
0
0
0
0
0
0
0
0
0
0
0
0
1
2
2
2
4
4
3
3
0
0
0
0
0
0
0
0
0
0
0
0
0
0
0
0
0
0
0
0
0
0
0
1
2
2
2
4
4
3
3
0
0
0
0
0
0
0
0
0
0
0
0
0
0
0
0
0
0
0
0
0
0
0
1
2
2
2
4
4
3
3
0
0
0
0
0
0
0
0
0
0
0
0
0
0
0
0
0
0
0
0
0
0
0
1
2
2
2
4
4
3
3
0
0
0
0
0
0
0
0
0
0
0
0
0
0
0
0
0
0
0
0
0
0
0
1
2
2
2
4
4
3
3
0
0
0
0
0
0
0
0
0
0
0
0
0
0
0
0
0
0
0
0
0
0
0
1
2
2
2
4
4
3
3
0
0
0
0
0
0
0
0
0
0
0
0
0
0
0
0
0
0
0
0
0
0
0
1
2
2
2
4
4
3
3
0
0
0
0
0
0
0
0
0
0
0
0
0
0
0
0
0
0
0
0
0
0
0
1
2
2
2
4
4
3
3
0
0
0
0
0
0
0
0
0
0
0
0
0
0
0
0
0
0
0
0
0
0
0
1
2
2
2
4
4
3
3
0
0
0
0
0
0
0
0
0
0
0
0
0
0
0
0
0
0
0
0
0
0
0
1
2
2
2
4
4
3
3
0
0
0
0
0
0
0
0
0
0
0
0
0
0
0
0
0
0
0
0
0
0
0
1
2
2
2
4
4
3
3
0
0
0
0
0
0
0
0
0
0
0
0
0
0
0
0
0
0
0
0
0
0
0
1
2
2
2
4
4
3
3
0
0
0
0
0
0
0
0
0
0
0
0
0
0
0
0
0
0
0
0
0
0
0
1
2
2
2
4
4
3
3
0
0
0
0
0
0
0
0
0
0
0
0
0
0
0
0
0
0
0
0
0
0
0
1
2
2
2
4
4
3
3
0
0
0
0
0
0
0
0
0
0
0
0
0
0
0
0
0
0
0
0
0
0
1
2
2
2
2
4
4
3
3
0
0
0
0
0
0
0
0
0
0
0
0
0
0
0
0
0
0
0
0
0
0
1
2
2
2
2
4
4
3
3
0
0
0
0
0
0
0
0
0
0
0
0
0
0
0
0
0
0
0
0
0
0
1
2
2
2
2
4
4
3
3
0
0
0
0
0
0
0
0
0
0
0
0
0
0
0
0
0
0
0
0
0
0
1
2
2
2
2
4
4
3
3
0
0
0
0
0
0
0
0
0
0
0
0
0
0
0
0
0
0
0
0
0
0
1
2
2
2
2
4
4
3
3
3
3
3
3
3
3
3
3
3
3
3
3
3
3
3
3
3
3
3
3
3
3
3
3
2
2
2
4
4
3
3
3
3
3
3
3
3
3
3
3
3
3
3
3
3
3
3
3
3
3
3
3
3
3
3
2
2
2
4
4
4
4
4
4
4
4
4
4
4
4
4
4
4
4
4
4
4
4
4
4
4
4
4
4
4
4
2
2
2
4
4
4
4
4
4
4
4
4
4
4
4
4
4
4
4
4
4
4
4
4
4
4
4
4
4
4
4
2
2
2
</DataArray>
<DataArray NumberOfComponents='1' type='Float32' Name='Temperature' format='ascii'>
0.000000
0.000000
0.000000
0.000000
0.000000
0.000000
0.000000
0.000000
0.000000
0.000000
0.000000
0.000000
0.000000
0.000000
0.000000
0.000000
0.000000
0.000000
0.000000
0.000000
0.000000
0.000000
0.000000
0.000000
0.000000
0.000000
0.000000
0.000000
-5.000000
-5.000000
-5.000000
0.000000
0.000000
0.000000
0.000000
0.000000
0.000000
0.000000
0.000000
0.000000
0.000000
0.000000
0.000000
0.000000
0.000000
0.000000
0.000000
0.000000
0.000000
0.000000
0.000000
0.000000
0.000000
0.000000
0.000000
0.000000
0.000000
0.000000
0.000000
-5.000000
-5.000000
-5.000000
0.000000
0.000000
0.000000
0.000000
0.000000
0.000000
0.000000
0.000000
0.000000
0.000000
0.000000
0.000000
0.000000
0.000000
0.000000
0.000000
0.000000
0.000000
0.000000
0.000000
0.000000
0.000000
0.000000
0.000000
0.000000
0.000000
0.000000
0.000000
-5.000000
-5.000000
-5.000000
0.000000
0.000000
0.000000
0.000000
0.000000
0.000000
0.000000
0.000000
0.000000
0.000000
0.000000
0.000000
0.000000
0.000000
0.000000
0.000000
0.000000
0.000000
0.000000
0.000000
0.000000
0.000000
0.000000
0.000000
0.000000
0.000000
0.000000
0.000000
-5.000000
-5.000000
-5.000000
0.000000
0.000000
0.000000
0.000000
0.173336
0.309456
0.445274
0.571625
0.687721
0.791797
0.882645
0.959249
1.020737
1.066307
1.095199
1.106687
1.100106
1.074875
1.030524
0.966713
0.883223
0.779824
0.655898
0.507864
0.333637
0.063336
0.007933
-2.115395
-5.000000
-5.000000
-5.000000
0.000000
0.000000
0.000000
0.000000
0.312424
0.557642
0.802996
1.031787
1.242676
1.432412
1.598680
1.739439
1.852872
1.937281
1.991069
2.012770
2.001104
1.955044
1.873862
1.757150
1.604804
1.416818
1.192763
0.928219
0.621782
0.181656
0.008305
-2.340828
-5.000000
-5.000000
-5.000000
0.000000
0.000000
0.000000
0.000000
0.456503
0.815445
1.175475
1.512501
1.824618
2.106945
2.355781
2.567678
2.739426
2.867976
2.950491
2.984457
2.967831
2.899151
2.777616
2.603087
2.376032
2.097279
1.767418
1.383374
0.943690
0.362736
0.009153
-2.390441
-5.000000
-5.000000
-5.000000
0.000000
0.000000
0.000000
0.000000
0.599198
1.071381
1.546654
1.993848
2.410578
2.790205
3.127303
3.416516
3.652642
3.830665
3.945957
3.994563
3.973478
3.880859
3.716113
3.479861
3.173793
2.800351
2.362056
1.859003
1.289319
0.591526
0.009586
-2.298379
-5.000000
-5.000000
-5.000000
0.000000
0.000000
0.000000
0.000000
0.742584
1.329373
1.922524
2.484121
3.011382
3.495723
3.929554
4.304966
4.613996
4.848867
5.002459
5.068853
5.043832
4.925214
4.712966
4.409075
4.017236
3.542395
2.989935
2.364228
1.664278
0.867078
0.009714
-2.035836
-5.000000
-5.000000
-5.000000
0.000000
0.000000
0.000000
0.000000
0.887806
1.591582
2.306484
2.988165
3.633542
4.231862
4.772853
5.245292
5.637547
5.938152
6.136661
6.224581
6.196171
6.048961
5.783873
5.404952
4.918799
4.333836
3.659266
2.904475
2.072845
1.178265
0.046548
-0.009059
-5.000000
-5.000000
-5.000000
0.000000
0.000000
0.000000
0.000000
1.036359
1.860765
2.702685
3.511622
4.284293
5.007518
5.667767
6.249663
6.736912
7.113324
7.364212
7.477822
7.446549
7.267672
6.943491
6.480857
5.890235
5.184546
4.377748
3.484655
2.513170
1.503848
0.291255
-0.008519
-5.000000
-5.000000
-5.000000
0.000000
0.000000
0.000000
0.000000
1.189440
2.139081
3.114289
4.058649
4.968775
5.828792
6.621308
7.325929
7.920660
8.383528
8.694647
8.838295
8.804632
8.590722
8.200668
7.644881
6.938659
6.100446
5.149836
4.107217
2.985878
1.833312
0.495598
-0.008051
-5.000000
-5.000000
-5.000000
0.000000
0.000000
0.000000
0.000000
1.347595
2.427459
3.542539
4.630682
5.688497
6.697142
7.634790
8.475190
9.189652
9.749390
10.128397
10.306292
10.270647
10.018329
9.555647
8.897286
8.064295
7.081599
5.975264
4.771503
3.488709
2.175843
0.685914
-0.006022
-5.000000
-5.000000
-5.000000
0.000000
0.000000
0.000000
0.000000
1.510396
2.725011
3.985895
5.225311
6.439944
7.607752
8.701959
9.689722
10.534776
11.200613
11.654286
11.870146
11.832852
11.539096
10.997737
10.228359
9.258560
8.120590
6.847711
5.472366
4.017904
2.534717
0.884030
-0.005420
-5.000000
-5.000000
-5.000000
0.000000
0.000000
0.000000
0.000000
1.676263
3.028724
4.439602
5.835724
7.213922
8.548775
9.808168
10.952089
11.936018
12.715013
13.248550
13.505232
13.466558
13.129053
12.504398
11.617557
10.503294
9.201835
7.754215
6.199488
4.566103
2.905835
1.088510
-0.003785
-5.000000
-5.000000
-5.000000
0.000000
0.000000
0.000000
0.000000
1.842478
3.333486
4.895742
6.450819
7.995744
9.501622
10.930768
12.235652
13.363076
14.259229
14.875616
15.174798
15.134957
14.752463
14.041985
13.034165
11.771317
10.302040
8.675491
6.937580
5.121969
3.281793
1.295473
-0.002843
-5.000000
-5.000000
-5.000000
0.000000
0.000000
0.000000
0.000000
2.005366
3.632434
5.343785
7.055971
8.766248
10.442257
12.040695
13.506436
14.777496
15.791080
16.490620
16.832558
16.791723
16.364336
15.568110
14.439447
13.028311
11.391775
9.587191
7.667356
5.671130
3.652976
1.499705
-0.002485
-5.000000
-5.000000
-5.000000
0.000000
0.000000
0.000000
0.000000
2.160621
3.917559
5.771503
7.634302
9.503452
11.343253
13.104947
14.726019
16.135929
17.263131
18.043192
18.426597
18.384912
17.914222
17.035205
15.789886
14.235681
12.437907
10.461883
8.367084
6.197389
4.008525
1.695322
-0.000570
-5.000000
-5.000000
-5.000000
0.000000
0.000000
0.000000
0.000000
2.303702
4.180437
6.166077
8.168191
10.184506
12.176218
14.089484
15.854887
17.393899
18.626800
19.481812
19.903853
19.861447
19.350552
18.394623
17.040936
15.353868
13.406433
11.271381
9.014411
6.684060
4.337231
1.876107
0.000117
-5.000000
-5.000000
-5.000000
0.000000
0.000000
0.000000
0.000000
2.430218
4.412941
6.515183
8.640753
10.787588
12.914127
14.961998
16.855636
18.509393
19.836267
20.757936
21.214360
21.171353
20.624762
19.600517
18.150572
16.345505
14.265189
11.988985
9.588131
7.115305
4.628433
2.036224
0.001099
-5.000000
-5.000000
-5.000000
0.000000
0.000000
0.000000
0.000000
2.536257
4.607838
6.807876
9.037037
11.293437
13.533197
15.694133
17.695508
19.445686
20.851538
21.829236
22.314573
22.271083
21.694519
20.612895
19.082099
17.177924
14.986007
12.591273
10.069613
7.477183
4.872772
2.170532
0.000878
-5.000000
-5.000000
-5.000000
0.000000
0.000000
0.000000
0.000000
2.618596
4.759184
7.035182
9.344818
11.686347
14.014086
16.262888
18.347994
20.173111
21.640347
22.661597
23.169413
23.125558
22.525713
21.399510
19.805893
17.824710
15.546077
13.059243
10.443716
7.758355
5.062621
2.274925
0.002098
-5.000000
-5.000000
-5.000000
0.000000
0.000000
0.000000
0.000000
2.674814
4.862519
7.190381
9.554963
11.954616
14.342422
16.651213
18.793482
20.669758
22.178900
23.229881
23.753044
23.708944
23.093212
21.936584
20.300090
18.266342
15.928513
13.378801
10.699185
7.950370
5.192279
2.346214
0.002116
-5.000000
-5.000000
-5.000000
0.000000
0.000000
0.000000
0.000000
2.703317
4.914908
7.269057
9.661486
12.090589
14.508826
16.848002
19.019222
20.921405
22.451766
23.517801
24.048735
24.004511
23.380737
22.208705
20.550500
18.490133
16.122323
13.540761
10.828676
8.047705
5.258009
2.382361
0.002384
-5.000000
-5.000000
-5.000000
0.000000
0.000000
0.000000
0.000000
2.703316
4.914901
7.269037
9.661441
12.090508
14.508697
16.847818
19.018978
20.921103
22.451414
23.517412
24.048326
24.004102
23.380346
22.208349
20.550193
18.489882
16.122130
13.540622
10.828582
8.047648
5.257978
2.382347
0.002386
-5.000000
-5.000000
-5.000000
0.000000
0.000000
0.000000
0.000000
2.674812
4.862499
7.190318
9.554826
11.954368
14.342033
16.650656
18.792748
20.668851
22.177842
23.228712
23.751815
23.707712
23.092037
21.935516
20.299167
18.265586
15.927930
13.378379
10.698902
7.950195
5.192185
2.346174
0.002123
-5.000000
-5.000000
-5.000000
0.000000
0.000000
0.000000
0.000000
2.618589
4.759146
7.035071
9.344581
11.685927
14.013429
16.261954
18.346765
20.171595
21.638582
22.659647
23.167363
23.123504
22.523753
21.397727
19.804352
17.823447
15.545100
13.058533
10.443237
7.758059
5.062461
2.274858
0.002115
-5.000000
-5.000000
-5.000000
0.000000
0.000000
0.000000
0.000000
2.536243
4.607778
6.807713
9.036697
11.292843
13.532274
15.692826
17.693794
19.443575
20.849082
21.826525
22.311725
22.268230
21.691795
20.610416
19.079953
17.176162
14.984640
12.590278
10.068940
7.476765
4.872546
2.170438
0.000911
-5.000000
-5.000000
-5.000000
0.000000
0.000000
0.000000
0.000000
2.430197
4.412858
6.514969
8.640316
10.786830
12.912957
14.960348
16.853475
18.506736
19.833179
20.754528
21.210781
21.167768
20.621337
19.597399
18.147871
16.343285
14.263464
11.987726
9.587276
7.114773
4.628145
2.036107
0.001154
-5.000000
-5.000000
-5.000000
0.000000
0.000000
0.000000
0.000000
2.303675
4.180338
6.165824
8.167678
10.183618
12.174850
14.087556
15.852363
17.390797
18.623195
19.477835
19.899675
19.857262
19.346554
18.390983
17.037781
15.351273
13.404417
11.269909
9.013410
6.683438
4.336896
1.875974
0.000190
-5.000000
-5.000000
-5.000000
0.000000
0.000000
0.000000
0.000000
2.160596
3.917459
5.771236
7.633752
9.502493
11.341767
13.102848
14.723265
16.132539
17.259188
18.038840
18.422024
18.380331
17.909846
17.031222
15.786436
14.232846
12.435706
10.460278
8.365997
6.196716
4.008168
1.695188
-0.000453
-5.000000
-5.000000
-5.000000
0.000000
0.000000
0.000000
0.000000
2.005353
3.632351
5.343539
7.055438
8.765295
10.440761
12.038562
13.503624
14.774023
15.787032
16.486145
16.827852
16.787008
16.359834
15.564015
14.435906
13.025409
11.389530
9.585563
7.666261
5.670461
3.652628
1.499582
-0.002342
-5.000000
-5.000000
-5.000000
0.000000
0.000000
0.000000
0.000000
1.842488
3.333444
4.895555
6.450362
7.994885
9.500236
10.928759
12.232976
13.359748
14.255333
14.871298
15.170251
15.130400
14.748114
14.038038
13.030762
11.768541
10.299907
8.673960
6.936565
5.121364
3.281491
1.295377
-0.002715
-5.000000
-5.000000
-5.000000
0.000000
0.000000
0.000000
0.000000
1.676305
3.028744
4.439509
5.835400
7.213239
8.547610
9.806430
10.949731
11.933053
12.711516
13.244656
13.501123
13.462438
13.125126
12.500845
11.614509
10.500827
9.199961
7.752894
6.198637
4.565621
2.905619
1.088463
-0.003664
-5.000000
-5.000000
-5.000000
0.000000
0.000000
0.000000
0.000000
1.510476
2.725104
3.985920
5.225159
6.439496
7.606894
8.700606
9.687827
10.532347
11.197714
11.651034
11.866701
11.829395
11.535807
10.994775
10.225839
9.256546
8.119089
6.846686
5.471750
4.017614
2.534656
0.884092
-0.005299
-5.000000
-5.000000
-5.000000
0.000000
0.000000
0.000000
0.000000
1.347713
2.427627
3.542688
4.630716
5.688310
6.696635
7.633884
8.473840
9.187860
9.747207
10.125918
10.303650
10.267991
10.015810
9.553395
8.895395
8.062812
7.080529
5.974581
4.771184
3.488753
2.176205
0.686379
-0.005943
-5.000000
-5.000000
-5.000000
0.000000
0.000000
0.000000
0.000000
1.189589
2.139313
3.114548
4.058854
4.968839
5.828628
6.620849
7.325134
7.919524
8.382087
8.692973
8.836490
8.802813
8.589005
8.199151
7.643633
6.937710
6.099794
5.149484
4.107265
2.986664
1.835023
0.497543
-0.007946
-5.000000
-5.000000
-5.000000
0.000000
0.000000
0.000000
0.000000
1.036526
1.861037
2.703021
3.511958
4.284558
5.007645
5.667698
6.249363
6.736370
7.112562
7.363280
7.476792
7.445504
7.266693
6.942645
6.480184
5.889742
5.184225
4.377636
3.485129
2.515237
1.509453
0.301881
-0.008350
-5.000000
-5.000000
-5.000000
0.000000
0.000000
0.000000
0.000000
0.887974
1.591865
2.306853
2.988574
3.633939
4.232194
4.773075
5.245373
5.637476
5.937937
6.136332
6.224183
6.195757
6.048581
5.783563
5.404722
4.918626
4.333683
3.659196
2.905238
2.076022
1.191956
0.076685
-0.009595
-5.000000
-5.000000
-5.000000
0.000000
0.000000
0.000000
0.000000
0.742738
1.329637
1.922881
2.484540
3.011827
3.496157
3.929945
4.305290
4.614238
4.849028
5.002552
5.068902
5.043864
4.925253
4.713020
4.409123
4.017213
3.542205
2.989587
2.364604
1.667691
0.886473
0.009886
-2.025667
-5.000000
-5.000000
-5.000000
0.000000
0.000000
0.000000
0.000000
0.599324
1.071601
1.546959
1.994220
2.410997
2.790647
3.127746
3.416941
3.653037
3.831024
3.946284
3.994863
3.973761
3.881129
3.716356
3.480029
3.173770
2.799944
2.361098
1.858096
1.290368
0.607318
0.009636
-2.291297
-5.000000
-5.000000
-5.000000
0.000000
0.000000
0.000000
0.000000
0.456593
0.815605
1.175703
1.512788
1.824954
2.107319
2.356180
2.568088
2.739837
2.868380
2.950883
2.984837
2.968194
2.899490
2.777904
2.603255
2.375926
2.096606
1.765770
1.380690
0.940779
0.366737
0.009110
-2.386611
-5.000000
-5.000000
-5.000000
0.000000
0.000000
0.000000
0.000000
0.312478
0.557738
0.803137
1.031972
1.242901
1.432672
1.598969
1.739750
1.853197
1.937613
1.991402
2.013096
2.001418
1.955332
1.874094
1.757258
1.604630
1.416039
1.190843
0.924557
0.616574
0.176556
0.008477
-2.339336
-5.000000
-5.000000
-5.000000
0.000000
0.000000
0.000000
0.000000
0.173359
0.309499
0.445339
0.571714
0.687834
0.791933
0.882803
0.959425
1.020926
1.066505
1.095400
1.106887
1.100298
1.075049
1.030658
0.966757
0.883066
0.779221
0.654417
0.504856
0.329000
0.057280
0.007830
-2.115064
-5.000000
-5.000000
-5.000000
0.000000
0.000000
0.000000
0.000000
0.000000
0.000000
0.000000
0.000000
0.000000
0.000000
0.000000
0.000000
0.000000
0.000000
0.000000
0.000000
0.000000
0.000000
0.000000
0.000000
0.000000
0.000000
0.000000
0.000000
0.000000
0.000000
0.000000
0.000000
-5.000000
-5.000000
-5.000000
0.000000
0.000000
0.000000
0.000000
0.000000
0.000000
0.000000
0.000000
0.000000
0.000000
0.000000
0.000000
0.000000
0.000000
0.000000
0.000000
0.000000
0.000000
0.000000
0.000000
0.000000
0.000000
0.000000
0.000000
0.000000
0.000000
0.000000
0.000000
-5.000000
-5.000000
-5.000000
0.000000
0.000000
0.000000
0.000000
0.000000
0.000000
0.000000
0.000000
0.000000
0.000000
0.000000
0.000000
0.000000
0.000000
0.000000
0.000000
0.000000
0.000000
0.000000
0.000000
0.000000
0.000000
0.000000
0.000000
0.000000
0.000000
0.000000
0.000000
-5.000000
-5.000000
-5.000000
0.000000
0.000000
0.000000
0.000000
0.000000
0.000000
0.000000
0.000000
0.000000
0.000000
0.000000
0.000000
0.000000
0.000000
0.000000
0.000000
0.000000
0.000000
0.000000
0.000000
0.000000
0.000000
0.000000
0.000000
0.000000
0.000000
0.000000
0.000000
-5.000000
-5.000000
-5.000000
</DataArray>
</PointData>
<Cells>
<DataArray type='Int32' Name='connectivity' format='ascii'>
0
1
2
3
4
5
6
7
8
9
10
11
12
13
14
15
16
17
18
19
20
21
22
23
24
25
26
27
28
29
30
31
32
33
34
35
36
37
38
39
40
41
42
43
44
45
46
47
48
49
50
51
52
53
54
55
56
57
58
59
60
61
62
63
64
65
66
67
68
69
70
71
72
73
74
75
76
77
78
79
80
81
82
83
84
85
86
87
88
89
90
91
92
93
94
95
96
97
98
99
100
101
102
103
104
105
106
107
108
109
110
111
112
113
114
115
116
117
118
119
120
121
122
123
124
125
126
127
128
129
130
131
132
133
134
135
136
137
138
139
140
141
142
143
144
145
146
147
148
149
150
151
152
153
154
155
156
157
158
159
160
161
162
163
164
165
166
167
168
169
170
171
172
173
174
175
176
177
178
179
180
181
182
183
184
185
186
187
188
189
190
191
192
193
194
195
196
197
198
199
200
201
202
203
204
205
206
207
208
209
210
211
212
213
214
215
216
217
218
219
220
221
222
223
224
225
226
227
228
229
230
231
232
233
234
235
236
237
238
239
240
241
242
243
244
245
246
247
248
249
250
251
252
253
254
255
256
257
258
259
260
261
262
263
264
265
266
267
268
269
270
271
272
273
274
275
276
277
278
279
280
281
282
283
284
285
286
287
288
289
290
291
292
293
294
295
296
297
298
299
300
301
302
303
304
305
306
307
308
309
310
311
312
313
314
315
316
317
318
319
320
321
322
323
324
325
326
327
328
329
330
331
332
333
334
335
336
337
338
339
340
341
342
343
344
345
346
347
348
349
350
351
352
353
354
355
356
357
358
359
360
361
362
363
364
365
366
367
368
369
370
371
372
373
374
375
376
377
378
379
380
381
382
383
384
385
386
387
388
389
390
391
392
393
394
395
396
397
398
399
400
401
402
403
404
405
406
407
408
409
410
411
412
413
414
415
416
417
418
419
420
421
422
423
424
425
426
427
428
429
430
431
432
433
434
435
436
437
438
439
440
441
442
443
444
445
446
447
448
449
450
451
452
453
454
455
456
457
458
459
460
461
462
463
464
465
466
467
468
469
470
471
472
473
474
475
476
477
478
479
480
481
482
483
484
485
486
487
488
489
490
491
492
493
494
495
496
497
498
499
500
501
502
503
504
505
506
507
508
509
510
511
512
513
514
515
516
517
518
519
520
521
522
523
524
525
526
527
528
529
530
531
532
533
534
535
536
537
538
539
540
541
542
543
544
545
546
547
548
549
550
551
552
553
554
555
556
557
558
559
560
561
562
563
564
565
566
567
568
569
570
571
572
573
574
575
576
577
578
579
580
581
582
583
584
585
586
587
588
589
590
591
592
593
594
595
596
597
598
599
600
601
602
603
604
605
606
607
608
609
610
611
612
613
614
615
616
617
618
619
620
621
622
623
624
625
626
627
628
629
630
631
632
633
634
635
636
637
638
639
640
641
642
643
644
645
646
647
648
649
650
651
652
653
654
655
656
657
658
659
660
661
662
663
664
665
666
667
668
669
670
671
672
673
674
675
676
677
678
679
680
681
682
683
684
685
686
687
688
689
690
691
692
693
694
695
696
697
698
699
700
701
702
703
704
705
706
707
708
709
710
711
712
713
714
715
716
717
718
719
720
721
722
723
724
725
726
727
728
729
730
731
732
733
734
735
736
737
738
739
740
741
742