<?xml version='1.0' encoding='UTF-8'?>
<VTKFile xmlns='VTK' byte_order='LittleEndian' version='0.1' type='UnstructuredGrid'>
<UnstructuredGrid>
<Piece NumberOfCells='1488' NumberOfPoints='1488'>
<Points>
<DataArray NumberOfComponents='3' type='Float32' Name='Position' format='ascii'>
-0.075000 -0.075000 0.000000
-0.075000 -0.050000 0.000000
-0.075000 -0.025000 0.000000
-0.075000 0.000000 0.000000
-0.075000 0.025000 0.000000
-0.075000 0.050000 0.000000
-0.075000 0.075000 0.000000
-0.075000 0.100000 0.000000
-0.075000 0.125000 0.000000
-0.075000 0.150000 0.000000
-0.075000 0.175000 0.000000
-0.075000 0.200000 0.000000
-0.075000 0.225000 0.000000
-0.075000 0.250000 0.000000
-0.075000 0.275000 0.000000
-0.075000 0.300000 0.000000
-0.075000 0.325000 0.000000
-0.075000 0.350000 0.000000
-0.075000 0.375000 0.000000
-0.075000 0.400000 0.000000
-0.075000 0.425000 0.000000
-0.075000 0.450000 0.000000
-0.075000 0.475000 0.000000
-0.075000 0.500000 0.000000
-0.075000 0.525000 0.000000
-0.075000 0.550000 0.000000
-0.075000 0.575000 0.000000
-0.075000 0.600000 0.000000
-0.075000 0.625000 0.000000
-0.075000 0.650000 0.000000
-0.075000 0.675000 0.000000
-0.050000 -0.075000 0.000000
-0.050000 -0.050000 0.000000
-0.050000 -0.025000 0.000000
-0.050000 0.000000 0.000000
-0.050000 0.025000 0.000000
-0.050000 0.050000 0.000000
-0.050000 0.075000 0.000000
-0.050000 0.100000 0.000000
-0.050000 0.125000 0.000000
-0.050000 0.150000 0.000000
-0.050000 0.175000 0.000000
-0.050000 0.200000 0.000000
-0.050000 0.225000 0.000000
-0.050000 0.250000 0.000000
-0.050000 0.275000 0.000000
-0.050000 0.300000 0.000000
-0.050000 0.325000 0.000000
-0.050000 0.350000 0.000000
-0.050000 0.375000 0.000000
-0.050000 0.400000 0.000000
-0.050000 0.425000 0.000000
-0.050000 0.450000 0.000000
-0.050000 0.475000 0.000000
-0.050000 0.500000 0.000000
-0.050000 0.525000 0.000000
-0.050000 0.550000 0.000000
-0.050000 0.575000 0.000000
-0.050000 0.600000 0.000000
-0.050000 0.625000 0.000000
-0.050000 0.650000 0.000000
-0.050000 0.675000 0.000000
-0.025000 -0.075000 0.000000
-0.025000 -0.050000 0.000000
-0.025000 -0.025000 0.000000
-0.025000 0.000000 0.000000
-0.025000 0.025000 0.000000
-0.025000 0.050000 0.000000
-0.025000 0.075000 0.000000
-0.025000 0.100000 0.000000
-0.025000 0.125000 0.000000
-0.025000 0.150000 0.000000
-0.025000 0.175000 0.000000
-0.025000 0.200000 0.000000
-0.025000 0.225000 0.000000
-0.025000 0.250000 0.000000
-0.025000 0.275000 0.000000
-0.025000 0.300000 0.000000
-0.025000 0.325000 0.000000
-0.025000 0.350000 0.000000
-0.025000 0.375000 0.000000
-0.025000 0.400000 0.000000
-0.025000 0.425000 0.000000
-0.025000 0.450000 0.000000
-0.025000 0.475000 0.000000
-0.025000 0.500000 0.000000
-0.025000 0.525000 0.000000
-0.025000 0.550000 0.000000
-0.025000 0.575000 0.000000
-0.025000 0.600000 0.000000
-0.025000 0.625000 0.000000
-0.025000 0.650000 0.000000
-0.025000 0.675000 0.000000
0.000000 -0.075000 0.000000
0.000000 -0.050000 0.000000
0.000000 -0.025000 0.000000
0.000000 0.000000 0.000000
0.000000 0.025000 0.000000
0.000000 0.050000 0.000000
0.000000 0.075000 0.000000
0.000000 0.100000 0.000000
0.000000 0.125000 0.000000
0.000000 0.150000 0.000000
0.000000 0.175000 0.000000
0.000000 0.200000 0.000000
0.000000 0.225000 0.000000
0.000000 0.250000 0.000000
0.000000 0.275000 0.000000
0.000000 0.300000 0.000000
0.000000 0.325000 0.000000
0.000000 0.350000 0.000000
0.000000 0.375000 0.000000
0.000000 0.400000 0.000000
0.000000 0.425000 0.000000
0.000000 0.450000 0.000000
0.000000 0.475000 0.000000
0.000000 0.500000 0.000000
0.000000 0.525000 0.000000
0.000000 0.550000 0.000000
0.000000 0.575000 0.000000
0.000000 0.600000 0.000000
0.000000 0.625000 0.000000
0.000000 0.650000 0.000000
0.000000 0.675000 0.000000
0.025000 -0.075000 0.000000
0.025000 -0.050000 0.000000
0.025000 -0.025000 0.000000
0.025000 0.000000 0.000000
0.025000 0.025000 0.000000
0.025000 0.050000 0.000000
0.025000 0.075000 0.000000
0.025000 0.100000 0.000000
0.025000 0.125000 0.000000
0.025000 0.150000 0.000000
0.025000 0.175000 0.000000
0.025000 0.200000 0.000000
0.025000 0.225000 0.000000
0.025000 0.250000 0.000000
0.025000 0.275000 0.000000
0.025000 0.300000 0.000000
0.025000 0.325000 0.000000
0.025000 0.350000 0.000000
0.025000 0.375000 0.000000
0.025000 0.400000 0.000000
0.025000 0.425000 0.000000
0.025000 0.450000 0.000000
0.025000 0.475000 0.000000
0.025000 0.500000 0.000000
0.025000 0.525000 0.000000
0.025000 0.550000 0.000000
0.025000 0.575000 0.000000
0.025000 0.600000 0.000000
0.025000 0.625000 0.000000
0.025000 0.650000 0.000000
0.025000 0.675000 0.000000
0.050000 -0.075000 0.000000
0.050000 -0.050000 0.000000
0.050000 -0.025000 0.000000
0.050000 0.000000 0.000000
0.050000 0.025000 0.000000
0.050000 0.050000 0.000000
0.050000 0.075000 0.000000
0.050000 0.100000 0.000000
0.050000 0.125000 0.000000
0.050000 0.150000 0.000000
0.050000 0.175000 0.000000
0.050000 0.200000 0.000000
0.050000 0.225000 0.000000
0.050000 0.250000 0.000000
0.050000 0.275000 0.000000
0.050000 0.300000 0.000000
0.050000 0.325000 0.000000
0.050000 0.350000 0.000000
0.050000 0.375000 0.000000
0.050000 0.400000 0.000000
0.050000 0.425000 0.000000
0.050000 0.450000 0.000000
0.050000 0.475000 0.000000
0.050000 0.500000 0.000000
0.050000 0.525000 0.000000
0.050000 0.550000 0.000000
0.050000 0.575000 0.000000
0.050000 0.600000 0.000000
0.050000 0.625000 0.000000
0.050000 0.650000 0.000000
0.050000 0.675000 0.000000
0.075000 -0.075000 0.000000
0.075000 -0.050000 0.000000
0.075000 -0.025000 0.000000
0.075000 0.000000 0.000000
0.075000 0.025000 0.000000
0.075000 0.050000 0.000000
0.075000 0.075000 0.000000
0.075000 0.100000 0.000000
0.075000 0.125000 0.000000
0.075000 0.150000 0.000000
0.075000 0.175000 0.000000
0.075000 0.200000 0.000000
0.075000 0.225000 0.000000
0.075000 0.250000 0.000000
0.075000 0.275000 0.000000
0.075000 0.300000 0.000000
0.075000 0.325000 0.000000
0.075000 0.350000 0.000000
0.075000 0.375000 0.000000
0.075000 0.400000 0.000000
0.075000 0.425000 0.000000
0.075000 0.450000 0.000000
0.075000 0.475000 0.000000
0.075000 0.500000 0.000000
0.075000 0.525000 0.000000
0.075000 0.550000 0.000000
0.075000 0.575000 0.000000
0.075000 0.600000 0.000000
0.075000 0.625000 0.000000
0.075000 0.650000 0.000000
0.075000 0.675000 0.000000
0.100000 -0.075000 0.000000
0.100000 -0.050000 0.000000
0.100000 -0.025000 0.000000
0.100000 0.000000 0.000000
0.100000 0.025000 0.000000
0.100000 0.050000 0.000000
0.100000 0.075000 0.000000
0.100000 0.100000 0.000000
0.100000 0.125000 0.000000
0.100000 0.150000 0.000000
0.100000 0.175000 0.000000
0.100000 0.200000 0.000000
0.100000 0.225000 0.000000
0.100000 0.250000 0.000000
0.100000 0.275000 0.000000
0.100000 0.300000 0.000000
0.100000 0.325000 0.000000
0.100000 0.350000 0.000000
0.100000 0.375000 0.000000
0.100000 0.400000 0.000000
0.100000 0.425000 0.000000
0.100000 0.450000 0.000000
0.100000 0.475000 0.000000
0.100000 0.500000 0.000000
0.100000 0.525000 0.000000
0.100000 0.550000 0.000000
0.100000 0.575000 0.000000
0.100000 0.600000 0.000000
0.100000 0.625000 0.000000
0.100000 0.650000 0.000000
0.100000 0.675000 0.000000
0.125000 -0.075000 0.000000
0.125000 -0.050000 0.000000
0.125000 -0.025000 0.000000
0.125000 0.000000 0.000000
0.125000 0.025000 0.000000
0.125000 0.050000 0.000000
0.125000 0.075000 0.000000
0.125000 0.100000 0.000000
0.125000 0.125000 0.000000
0.125000 0.150000 0.000000
0.125000 0.175000 0.000000
0.125000 0.200000 0.000000
0.125000 0.225000 0.000000
0.125000 0.250000 0.000000
0.125000 0.275000 0.000000
0.125000 0.300000 0.000000
0.125000 0.325000 0.000000
0.125000 0.350000 0.000000
0.125000 0.375000 0.000000
0.125000 0.400000 0.000000
0.125000 0.425000 0.000000
0.125000 0.450000 0.000000
0.125000 0.475000 0.000000
0.125000 0.500000 0.000000
0.125000 0.525000 0.000000
0.125000 0.550000 0.000000
0.125000 0.575000 0.000000
0.125000 0.600000 0.000000
0.125000 0.625000 0.000000
0.125000 0.650000 0.000000
0.125000 0.675000 0.000000
0.150000 -0.075000 0.000000
0.150000 -0.050000 0.000000
0.150000 -0.025000 0.000000
0.150000 0.000000 0.000000
0.150000 0.025000 0.000000
0.150000 0.050000 0.000000
0.150000 0.075000 0.000000
0.150000 0.100000 0.000000
0.150000 0.125000 0.000000
0.150000 0.150000 0.000000
0.150000 0.175000 0.000000
0.150000 0.200000 0.000000
0.150000 0.225000 0.000000
0.150000 0.250000 0.000000
0.150000 0.275000 0.000000
0.150000 0.300000 0.000000
0.150000 0.325000 0.000000
0.150000 0.350000 0.000000
0.150000 0.375000 0.000000
0.150000 0.400000 0.000000
0.150000 0.425000 0.000000
0.150000 0.450000 0.000000
0.150000 0.475000 0.000000
0.150000 0.500000 0.000000
0.150000 0.525000 0.000000
0.150000 0.550000 0.000000
0.150000 0.575000 0.000000
0.150000 0.600000 0.000000
0.150000 0.625000 0.000000
0.150000 0.650000 0.000000
0.150000 0.675000 0.000000
0.175000 -0.075000 0.000000
0.175000 -0.050000 0.000000
0.175000 -0.025000 0.000000
0.175000 0.000000 0.000000
0.175000 0.025000 0.000000
0.175000 0.050000 0.000000
0.175000 0.075000 0.000000
0.175000 0.100000 0.000000
0.175000 0.125000 0.000000
0.175000 0.150000 0.000000
0.175000 0.175000 0.000000
0.175000 0.200000 0.000000
0.175000 0.225000 0.000000
0.175000 0.250000 0.000000
0.175000 0.275000 0.000000
0.175000 0.300000 0.000000
0.175000 0.325000 0.000000
0.175000 0.350000 0.000000
0.175000 0.375000 0.000000
0.175000 0.400000 0.000000
0.175000 0.425000 0.000000
0.175000 0.450000 0.000000
0.175000 0.475000 0.000000
0.175000 0.500000 0.000000
0.175000 0.525000 0.000000
0.175000 0.550000 0.000000
0.175000 0.575000 0.000000
0.175000 0.600000 0.000000
0.175000 0.625000 0.000000
0.175000 0.650000 0.000000
0.175000 0.675000 0.000000
0.200000 -0.075000 0.000000
0.200000 -0.050000 0.000000
0.200000 -0.025000 0.000000
0.200000 0.000000 0.000000
0.200000 0.025000 0.000000
0.200000 0.050000 0.000000
0.200000 0.075000 0.000000
0.200000 0.100000 0.000000
0.200000 0.125000 0.000000
0.200000 0.150000 0.000000
0.200000 0.175000 0.000000
0.200000 0.200000 0.000000
0.200000 0.225000 0.000000
0.200000 0.250000 0.000000
[...]
<PointData>
<DataArray NumberOfComponents='1' type='Int32' Name='ParticleType' format='ascii'>
4
4
4
4
4
4
4
4
4
4
4
4
4
4
4
4
4
4
4
4
4
4
4
4
4
4
4
4
2
2
2
4
4
4
4
4
4
4
4
4
4
4
4
4
4
4
4
4
4
4
4
4
4
4
4
4
4
4
4
2
2
2
4
4
3
3
3
3
3
3
3
3
3
3
3
3
3
3
3
3
3
3
3
3
3
3
3
3
3
3
2
2
2
4
4
3
3
3
3
3
3
3
3
3
3
3
3
3
3
3
3
3
3
3
3
3
3
3
3
3
3
2
2
2
4
4
3
3
0
0
0
0
0
0
0
0
0
0
0
0
0
0
0
0
0
0
0
0
0
0
1
1
2
2
2
4
4
3
3
0
0
0
0
0
0
0
0
0
0
0
0
0
0
0
0
0
0
0
0
0
0
1
1
2
2
2
4
4
3
3
0
0
0
0
0
0
0
0
0
0
0
0
0
0
0
0
0
0
0
0
0
0
1
1
2
2
2
4
4
3
3
0
0
0
0
0
0
0
0
0
0
0
0
0
0
0
0
0
0
0
0
0
0
1
1
2
2
2
4
4
3
3
0
0
0
0
0
0
0
0
0
0
0
0
0
0
0
0
0
0
0
0
0
0
0
1
2
2
2
4
4
3
3
0
0
0
0
0
0
0
0
0
0
0
0
0
0
0
0
0
0
0
0
0
0
0
1
2
2
2
4
4
3
3
0
0
0
0
0
0
0
0
0
0
0
0
0
0
0
0
0
0
0
0
0
0
0
1
2
2
2
4
4
3
3
0
0
0
0
0
0
0
0
0
0
0
0
0
0
0
0
0
0
0
0
0
0
0
1
2
2
2
4
4
3
3
0
0
0
0
0
0
0
0
0
0
0
0
0
0
0
0
0
0
0
0
0
0
0
1
2
2
2
4
4
3
3
0
0
0
0
0
0
0
0
0
0
0
0
0
0
0
0
0
0
0
0
0
0
0
1
2
2
2
4
4
3
3
0
0
0
0
0
0
0
0
0
0
0
0
0
0
0
0
0
0
0
0
0
0
0
1
2
2
2
4
4
3
3
0
0
0
0
0
0
0
0
0
0
0
0
0
0
0
0
0
0
0
0
0
0
0
1
2
2
2
4
4
3
3
0
0
0
0
0
0
0
0
0
0
0
0
0
0
0
0
0
0
0
0
0
0
0
1
2
2
2
4
4
3
3
0
0
0
0
0
0
0
0
0
0
0
0
0
0
0
0
0
0
0
0
0
0
0
1
2
2
2
4
4
3
3
0
0
0
0
0
0
0
0
0
0
0
0
0
0
0
0
0
0
0
0
0
0
0
1
2
2
2
4
4
3
3
0
0
0
0
0
0
0
0
0
0
0
0
0
0
0
0
0
0
0
0
0
0
0
1
2
2
2
4
4
3
3
0
0
0
0
0
0
0
0
0
0
0
0
0
0
0
0
0
0
0
0
0
0
0
1
2
2
2
4
4
3
3
0
0
0
0
0
0
0
0
0
0
0
0
0
0
0
0
0
0
0
0
0
0
0
1
2
2
2
4
4
3
3
0
0
0
0
0
0
0
0
0
0
0
0
0
0
0
0
0
0
0
0
0
0
0
1
2
2
2
4
4
3
3
0
0
0
0
0
0
0
0
0
0
0
0
0
0
0
0
0
0
0
0
0
0
0
1
2
2
2
4
4
3
3
0
0
0
0
0
0
0
0
0
0
0
0
0
0
0
0
0
0
0
0
0
0
0
1
2
2
2
4
4
3
3
0
0
0
0
0
0
0
0
0
0
0
0
0
0
0
0
0
0
0
0
0
0
0
1
2
2
2
4
4
3
3
0
0
0
0
0
0
0
0
0
0
0
0
0
0
0
0
0
0
0
0
0
0
0
1
2
2
2
4
4
3
3
0
0
0
0
0
0
0
0
0
0
0
0
0
0
0
0
0
0
0
0
0
0
0
1
2
2
2
4
4
3
3
0
0
0
0
0
0
0
0
0
0
0
0
0
0
0
0
0
0
0
0
0
0
0
1
2
2
2
4
4
3
3
0
0
0
0
0
0
0
0
0
0
0
0
0
0
0
0
0
0
0
0
0
0
0
1
2
2
2
4
4
3
3
0
0
0
0
0
0
0
0
0
0
0
0
0
0
0
0
0
0
0
0
0
0
0
1
2
2
2
4
4
3
3
0
0
0
0
0
0
0
0
0
0
0
0
0
0
0
0
0
0
0
0
0
0
0
1
2
2
2
4
4
3
3
0
0
0
0
0
0
0
0
0
0
0
0
0
0
0
0
0
0
0
0
0
0
0
1
2
2
2
4
4
3
3
0
0
0
0
0
0
0
0
0
0
0
0
0
0
0
0
0
0
0
0
0
0
0
1
2
2
2
4
4
3
3
0
0
0
0
0
0
0
0
0
0
0
0
0
0
0
0
0
0
0
0
0
0
0
1
2
2
2
4
4
3
3
0
0
0
0
0
0
0
0
0
0
0
0
0
0
0
0
0
0
0
0
0
0
0
1
2
2
2
4
4
3
3
0
0
0
0
0
0
0
0
0
0
0
0
0
0
0
0
0
0
0
0
0
0
0
1
2
2
2
4
4
3
3
0
0
0
0
0
0
0
0
0
0
0
0
0
0
0
0
0
0
0
0
0
0
0
1
2
2
2
4
4
3
3
0
0
0
0
0
0
0
0
0
0
0
0
0
0
0
0
0
0
0
0
0
0
0
1
2
2
2
4
4
3
3
0
0
0
0
0
0
0
0
0
0
0
0
0
0
0
0
0
0
0
0
0
0
0
1
2
2
2
4
4
3
3
0
0
0
0
0
0
0
0
0
0
0
0
0
0
0
0
0
0
0
0
0
0
1
1
2
2
2
4
4
3
3
0
0
0
0
0
0
0
0
0
0
0
0
0
0
0
0
0
0
0
0
0
0
1
1
2
2
2
4
4
3
3
0
0
0
0
0
0
0
0
0
0
0
0
0
0
0
0
0
0
0
0
0
0
1
1
2
2
2
4
4
3
3
0
0
0
0
0
0
0
0
0
0
0
0
0
0
0
0
0
0
0
0
0
0
1
1
2
2
2
4
4
3
3
3
3
3
3
3
3
3
3
3
3
3
3
3
3
3
3
3
3
3
3
3
3
3
3
2
2
2
4
4
3
3
3
3
3
3
3
3
3
3
3
3
3
3
3
3
3
3
3
3
3
3
3
3
3
3
2
2
2
4
4
4
4
4
4
4
4
4
4
4
4
4
4
4
4
4
4
4
4
4
4
4
4
4
4
4
4
2
2
2
4
4
4
4
4
4
4
4
4
4
4
4
4
4
4
4
4
4
4
4
4
4
4
4
4
4
4
4
2
2
2
</DataArray>
<DataArray NumberOfComponents='1' type='Float32' Name='Temperature' format='ascii'>
0.000000
0.000000
0.000000
0.000000
0.000000
0.000000
0.000000
0.000000
0.000000
0.000000
0.000000
0.000000
0.000000
0.000000
0.000000
0.000000
0.000000
0.000000
0.000000
0.000000
0.000000
0.000000
0.000000
0.000000
0.000000
0.000000
0.000000
0.000000
-5.000000
-5.000000
-5.000000
0.000000
0.000000
0.000000
0.000000
0.000000
0.000000
0.000000
0.000000
0.000000
0.000000
0.000000
0.000000
0.000000
0.000000
0.000000
0.000000
0.000000
0.000000
0.000000
0.000000
0.000000
0.000000
0.000000
0.000000
0.000000
0.000000
0.000000
0.000000
-5.000000
-5.000000
-5.000000
0.000000
0.000000
0.000000
0.000000
0.000000
0.000000
0.000000
0.000000
0.000000
0.000000
0.000000
0.000000
0.000000
0.000000
0.000000
0.000000
0.000000
0.000000
0.000000
0.000000
0.000000
0.000000
0.000000
0.000000
0.000000
0.000000
0.000000
0.000000
-5.000000
-5.000000
-5.000000
0.000000
0.000000
0.000000
0.000000
0.000000
0.000000
0.000000
0.000000
0.000000
0.000000
0.000000
0.000000
0.000000
0.000000
0.000000
0.000000
0.000000
0.000000
0.000000
0.000000
0.000000
0.000000
0.000000
0.000000
0.000000
0.000000
0.000000
0.000000
-5.000000
-5.000000
-5.000000
0.000000
0.000000
0.000000
0.000000
0.209068
0.369590
0.524268
0.661039
0.779341
0.878563
0.959551
1.023719
1.072606
1.107496
1.129217
1.138057
1.133758
1.115503
1.081913
1.031038
0.960426
0.867357
0.749229
0.604543
0.432387
0.240054
0.009087
-0.003467
-5.000000
-5.000000
-5.000000
0.000000
0.000000
0.000000
0.000000
0.371521
0.656739
0.932605
1.177506
1.390560
1.570571
1.718803
1.837416
1.928716
1.994542
2.035964
2.053201
2.045636
2.011845
1.949574
1.855711
1.726365
1.557213
1.344095
1.084682
0.776828
0.438415
0.009306
-0.002573
-5.000000
-5.000000
-5.000000
0.000000
0.000000
0.000000
0.000000
0.531785
0.941124
1.338633
1.693888
2.005735
2.272244
2.494678
2.675310
2.816451
2.919700
2.985652
3.013916
3.003256
2.951678
2.856412
2.713819
2.519398
2.268135
1.955163
1.577936
1.132763
0.646576
0.009845
-0.001523
-5.000000
-5.000000
-5.000000
0.000000
0.000000
0.000000
0.000000
0.680125
1.205547
1.718850
2.181971
2.593672
2.951089
3.254821
3.506243
3.706444
3.855508
3.952422
3.995353
3.982031
3.909988
3.776536
3.578542
3.312245
2.973422
2.557926
2.064050
1.487656
0.861755
0.009962
-0.001104
-5.000000
-5.000000
-5.000000
0.000000
0.000000
0.000000
0.000000
0.818723
1.454315
2.080192
2.651939
3.168469
3.625717
4.022763
4.358770
4.631989
4.839303
4.976562
5.039355
5.023812
4.927079
4.747302
4.483185
4.133424
3.696468
3.170706
2.556813
1.852053
1.094613
0.106975
-0.000589
-5.000000
-5.000000
-5.000000
0.000000
0.000000
0.000000
0.000000
0.950070
1.692186
2.430227
3.114751
3.745122
4.315743
4.823142
5.262648
5.627674
5.909790
6.099786
6.189227
6.171898
6.044646
5.807367
5.462213
5.012421
4.461364
3.812090
3.069303
2.233616
1.346265
0.240227
0.000399
-5.000000
-5.000000
-5.000000
0.000000
0.000000
0.000000
0.000000
1.078152
1.926526
2.780121
3.585729
4.343530
5.046006
5.685948
6.252980
6.733344
7.110805
7.368816
7.493191
7.474467
7.309264
7.000268
6.554944
5.983458
5.296656
4.504582
3.617678
2.640956
1.617522
0.387132
0.000834
-5.000000
-5.000000
-5.000000
0.000000
0.000000
0.000000
0.000000
1.207123
2.164892
3.141081
4.079864
4.982638
5.839551
6.638375
7.360992
7.983905
8.480326
8.823834
8.992555
8.972761
8.760899
8.363579
7.795597
7.076652
6.227815
5.268596
4.216949
3.083019
1.911047
0.546341
0.000751
-5.000000
-5.000000
-5.000000
0.000000
0.000000
0.000000
0.000000
1.340341
2.413265
3.521716
4.608233
5.675858
6.711984
7.698073
8.606197
9.400500
10.040810
10.488209
10.711137
10.690527
10.422695
9.919320
9.204599
8.310403
7.270825
6.117334
4.877191
3.566509
2.230337
0.718993
0.001691
-5.000000
-5.000000
-5.000000
0.000000
0.000000
0.000000
0.000000
1.479541
2.674538
3.925753
5.174907
6.427090
7.666553
8.867266
9.989567
10.982790
11.790731
12.359512
12.645993
12.624755
12.292011
11.665575
10.780971
9.684714
8.426523
7.052147
5.599849
4.092567
2.576035
0.905266
0.001723
-5.000000
-5.000000
-5.000000
0.000000
0.000000
0.000000
0.000000
1.624383
2.947679
4.350802
5.775275
7.228579
8.691514
10.129595
11.489857
12.704813
13.700044
14.404680
14.762437
14.740704
14.335610
13.571980
12.498247
11.177599
9.677521
8.059958
6.375572
4.654865
2.944198
1.103121
0.002461
-5.000000
-5.000000
-5.000000
0.000000
0.000000
0.000000
0.000000
1.772437
3.227734
4.788376
6.396133
8.061104
9.760446
11.450589
13.064238
14.515766
15.711096
16.561030
16.995109
16.972975
16.490686
15.580652
14.305264
12.745717
10.988673
9.113530
7.184272
5.239452
3.326029
1.307936
0.002754
-5.000000
-5.000000
-5.000000
0.000000
0.000000
0.000000
0.000000
1.919592
3.506599
5.225146
7.017511
8.896494
10.835556
12.781838
14.653361
16.345906
17.745251
18.743409
19.255400
19.232932
18.672003
17.612810
16.132058
14.329414
12.311195
10.174681
7.997483
5.826353
3.708831
1.513054
0.002653
-5.000000
-5.000000
-5.000000
0.000000
0.000000
0.000000
0.000000
2.060759
3.774377
5.645079
7.615756
9.701839
11.873199
14.067922
16.189731
18.116303
19.713806
20.855968
21.443679
21.420932
20.783668
19.579671
17.899580
15.861044
13.589513
11.199672
8.782394
6.392399
4.077787
1.710694
0.003733
-5.000000
-5.000000
-5.000000
0.000000
0.000000
0.000000
0.000000
2.190683
4.020919
6.031888
8.167072
10.444322
12.830169
15.254314
17.607255
19.749940
21.530429
22.805571
23.463214
23.440234
22.732522
21.394863
19.530763
17.274465
14.769088
12.145390
9.506503
6.914515
4.418059
1.892932
0.003961
-5.000000
-5.000000
-5.000000
0.000000
0.000000
0.000000
0.000000
2.304666
4.237203
6.371196
8.650621
11.095420
13.669173
16.294220
18.849478
21.181270
23.121837
24.513293
25.232104
25.208934
24.439632
22.985092
20.960047
18.513227
15.803180
12.974711
10.141677
7.372629
4.716675
2.052874
0.004472
-5.000000
-5.000000
-5.000000
0.000000
0.000000
0.000000
0.000000
2.399035
4.416220
6.651923
9.050484
11.633537
14.362205
17.152749
19.874558
22.361944
24.434167
25.921261
26.690364
26.667045
25.847120
24.296489
22.139085
19.535513
16.656973
13.659804
10.666681
7.751483
4.963736
2.185222
0.004091
-5.000000
-5.000000
-5.000000
0.000000
0.000000
0.000000
0.000000
2.471301
4.553252
6.866690
9.356186
12.044644
14.891287
17.807750
20.656182
23.261785
25.433995
26.993700
27.800979
27.777552
26.919205
25.295625
23.037703
20.315028
17.308379
14.182833
11.067758
8.041099
5.152710
2.286526
0.004911
-5.000000
-5.000000
-5.000000
0.000000
0.000000
0.000000
0.000000
2.520025
4.645607
7.011354
9.561964
12.321175
15.246931
18.247756
21.180959
23.865663
26.104745
27.712999
28.545801
28.522302
27.638272
25.965918
23.640767
20.838395
17.745969
14.534398
11.337523
8.236015
5.279965
2.354765
0.004822
-5.000000
-5.000000
-5.000000
0.000000
0.000000
0.000000
0.000000
2.544525
4.692029
7.084032
9.665286
12.459939
15.425288
18.468304
21.443878
24.168099
26.440578
28.073073
28.918616
28.895083
27.998232
26.301524
23.942797
21.100608
17.965303
14.710702
11.472877
8.333865
5.343876
2.389052
0.004988
-5.000000
-5.000000
-5.000000
0.000000
0.000000
0.000000
0.000000
2.544556
4.692079
7.084093
9.665345
12.459981
15.425297
18.468267
21.443784
24.167947
26.440372
28.072826
28.918347
28.894813
27.997984
26.301317
23.942642
21.100510
17.965260
14.710702
11.472907
8.333908
5.343916
2.389079
0.004990
-5.000000
-5.000000
-5.000000
0.000000
0.000000
0.000000
0.000000
2.520113
4.645750
7.011525
9.562125
12.321279
15.246929
18.247607
21.180634
23.865154
26.104069
27.712195
28.544927
28.521428
27.637466
25.965237
23.640251
20.838059
17.745802
14.534369
11.337589
8.236127
5.280076
2.354842
0.004827
-5.000000
-5.000000
-5.000000
0.000000
0.000000
0.000000
0.000000
2.471436
4.553468
6.866942
9.356406
12.044750
14.891199
17.807394
20.655510
23.260785
25.432697
26.992175
27.799331
27.775902
26.917676
25.294319
23.036690
20.314336
17.307992
14.182701
11.067805
8.041240
5.152867
2.286639
0.004925
-5.000000
-5.000000
-5.000000
0.000000
0.000000
0.000000
0.000000
2.399205
4.416484
6.652217
9.050706
11.633573
14.361934
17.152068
19.873399
22.360291
24.432067
25.918822
26.687741
26.664421
25.844676
24.294379
22.137415
19.534326
16.656251
13.659475
10.666636
7.751602
4.963905
2.185355
0.004117
-5.000000
-5.000000
-5.000000
0.000000
0.000000
0.000000
0.000000
2.304857
4.237492
6.371495
8.650800
11.095324
13.668646
16.293126
18.847730
21.178851
23.118813
24.509810
25.228374
25.205202
24.436143
22.982055
20.957607
18.511446
15.802035
12.974112
10.141483
7.372682
4.716827
2.053012
0.004515
-5.000000
-5.000000
-5.000000
0.000000
0.000000
0.000000
0.000000
2.190887
4.021217
6.032174
8.167185
10.444073
12.829367
15.252796
17.604916
19.746762
21.526496
22.801067
23.458402
23.435419
22.728011
21.390916
19.527560
17.272086
14.767510
12.144504
9.506141
6.914484
4.418181
1.893067
0.004017
-5.000000
-5.000000
-5.000000
0.000000
0.000000
0.000000
0.000000
2.060972
3.774683
5.645354
7.615817
9.701471
11.872184
14.066074
16.186931
18.112533
19.709164
20.850668
21.438024
21.415273
20.778359
19.575011
17.895781
15.858198
13.587598
11.198563
8.781900
6.392302
4.077884
1.710828
0.003820
-5.000000
-5.000000
-5.000000
0.000000
0.000000
0.000000
0.000000
1.919819
3.506924
5.225437
7.017571
8.896093
10.834463
12.779851
14.650355
16.341861
17.740273
18.737726
19.249336
19.226865
18.666309
17.607812
16.127980
14.326357
12.309133
10.173483
7.996944
5.826242
3.708930
1.513195
0.002757
-5.000000
-5.000000
-5.000000
0.000000
0.000000
0.000000
0.000000
1.772684
3.228096
4.788721
6.396264
8.060791
9.759454
11.448718
13.061359
14.511858
15.706264
16.555497
16.989198
16.967059
16.485140
15.575796
14.301318
12.742781
10.986719
9.112425
7.183810
5.239401
3.326170
1.308100
0.002844
-5.000000
-5.000000
-5.000000
0.000000
0.000000
0.000000
0.000000
1.624659
2.948099
4.351242
5.775550
7.228474
8.690807
10.128095
11.487440
12.701457
13.695838
14.399831
14.757239
14.735501
14.330746
13.567747
12.494846
11.175118
9.675930
8.059128
6.375307
4.654947
2.944419
1.103325
0.002543
-5.000000
-5.000000
-5.000000
0.000000
0.000000
0.000000
0.000000
1.479849
2.675023
3.926312
5.175376
6.427279
7.666265
8.866330
9.987870
10.980304
11.787529
12.355764
12.641948
12.620704
12.288245
11.662341
10.778436
9.682945
8.425488
7.051728
5.599870
4.092834
2.576364
0.905521
0.001804
-5.000000
-5.000000
-5.000000
0.000000
0.000000
0.000000
0.000000
1.340675
2.413812
3.522392
4.608905
5.676368
6.712169
7.697789
8.605344
9.399046
10.038804
10.485780
10.708476
10.687859
10.420245
9.917277
9.203088
8.309469
7.270433
6.117380
4.877527
3.566974
2.230778
0.719300
0.001742
-5.000000
-5.000000
-5.000000
0.000000
0.000000
0.000000
0.000000
1.207470
2.165475
3.141842
4.080701
4.983430
5.840171
6.638707
7.360952
7.983460
8.479502
8.822713
8.991269
8.971467
8.759753
8.362711
7.795088
7.076524
6.228031
5.269070
4.217565
3.083651
1.911580
0.546693
0.000815
-5.000000
-5.000000
-5.000000
0.000000
0.000000
0.000000
0.000000
1.078489
1.927107
2.780908
3.586653
4.344505
5.046941
5.686756
6.253594
6.733728
7.110965
7.368796
7.493067
7.474333
7.309215
7.000379
6.555257
5.983976
5.297342
4.505368
3.618480
2.641686
1.618103
0.387513
0.000921
-5.000000
-5.000000
-5.000000
0.000000
0.000000
0.000000
0.000000
0.950371
1.692715
2.430968
3.115661
3.746149
4.316827
4.824222
5.263672
5.628609
5.910624
6.100533
6.189919
6.172580
6.045361
5.808147
5.463070
5.013343
4.462317
3.813025
3.070163
2.234348
1.346833
0.240615
0.000572
-5.000000
-5.000000
-5.000000
0.000000
0.000000
0.000000
0.000000
0.818965
1.454749
2.080816
2.652736
3.169412
3.626773
4.023895
4.359939
4.633165
4.840466
4.977704
5.040478
5.024923
4.928187
4.748408
4.484281
4.134489
3.697474
3.171620
2.557602
1.852691
1.095096
0.107318
-0.000169
-5.000000
-5.000000
-5.000000
0.000000
0.000000
0.000000
0.000000
0.680292
1.205854
1.719306
2.182577
2.594424
2.951973
3.255817
3.507327
3.707590
3.856693
3.953625
3.996558
3.983225
3.911158
3.777663
3.579609
3.313229
2.974301
2.558681
2.064668
1.488130
0.862093
0.009982
-0.000371
-5.000000
-5.000000
-5.000000
0.000000
0.000000
0.000000
0.000000
0.531876
0.941297
1.338905
1.694271
2.006239
2.272871
2.495421
2.676154
2.817378
2.920686
2.986674
3.014951
3.004280
2.952669
2.857345
2.714673
2.520153
2.268775
1.955683
1.578335
1.133049
0.646755
0.009840
-0.001863
-5.000000
-5.000000
-5.000000
0.000000
0.000000
0.000000
0.000000
0.371548
0.656800
0.932716
1.177685
1.390823
1.570927
1.719254
1.837954
1.929329
1.995213
2.036672
2.053922
2.046349
2.012526
1.950201
1.856266
1.726833
1.557586
1.344374
1.084875
0.776953
0.438447
0.009562
-0.002468
-5.000000
-5.000000
-5.000000
0.000000
0.000000
0.000000
0.000000
0.209060
0.369583
0.524277
0.661078
0.779425
0.878702
0.959749
1.023974
1.072911
1.107841
1.129587
1.138439
1.134133
1.115857
1.082230
1.031306
0.960636
0.867507
0.749323
0.604589
0.432400
0.239994
0.009148
-0.006631
-5.000000
-5.000000
-5.000000
0.000000
0.000000
0.000000
0.000000
0.000000
0.000000
0.000000
0.000000
0.000000
0.000000
0.000000
0.000000
0.000000
0.000000
0.000000
0.000000
0.000000
0.000000
0.000000
0.000000
0.000000
0.000000
0.000000
0.000000
0.000000
0.000000
0.000000
0.000000
-5.000000
-5.000000
-5.000000
0.000000
0.000000
0.000000
0.000000
0.000000
0.000000
0.000000
0.000000
0.000000
0.000000
0.000000
0.000000
0.000000
0.000000
0.000000
0.000000
0.000000
0.000000
0.000000
0.000000
0.000000
0.000000
0.000000
0.000000
0.000000
0.000000
0.000000
0.000000
-5.000000
-5.000000
-5.000000
0.000000
0.000000
0.000000
0.000000
0.000000
0.000000
0.000000
0.000000
0.000000
0.000000
0.000000
0.000000
0.000000
0.000000
0.000000
0.000000
0.000000
0.000000
0.000000
0.000000
0.000000
0.000000
0.000000
0.000000
0.000000
0.000000
0.000000
0.000000
-5.000000
-5.000000
-5.000000
0.000000
0.000000
0.000000
0.000000
0.000000
0.000000
0.000000
0.000000
0.000000
0.000000
0.000000
0.000000
0.000000
0.000000
0.000000
0.000000
0.000000
0.000000
0.000000
0.000000
0.000000
0.000000
0.000000
0.000000
0.000000
0.000000
0.000000
0.000000
-5.000000
-5.000000
-5.000000
</DataArray>
</PointData>
<Cells>
<DataArray type='Int32' Name='connectivity' format='ascii'>
0
1
2
3
4
5
6
7
8
9
10
11
12
13
14
15
16
17
18
19
20
21
22
23
24
25
26
27
28
29
30
31
32
33
34
35
36
37
38
39
40
41
42
43
44
45
46
47
48
49
50
51
52
53
54
55
56
57
58
59
60
61
62
63
64
65
66
67
68
69
70
71
72
73
74
75
76
77
78
79
80
81
82
83
84
85
86
87
88
89
90
91
92
93
94
95
96
97
98
99
100
101
102
103
104
105
106
107
108
109
110
111
112
113
114
115
116
117
118
119
120
121
122
123
124
125
126
127
128
129
130
131
132
133
134
135
136
137
138
139
140
141
142
143
144
145
146
147
148
149
150
151
152
153
154
155
156
157
158
159
160
161
162
163
164
165
166
167
168
169
170
171
172
173
174
175
176
177
178
179
180
181
182
183
184
185
186
187
188
189
190
191
192
193
194
195
196
197
198
199
200
201
202
203
204
205
206
207
208
209
210
211
212
213
214
215
216
217
218
219
220
221
222
223
224
225
226
227
228
229
230
231
232
233
234
235
236
237
238
239
240
241
242
243
244
245
246
247
248
249
250
251
252
253
254
255
256
257
258
259
260
261
262
263
264
265
266
267
268
269
270
271
272
273
274
275
276
277
278
279
280
281
282
283
284
285
286
287
288
289
290
291
292
293
294
295
296
297
298
299
300
301
302
303
304
305
306
307
308
309
310
311
312
313
314
315
316
317
318
319
320
321
322
323
324
325
326
327
328
329
330
331
332
333
334
335
336
337
338
339
340
341
342
343
344
345
346
347
348
349
350
351
352
353
354
355
356
357
358
359
360
361
362
363
364
365
366
367
368
369
370
371
372
373
374
375
376
377
378
379
380
381
382
383
384
385
386
387
388
389
390
391
392
393
394
395
396
397
398
399
400
401
402
403
404
405
406
407
408
409
410
411
412
413
414
415
416
417
418
419
420
421
422
423
424
425
426
427
428
429
430
431
432
433
434
435
436
437
438
439
440
441
442
443
444
445
446
447
448
449
450
451
452
453
454
455
456
457
458
459
460
461
462
463
464
465
466
467
468
469
470
471
472
473
474
475
476
477
478
479
480
481
482
483
484
485
486
487
488
489
490
491
492
493
494
495
496
497
498
499
500
501
502
503
504
505
506
507
508
509
510
511
512
513
514
515
516
517
518
519
520
521
522
523
524
525
526
527
528
529
530
531
532
533
534
535
536
537
538
539
540
541
542
543
544
545
546
547
548
549
550
551
552
553
554
555
556
557
558
559
560
561
562
563
564
565
566
567
568
569
570
571
572
573
574
575
576
577
578
579
580
581
582
583
584
585
586
587
588
589
590
591
592
593
594
595
596
597
598
599
600
601
602
603
604
605
606
607
608
609
610
611
612
613
614
615
616
617
618
619
620
621
622
623
624
625
626
627
628
629
630
631
632
633
634
635
636
637
638
639
640
641
642
643
644
645
646
647
648
649
650
651
652
653
654
655
656
657
658
659
660
661
662
663
664
665
666
667
668
669
670
671
672
673
674
675
676
677
678
679
680
681
682
683
684
685
686
687
688
689
690
691
692
693
694
695
696
697
698
699
700
701
702
703
704
705
706
707
708
709
710
711
712
713
714
715
716
717
718
719
720
721
722
723
724
725
726
727
728
729
730
731
732
733
734
735
736
737
738
739
740
741
742
743
744
745