<?xml version='1.0' encoding='UTF-8'?>
<VTKFile xmlns='VTK' byte_order='LittleEndian' version='0.1' type='UnstructuredGrid'>
<UnstructuredGrid>
<Piece NumberOfCells='1488' NumberOfPoints='1488'>
<Points>
<DataArray NumberOfComponents='3' type='Float32' Name='Position' format='ascii'>
-0.075000 -0.075000 0.000000
-0.075000 -0.050000 0.000000
-0.075000 -0.025000 0.000000
-0.075000 0.000000 0.000000
-0.075000 0.025000 0.000000
-0.075000 0.050000 0.000000
-0.075000 0.075000 0.000000
-0.075000 0.100000 0.000000
-0.075000 0.125000 0.000000
-0.075000 0.150000 0.000000
-0.075000 0.175000 0.000000
-0.075000 0.200000 0.000000
-0.075000 0.225000 0.000000
-0.075000 0.250000 0.000000
-0.075000 0.275000 0.000000
-0.075000 0.300000 0.000000
-0.075000 0.325000 0.000000
-0.075000 0.350000 0.000000
-0.075000 0.375000 0.000000
-0.075000 0.400000 0.000000
-0.075000 0.425000 0.000000
-0.075000 0.450000 0.000000
-0.075000 0.475000 0.000000
-0.075000 0.500000 0.000000
-0.075000 0.525000 0.000000
-0.075000 0.550000 0.000000
-0.075000 0.575000 0.000000
-0.075000 0.600000 0.000000
-0.075000 0.625000 0.000000
-0.075000 0.650000 0.000000
-0.075000 0.675000 0.000000
-0.050000 -0.075000 0.000000
-0.050000 -0.050000 0.000000
-0.050000 -0.025000 0.000000
-0.050000 0.000000 0.000000
-0.050000 0.025000 0.000000
-0.050000 0.050000 0.000000
-0.050000 0.075000 0.000000
-0.050000 0.100000 0.000000
-0.050000 0.125000 0.000000
-0.050000 0.150000 0.000000
-0.050000 0.175000 0.000000
-0.050000 0.200000 0.000000
-0.050000 0.225000 0.000000
-0.050000 0.250000 0.000000
-0.050000 0.275000 0.000000
-0.050000 0.300000 0.000000
-0.050000 0.325000 0.000000
-0.050000 0.350000 0.000000
-0.050000 0.375000 0.000000
-0.050000 0.400000 0.000000
-0.050000 0.425000 0.000000
-0.050000 0.450000 0.000000
-0.050000 0.475000 0.000000
-0.050000 0.500000 0.000000
-0.050000 0.525000 0.000000
-0.050000 0.550000 0.000000
-0.050000 0.575000 0.000000
-0.050000 0.600000 0.000000
-0.050000 0.625000 0.000000
-0.050000 0.650000 0.000000
-0.050000 0.675000 0.000000
-0.025000 -0.075000 0.000000
-0.025000 -0.050000 0.000000
-0.025000 -0.025000 0.000000
-0.025000 0.000000 0.000000
-0.025000 0.025000 0.000000
-0.025000 0.050000 0.000000
-0.025000 0.075000 0.000000
-0.025000 0.100000 0.000000
-0.025000 0.125000 0.000000
-0.025000 0.150000 0.000000
-0.025000 0.175000 0.000000
-0.025000 0.200000 0.000000
-0.025000 0.225000 0.000000
-0.025000 0.250000 0.000000
-0.025000 0.275000 0.000000
-0.025000 0.300000 0.000000
-0.025000 0.325000 0.000000
-0.025000 0.350000 0.000000
-0.025000 0.375000 0.000000
-0.025000 0.400000 0.000000
-0.025000 0.425000 0.000000
-0.025000 0.450000 0.000000
-0.025000 0.475000 0.000000
-0.025000 0.500000 0.000000
-0.025000 0.525000 0.000000
-0.025000 0.550000 0.000000
-0.025000 0.575000 0.000000
-0.025000 0.600000 0.000000
-0.025000 0.625000 0.000000
-0.025000 0.650000 0.000000
-0.025000 0.675000 0.000000
0.000000 -0.075000 0.000000
0.000000 -0.050000 0.000000
0.000000 -0.025000 0.000000
0.000000 0.000000 0.000000
0.000000 0.025000 0.000000
0.000000 0.050000 0.000000
0.000000 0.075000 0.000000
0.000000 0.100000 0.000000
0.000000 0.125000 0.000000
0.000000 0.150000 0.000000
0.000000 0.175000 0.000000
0.000000 0.200000 0.000000
0.000000 0.225000 0.000000
0.000000 0.250000 0.000000
0.000000 0.275000 0.000000
0.000000 0.300000 0.000000
0.000000 0.325000 0.000000
0.000000 0.350000 0.000000
0.000000 0.375000 0.000000
0.000000 0.400000 0.000000
0.000000 0.425000 0.000000
0.000000 0.450000 0.000000
0.000000 0.475000 0.000000
0.000000 0.500000 0.000000
0.000000 0.525000 0.000000
0.000000 0.550000 0.000000
0.000000 0.575000 0.000000
0.000000 0.600000 0.000000
0.000000 0.625000 0.000000
0.000000 0.650000 0.000000
0.000000 0.675000 0.000000
0.025000 -0.075000 0.000000
0.025000 -0.050000 0.000000
0.025000 -0.025000 0.000000
0.025000 0.000000 0.000000
0.025000 0.025000 0.000000
0.025000 0.050000 0.000000
0.025000 0.075000 0.000000
0.025000 0.100000 0.000000
0.025000 0.125000 0.000000
0.025000 0.150000 0.000000
0.025000 0.175000 0.000000
0.025000 0.200000 0.000000
0.025000 0.225000 0.000000
0.025000 0.250000 0.000000
0.025000 0.275000 0.000000
0.025000 0.300000 0.000000
0.025000 0.325000 0.000000
0.025000 0.350000 0.000000
0.025000 0.375000 0.000000
0.025000 0.400000 0.000000
0.025000 0.425000 0.000000
0.025000 0.450000 0.000000
0.025000 0.475000 0.000000
0.025000 0.500000 0.000000
0.025000 0.525000 0.000000
0.025000 0.550000 0.000000
0.025000 0.575000 0.000000
0.025000 0.600000 0.000000
0.025000 0.625000 0.000000
0.025000 0.650000 0.000000
0.025000 0.675000 0.000000
0.050000 -0.075000 0.000000
0.050000 -0.050000 0.000000
0.050000 -0.025000 0.000000
0.050000 0.000000 0.000000
0.050000 0.025000 0.000000
0.050000 0.050000 0.000000
0.050000 0.075000 0.000000
0.050000 0.100000 0.000000
0.050000 0.125000 0.000000
0.050000 0.150000 0.000000
0.050000 0.175000 0.000000
0.050000 0.200000 0.000000
0.050000 0.225000 0.000000
0.050000 0.250000 0.000000
0.050000 0.275000 0.000000
0.050000 0.300000 0.000000
0.050000 0.325000 0.000000
0.050000 0.350000 0.000000
0.050000 0.375000 0.000000
0.050000 0.400000 0.000000
0.050000 0.425000 0.000000
0.050000 0.450000 0.000000
0.050000 0.475000 0.000000
0.050000 0.500000 0.000000
0.050000 0.525000 0.000000
0.050000 0.550000 0.000000
0.050000 0.575000 0.000000
0.050000 0.600000 0.000000
0.050000 0.625000 0.000000
0.050000 0.650000 0.000000
0.050000 0.675000 0.000000
0.075000 -0.075000 0.000000
0.075000 -0.050000 0.000000
0.075000 -0.025000 0.000000
0.075000 0.000000 0.000000
0.075000 0.025000 0.000000
0.075000 0.050000 0.000000
0.075000 0.075000 0.000000
0.075000 0.100000 0.000000
0.075000 0.125000 0.000000
0.075000 0.150000 0.000000
0.075000 0.175000 0.000000
0.075000 0.200000 0.000000
0.075000 0.225000 0.000000
0.075000 0.250000 0.000000
0.075000 0.275000 0.000000
0.075000 0.300000 0.000000
0.075000 0.325000 0.000000
0.075000 0.350000 0.000000
0.075000 0.375000 0.000000
0.075000 0.400000 0.000000
0.075000 0.425000 0.000000
0.075000 0.450000 0.000000
0.075000 0.475000 0.000000
0.075000 0.500000 0.000000
0.075000 0.525000 0.000000
0.075000 0.550000 0.000000
0.075000 0.575000 0.000000
0.075000 0.600000 0.000000
0.075000 0.625000 0.000000
0.075000 0.650000 0.000000
0.075000 0.675000 0.000000
0.100000 -0.075000 0.000000
0.100000 -0.050000 0.000000
0.100000 -0.025000 0.000000
0.100000 0.000000 0.000000
0.100000 0.025000 0.000000
0.100000 0.050000 0.000000
0.100000 0.075000 0.000000
0.100000 0.100000 0.000000
0.100000 0.125000 0.000000
0.100000 0.150000 0.000000
0.100000 0.175000 0.000000
0.100000 0.200000 0.000000
0.100000 0.225000 0.000000
0.100000 0.250000 0.000000
0.100000 0.275000 0.000000
0.100000 0.300000 0.000000
0.100000 0.325000 0.000000
0.100000 0.350000 0.000000
0.100000 0.375000 0.000000
0.100000 0.400000 0.000000
0.100000 0.425000 0.000000
0.100000 0.450000 0.000000
0.100000 0.475000 0.000000
0.100000 0.500000 0.000000
0.100000 0.525000 0.000000
0.100000 0.550000 0.000000
0.100000 0.575000 0.000000
0.100000 0.600000 0.000000
0.100000 0.625000 0.000000
0.100000 0.650000 0.000000
0.100000 0.675000 0.000000
0.125000 -0.075000 0.000000
0.125000 -0.050000 0.000000
0.125000 -0.025000 0.000000
0.125000 0.000000 0.000000
0.125000 0.025000 0.000000
0.125000 0.050000 0.000000
0.125000 0.075000 0.000000
0.125000 0.100000 0.000000
0.125000 0.125000 0.000000
0.125000 0.150000 0.000000
0.125000 0.175000 0.000000
0.125000 0.200000 0.000000
0.125000 0.225000 0.000000
0.125000 0.250000 0.000000
0.125000 0.275000 0.000000
0.125000 0.300000 0.000000
0.125000 0.325000 0.000000
0.125000 0.350000 0.000000
0.125000 0.375000 0.000000
0.125000 0.400000 0.000000
0.125000 0.425000 0.000000
0.125000 0.450000 0.000000
0.125000 0.475000 0.000000
0.125000 0.500000 0.000000
0.125000 0.525000 0.000000
0.125000 0.550000 0.000000
0.125000 0.575000 0.000000
0.125000 0.600000 0.000000
0.125000 0.625000 0.000000
0.125000 0.650000 0.000000
0.125000 0.675000 0.000000
0.150000 -0.075000 0.000000
0.150000 -0.050000 0.000000
0.150000 -0.025000 0.000000
0.150000 0.000000 0.000000
0.150000 0.025000 0.000000
0.150000 0.050000 0.000000
0.150000 0.075000 0.000000
0.150000 0.100000 0.000000
0.150000 0.125000 0.000000
0.150000 0.150000 0.000000
0.150000 0.175000 0.000000
0.150000 0.200000 0.000000
0.150000 0.225000 0.000000
0.150000 0.250000 0.000000
0.150000 0.275000 0.000000
0.150000 0.300000 0.000000
0.150000 0.325000 0.000000
0.150000 0.350000 0.000000
0.150000 0.375000 0.000000
0.150000 0.400000 0.000000
0.150000 0.425000 0.000000
0.150000 0.450000 0.000000
0.150000 0.475000 0.000000
0.150000 0.500000 0.000000
0.150000 0.525000 0.000000
0.150000 0.550000 0.000000
0.150000 0.575000 0.000000
0.150000 0.600000 0.000000
0.150000 0.625000 0.000000
0.150000 0.650000 0.000000
0.150000 0.675000 0.000000
0.175000 -0.075000 0.000000
0.175000 -0.050000 0.000000
0.175000 -0.025000 0.000000
0.175000 0.000000 0.000000
0.175000 0.025000 0.000000
0.175000 0.050000 0.000000
0.175000 0.075000 0.000000
0.175000 0.100000 0.000000
0.175000 0.125000 0.000000
0.175000 0.150000 0.000000
0.175000 0.175000 0.000000
0.175000 0.200000 0.000000
0.175000 0.225000 0.000000
0.175000 0.250000 0.000000
0.175000 0.275000 0.000000
0.175000 0.300000 0.000000
0.175000 0.325000 0.000000
0.175000 0.350000 0.000000
0.175000 0.375000 0.000000
0.175000 0.400000 0.000000
0.175000 0.425000 0.000000
0.175000 0.450000 0.000000
0.175000 0.475000 0.000000
0.175000 0.500000 0.000000
0.175000 0.525000 0.000000
0.175000 0.550000 0.000000
0.175000 0.575000 0.000000
0.175000 0.600000 0.000000
0.175000 0.625000 0.000000
0.175000 0.650000 0.000000
0.175000 0.675000 0.000000
0.200000 -0.075000 0.000000
0.200000 -0.050000 0.000000
0.200000 -0.025000 0.000000
0.200000 0.000000 0.000000
0.200000 0.025000 0.000000
0.200000 0.050000 0.000000
0.200000 0.075000 0.000000
0.200000 0.100000 0.000000
0.200000 0.125000 0.000000
0.200000 0.150000 0.000000
0.200000 0.175000 0.000000
0.200000 0.200000 0.000000
0.200000 0.225000 0.000000
0.200000 0.250000 0.000000
[...]
<PointData>
<DataArray NumberOfComponents='1' type='Int32' Name='ParticleType' format='ascii'>
4
4
4
4
4
4
4
4
4
4
4
4
4
4
4
4
4
4
4
4
4
4
4
4
4
4
4
4
2
2
2
4
4
4
4
4
4
4
4
4
4
4
4
4
4
4
4
4
4
4
4
4
4
4
4
4
4
4
4
2
2
2
4
4
3
3
3
3
3
3
3
3
3
3
3
3
3
3
3
3
3
3
3
3
3
3
3
3
3
3
2
2
2
4
4
3
3
3
3
3
3
3
3
3
3
3
3
3
3
3
3
3
3
3
3
3
3
3
3
3
3
2
2
2
4
4
3
3
0
0
0
0
0
0
0
0
0
0
0
0
0
0
0
0
0
0
0
0
0
1
1
2
2
2
2
4
4
3
3
0
0
0
0
0
0
0
0
0
0
0
0
0
0
0
0
0
0
0
0
0
0
1
2
2
2
2
4
4
3
3
0
0
0
0
0
0
0
0
0
0
0
0
0
0
0
0
0
0
0
0
0
0
1
2
2
2
2
4
4
3
3
0
0
0
0
0
0
0
0
0
0
0
0
0
0
0
0
0
0
0
0
0
0
1
2
2
2
2
4
4
3
3
0
0
0
0
0
0
0
0
0
0
0
0
0
0
0
0
0
0
0
0
0
0
1
2
2
2
2
4
4
3
3
0
0
0
0
0
0
0
0
0
0
0
0
0
0
0
0
0
0
0
0
0
0
1
2
2
2
2
4
4
3
3
0
0
0
0
0
0
0
0
0
0
0
0
0
0
0
0
0
0
0
0
0
0
1
2
2
2
2
4
4
3
3
0
0
0
0
0
0
0
0
0
0
0
0
0
0
0
0
0
0
0
0
0
0
1
2
2
2
2
4
4
3
3
0
0
0
0
0
0
0
0
0
0
0
0
0
0
0
0
0
0
0
0
0
0
1
2
2
2
2
4
4
3
3
0
0
0
0
0
0
0
0
0
0
0
0
0
0
0
0
0
0
0
0
0
0
1
2
2
2
2
4
4
3
3
0
0
0
0
0
0
0
0
0
0
0
0
0
0
0
0
0
0
0
0
0
0
1
2
2
2
2
4
4
3
3
0
0
0
0
0
0
0
0
0
0
0
0
0
0
0
0
0
0
0
0
0
0
0
2
2
2
2
4
4
3
3
0
0
0
0
0
0
0
0
0
0
0
0
0
0
0
0
0
0
0
0
0
0
0
2
2
2
2
4
4
3
3
0
0
0
0
0
0
0
0
0
0
0
0
0
0
0
0
0
0
0
0
0
0
0
2
2
2
2
4
4
3
3
0
0
0
0
0
0
0
0
0
0
0
0
0
0
0
0
0
0
0
0
0
0
0
1
2
2
2
4
4
3
3
0
0
0
0
0
0
0
0
0
0
0
0
0
0
0
0
0
0
0
0
0
0
0
1
2
2
2
4
4
3
3
0
0
0
0
0
0
0
0
0
0
0
0
0
0
0
0
0
0
0
0
0
0
0
1
2
2
2
4
4
3
3
0
0
0
0
0
0
0
0
0
0
0
0
0
0
0
0
0
0
0
0
0
0
0
1
2
2
2
4
4
3
3
0
0
0
0
0
0
0
0
0
0
0
0
0
0
0
0
0
0
0
0
0
0
0
1
2
2
2
4
4
3
3
0
0
0
0
0
0
0
0
0
0
0
0
0
0
0
0
0
0
0
0
0
0
0
1
2
2
2
4
4
3
3
0
0
0
0
0
0
0
0
0
0
0
0
0
0
0
0
0
0
0
0
0
0
0
1
2
2
2
4
4
3
3
0
0
0
0
0
0
0
0
0
0
0
0
0
0
0
0
0
0
0
0
0
0
0
1
2
2
2
4
4
3
3
0
0
0
0
0
0
0
0
0
0
0
0
0
0
0
0
0
0
0
0
0
0
0
1
2
2
2
4
4
3
3
0
0
0
0
0
0
0
0
0
0
0
0
0
0
0
0
0
0
0
0
0
0
0
1
2
2
2
4
4
3
3
0
0
0
0
0
0
0
0
0
0
0
0
0
0
0
0
0
0
0
0
0
0
0
1
2
2
2
4
4
3
3
0
0
0
0
0
0
0
0
0
0
0
0
0
0
0
0
0
0
0
0
0
0
0
2
2
2
2
4
4
3
3
0
0
0
0
0
0
0
0
0
0
0
0
0
0
0
0
0
0
0
0
0
0
0
2
2
2
2
4
4
3
3
0
0
0
0
0
0
0
0
0
0
0
0
0
0
0
0
0
0
0
0
0
0
0
2
2
2
2
4
4
3
3
0
0
0
0
0
0
0
0
0
0
0
0
0
0
0
0
0
0
0
0
0
0
0
2
2
2
2
4
4
3
3
0
0
0
0
0
0
0
0
0
0
0
0
0
0
0
0
0
0
0
0
0
0
0
2
2
2
2
4
4
3
3
0
0
0
0
0
0
0
0
0
0
0
0
0
0
0
0
0
0
0
0
0
0
1
2
2
2
2
4
4
3
3
0
0
0
0
0
0
0
0
0
0
0
0
0
0
0
0
0
0
0
0
0
0
1
2
2
2
2
4
4
3
3
0
0
0
0
0
0
0
0
0
0
0
0
0
0
0
0
0
0
0
0
0
0
1
2
2
2
2
4
4
3
3
0
0
0
0
0
0
0
0
0
0
0
0
0
0
0
0
0
0
0
0
0
0
1
2
2
2
2
4
4
3
3
0
0
0
0
0
0
0
0
0
0
0
0
0
0
0
0
0
0
0
0
0
0
1
2
2
2
2
4
4
3
3
0
0
0
0
0
0
0
0
0
0
0
0
0
0
0
0
0
0
0
0
0
0
1
2
2
2
2
4
4
3
3
0
0
0
0
0
0
0
0
0
0
0
0
0
0
0
0
0
0
0
0
0
0
1
2
2
2
2
4
4
3
3
0
0
0
0
0
0
0
0
0
0
0
0
0
0
0
0
0
0
0
0
0
0
1
2
2
2
2
4
4
3
3
0
0
0
0
0
0
0
0
0
0
0
0
0
0
0
0
0
0
0
0
0
0
1
2
2
2
2
4
4
3
3
0
0
0
0
0
0
0
0
0
0
0
0
0
0
0
0
0
0
0
0
0
1
1
2
2
2
2
4
4
3
3
3
3
3
3
3
3
3
3
3
3
3
3
3
3
3
3
3
3
3
3
3
3
3
3
2
2
2
4
4
3
3
3
3
3
3
3
3
3
3
3
3
3
3
3
3
3
3
3
3
3
3
3
3
3
3
2
2
2
4
4
4
4
4
4
4
4
4
4
4
4
4
4
4
4
4
4
4
4
4
4
4
4
4
4
4
4
2
2
2
4
4
4
4
4
4
4
4
4
4
4
4
4
4
4
4
4
4
4
4
4
4
4
4
4
4
4
4
2
2
2
</DataArray>
<DataArray NumberOfComponents='1' type='Float32' Name='Temperature' format='ascii'>
0.000000
0.000000
0.000000
0.000000
0.000000
0.000000
0.000000
0.000000
0.000000
0.000000
0.000000
0.000000
0.000000
0.000000
0.000000
0.000000
0.000000
0.000000
0.000000
0.000000
0.000000
0.000000
0.000000
0.000000
0.000000
0.000000
0.000000
0.000000
-5.000000
-5.000000
-5.000000
0.000000
0.000000
0.000000
0.000000
0.000000
0.000000
0.000000
0.000000
0.000000
0.000000
0.000000
0.000000
0.000000
0.000000
0.000000
0.000000
0.000000
0.000000
0.000000
0.000000
0.000000
0.000000
0.000000
0.000000
0.000000
0.000000
0.000000
0.000000
-5.000000
-5.000000
-5.000000
0.000000
0.000000
0.000000
0.000000
0.000000
0.000000
0.000000
0.000000
0.000000
0.000000
0.000000
0.000000
0.000000
0.000000
0.000000
0.000000
0.000000
0.000000
0.000000
0.000000
0.000000
0.000000
0.000000
0.000000
0.000000
0.000000
0.000000
0.000000
-5.000000
-5.000000
-5.000000
0.000000
0.000000
0.000000
0.000000
0.000000
0.000000
0.000000
0.000000
0.000000
0.000000
0.000000
0.000000
0.000000
0.000000
0.000000
0.000000
0.000000
0.000000
0.000000
0.000000
0.000000
0.000000
0.000000
0.000000
0.000000
0.000000
0.000000
0.000000
-5.000000
-5.000000
-5.000000
0.000000
0.000000
0.000000
0.000000
0.158270
0.283639
0.410370
0.530434
0.643035
0.746123
0.837872
0.916466
0.980192
1.027484
1.056982
1.067572
1.058418
1.028961
0.978891
0.908098
0.816604
0.704440
0.571784
0.417004
0.245914
0.009955
0.003779
-2.126705
-5.000000
-5.000000
-5.000000
0.000000
0.000000
0.000000
0.000000
0.286952
0.513963
0.743787
0.961627
1.166098
1.353463
1.520380
1.663513
1.779700
1.866051
1.920050
1.939655
1.923346
1.870136
1.779529
1.651422
1.486007
1.283588
1.044881
0.768101
0.464974
0.047193
0.003584
-2.365874
-5.000000
-5.000000
-5.000000
0.000000
0.000000
0.000000
0.000000
0.422724
0.757334
1.096284
1.417885
1.720108
1.997419
2.244823
2.457299
2.630065
2.758738
2.839511
2.869310
2.845887
2.767848
2.634586
2.446158
2.203136
1.906413
1.557707
1.156376
0.719242
0.161017
0.004865
-2.445297
-5.000000
-5.000000
-5.000000
0.000000
0.000000
0.000000
0.000000
0.560231
1.003930
1.453790
1.881179
2.283439
2.653187
2.983677
3.268071
3.499816
3.672885
3.782054
3.823134
3.793128
3.690279
3.513999
3.264684
2.943527
2.552296
2.093989
1.570019
1.000549
0.311395
0.005904
-2.450443
-5.000000
-5.000000
-5.000000
0.000000
0.000000
0.000000
0.000000
0.701144
1.256825
1.820822
2.357473
2.863497
3.329581
3.747097
4.107208
4.401391
4.621778
4.761560
4.815321
4.779278
4.651362
4.431130
4.119525
3.718585
3.231161
2.661571
2.013299
1.308339
0.483700
0.006599
-2.436351
-5.000000
-5.000000
-5.000000
0.000000
0.000000
0.000000
0.000000
0.845695
1.516452
2.198056
2.847727
3.461570
4.028251
4.537110
4.977116
5.337549
5.608481
5.781326
5.849315
5.807831
5.654545
5.389304
5.013808
4.531169
3.945465
3.262221
2.486522
1.640793
0.673201
0.007211
-2.415616
-5.000000
-5.000000
-5.000000
0.000000
0.000000
0.000000
0.000000
0.994013
1.783054
2.585870
3.352469
4.078355
4.750079
5.354793
5.879061
6.309730
6.634578
6.843042
6.926861
6.880537
6.701526
6.390117
5.948997
5.382603
4.696395
3.896969
2.990392
1.998069
0.879080
0.008230
-2.391421
-5.000000
-5.000000
-5.000000
0.000000
0.000000
0.000000
0.000000
1.145787
2.056069
2.983445
3.870636
4.712550
5.493540
6.198413
6.811129
7.315866
7.697877
7.944425
8.045620
7.995028
7.789941
7.431247
6.922867
6.270866
5.482344
4.564944
3.525140
2.381456
1.102892
0.008783
-2.363907
-5.000000
-5.000000
-5.000000
0.000000
0.000000
0.000000
0.000000
1.300226
2.334063
3.388670
4.399436
5.360689
6.254504
7.063213
7.767983
8.350117
8.792131
9.078932
9.198875
9.144540
8.913103
8.506197
7.929248
7.190313
6.298549
5.262936
4.090126
2.793376
1.349282
0.009355
-2.331068
-5.000000
-5.000000
-5.000000
0.000000
0.000000
0.000000
0.000000
1.455997
2.614621
3.797985
4.934161
6.016910
7.025977
7.941115
8.740549
9.402539
9.906692
10.235408
10.375183
10.317569
10.059663
9.603984
8.957711
8.131299
7.136555
5.984543
4.682674
3.237614
1.630179
0.009585
-2.283877
-5.000000
-5.000000
-5.000000
0.000000
0.000000
0.000000
0.000000
1.611224
2.894337
4.206372
5.468169
6.672944
7.798091
8.820722
9.716028
10.459110
11.026549
11.398138
11.558436
11.497942
11.213698
10.709212
9.993623
9.080163
7.983954
6.719289
5.295975
3.716693
1.962906
0.009976
-2.204213
-5.000000
-5.000000
-5.000000
0.000000
0.000000
0.000000
0.000000
1.763521
3.168887
4.607458
5.993035
7.318308
8.558346
9.687607
10.678226
11.502099
12.132734
12.547274
12.728310
12.665272
12.355165
11.802534
11.018602
10.019633
8.824604
7.452204
5.917034
4.222918
2.355397
0.249381
-2.067875
-5.000000
-5.000000
-5.000000
0.000000
0.000000
0.000000
0.000000
1.910086
3.433192
4.993766
6.498874
7.940714
9.292097
10.524886
11.608201
12.510779
13.203089
13.659646
13.861094
13.795802
13.460737
12.861477
12.011336
10.929670
9.639529
8.164651
6.526034
4.733944
2.782333
0.600949
-1.850237
-5.000000
-5.000000
-5.000000
0.000000
0.000000
0.000000
0.000000
2.047829
3.681654
5.357058
6.974811
8.526652
9.983258
11.314020
12.485175
13.462431
14.213340
14.709890
14.930849
14.863562
14.504949
13.861562
12.948699
11.788654
10.408378
8.836573
7.100848
5.219459
3.208791
0.979772
-1.524111
-5.000000
-5.000000
-5.000000
0.000000
0.000000
0.000000
0.000000
2.173537
3.908453
5.688776
7.409547
9.062097
10.615143
12.035796
13.287628
14.333540
15.138375
15.671777
15.910768
15.841734
15.461534
14.777599
13.807006
12.574675
11.110980
9.448910
7.621862
5.656950
3.593185
1.353779
-0.009209
-5.000000
-5.000000
-5.000000
0.000000
0.000000
0.000000
0.000000
2.284048
4.107864
5.980502
7.791981
9.533275
11.171376
12.671371
13.994467
15.101067
15.953607
16.519638
16.774628
16.704098
16.304841
15.585036
14.563284
13.266719
11.728525
9.985054
8.073953
6.027508
3.902298
1.612021
-0.007905
-5.000000
-5.000000
-5.000000
0.000000
0.000000
0.000000
0.000000
2.376423
4.274569
6.224422
8.111813
9.927419
11.636784
13.203295
14.586169
15.743703
16.636300
17.229749
17.498199
17.426440
17.011194
16.261248
15.196442
13.845679
12.244321
10.431191
8.446730
6.326223
4.129005
1.770449
-0.007518
-5.000000
-5.000000
-5.000000
0.000000
0.000000
0.000000
0.000000
2.448111
4.403951
6.413753
8.360102
10.233447
11.998206
13.616442
15.045818
16.242989
17.166770
17.781573
18.060515
17.987811
17.560122
16.786694
15.688304
14.295177
12.644269
10.776124
8.732893
6.551449
4.289965
1.864767
-0.005175
-5.000000
-5.000000
-5.000000
0.000000
0.000000
0.000000
0.000000
2.497077
4.492328
6.543088
8.529728
10.442539
12.245171
13.898782
15.359967
16.584256
17.529378
18.158797
18.444925
18.371580
17.935376
17.145869
16.024462
14.602264
12.917275
11.011137
8.927014
6.702621
4.395908
1.925139
-0.004853
-5.000000
-5.000000
-5.000000
0.000000
0.000000
0.000000
0.000000
2.521907
4.537144
6.608675
8.615748
10.548575
12.370417
14.041969
15.519289
16.757336
17.713283
18.350119
18.639894
18.566224
18.125701
17.328035
16.194943
14.757978
13.055654
11.130156
9.025128
6.778688
4.448782
1.954962
-0.004309
-5.000000
-5.000000
-5.000000
0.000000
0.000000
0.000000
0.000000
2.521878
4.537090
6.608593
8.615633
10.548425
12.370227
14.041739
15.519020
16.757031
17.712949
18.349763
18.639527
18.565859
18.125349
17.327709
16.194657
14.757745
13.055489
11.130065
9.025111
6.778728
4.448845
1.955013
-0.004306
-5.000000
-5.000000
-5.000000
0.000000
0.000000
0.000000
0.000000
2.496992
4.492170
6.542845
8.529389
10.442094
12.244611
13.898102
15.359172
16.583356
17.528389
18.157746
18.443842
18.370499
17.934336
17.144910
16.023627
14.601601
12.916829
11.010943
8.927065
6.702847
4.396172
1.925323
-0.004842
-5.000000
-5.000000
-5.000000
0.000000
0.000000
0.000000
0.000000
2.447975
4.403696
6.413360
8.359554
10.232726
11.997298
13.615343
15.044531
16.241530
17.165169
17.779869
18.058760
17.986062
17.558444
16.785158
15.686992
14.294187
12.643708
10.776076
8.733350
6.552208
4.290667
1.865145
-0.005149
-5.000000
-5.000000
-5.000000
0.000000
0.000000
0.000000
0.000000
2.376242
4.274229
6.223898
8.111082
9.926456
11.635570
13.201823
14.584445
15.741748
16.634154
17.227467
17.495849
17.424102
17.008960
16.259228
15.194773
13.844542
12.243939
10.431768
8.448265
6.328221
4.128742
1.763744
-0.007477
-5.000000
-5.000000
-5.000000
0.000000
0.000000
0.000000
0.000000
2.283830
4.107455
5.979871
7.791100
9.532114
11.169912
12.669593
13.992382
15.098703
15.951010
16.516877
16.771786
16.701278
16.302165
15.582658
14.561419
13.265683
11.728751
9.987010
8.077750
6.032187
3.898636
1.590803
-0.007855
-5.000000
-5.000000
-5.000000
0.000000
0.000000
0.000000
0.000000
2.173294
3.907997
5.688071
7.408560
9.060792
10.613496
12.033793
13.285277
14.330871
15.135443
15.668659
15.907563
15.838563
15.458550
14.775010
13.805127
12.574015
11.112315
9.453213
7.629692
5.666520
3.591104
1.315946
-1.346470
-5.000000
-5.000000
-5.000000
0.000000
0.000000
0.000000
0.000000
2.047573
3.681173
5.356313
6.973765
8.525267
9.981506
11.311885
12.482665
13.459579
14.210203
14.706554
14.927424
14.860187
14.501803
13.858911
12.946971
11.788593
10.411219
8.844081
7.114705
5.239348
3.220845
0.967424
-1.658048
-5.000000
-5.000000
-5.000000
0.000000
0.000000
0.000000
0.000000
1.909830
3.432710
4.993017
6.497820
7.939315
9.290320
10.522716
11.605645
12.507869
13.199887
13.656240
13.857601
13.792373
13.457576
12.858896
12.009868
10.930281
9.643917
8.175496
6.546624
4.766102
2.819928
0.624392
-1.884523
-5.000000
-5.000000
-5.000000
0.000000
0.000000
0.000000
0.000000
1.763278
3.168429
4.606742
5.992022
7.316957
8.556624
9.685499
10.675735
11.499257
12.129603
12.543942
12.724896
12.661934
12.352120
11.800123
11.017422
10.020782
8.830066
7.465248
5.942252
4.264591
2.412492
0.313428
-2.057627
-5.000000
-5.000000
-5.000000
0.000000
0.000000
0.000000
0.000000
1.611005
2.893921
4.205719
5.467240
6.671698
7.796496
8.818759
9.713701
10.456449
11.023611
11.395010
11.555234
11.494821
11.210878
10.707035
9.992688
9.081556
7.989617
6.732380
5.320890
3.756801
2.018184
0.031407
-2.189243
-5.000000
-5.000000
-5.000000
0.000000
0.000000
0.000000
0.000000
1.455810
2.614263
3.797419
4.933349
6.015814
7.024564
7.939366
8.738466
9.400149
9.904046
10.232588
10.372296
10.314764
10.057145
9.602073
8.956944
8.132616
7.141553
5.995631
4.702784
3.267580
1.666285
0.009848
-2.274214
-5.000000
-5.000000
-5.000000
0.000000
0.000000
0.000000
0.000000
1.300074
2.333771
3.388205
4.398762
5.359770
6.253309
7.061724
7.766198
8.348060
8.789846
9.076491
9.196376
9.142115
8.910935
8.504561
7.928584
7.191339
6.302385
5.271060
4.103910
2.811749
1.368082
0.009218
-2.326463
-5.000000
-5.000000
-5.000000
0.000000
0.000000
0.000000
0.000000
1.145673
2.055847
2.983085
3.870107
4.711819
5.492578
6.197203
6.809668
7.314172
7.695988
7.942400
8.043544
7.993013
7.788140
7.429882
6.922270
6.271532
5.484960
4.570251
3.533510
2.391580
1.111861
0.008773
-2.361886
-5.000000
-5.000000
-5.000000
0.000000
0.000000
0.000000
0.000000
0.993934
1.782896
2.585610
3.352079
4.077805
4.749345
5.353857
5.877922
6.308399
6.633084
6.841434
6.925207
6.878927
6.700082
6.389008
5.948458
5.382950
4.698006
3.900154
2.995113
2.003409
0.883485
0.008228
-2.390456
-5.000000
-5.000000
-5.000000
0.000000
0.000000
0.000000
0.000000
0.845645
1.516350
2.197883
2.847458
3.461181
4.027722
4.536425
4.976271
5.336551
5.607353
5.780104
5.848051
5.806595
5.653428
5.388428
5.013330
4.531282
3.946362
3.264011
2.489078
1.643559
0.675401
0.007587
-2.415113
-5.000000
-5.000000
-5.000000
0.000000
0.000000
0.000000
0.000000
0.701116
1.256766
1.820717
2.357302
2.863241
3.329223
3.746623
4.106614
4.400681
4.620967
4.760674
4.814398
4.778367
4.650527
4.430455
4.119112
3.718547
3.231597
2.662510
2.014632
1.309756
0.484812
0.006833
-2.436078
-5.000000
-5.000000
-5.000000
0.000000
0.000000
0.000000
0.000000
0.560219
1.003900
1.453732
1.881079
2.283282
2.652959
2.983368
3.267676
3.499336
3.672331
3.781442
3.822488
3.792482
3.689677
3.513493
3.264339
2.943407
2.552453
2.094429
1.570671
1.001246
0.311943
0.005974
-2.450301
-5.000000
-5.000000
-5.000000
0.000000
0.000000
0.000000
0.000000
0.422720
0.757322
1.096256
1.417831
1.720018
1.997282
2.244632
2.457050
2.629758
2.758378
2.839109
2.868881
2.845451
2.767430
2.634220
2.445881
2.202986
1.906417
1.557867
1.156655
0.719556
0.161269
0.004797
-2.445227
-5.000000
-5.000000
-5.000000
0.000000
0.000000
0.000000
0.000000
0.286951
0.513958
0.743774
0.961599
1.166049
1.353386
1.520270
1.663367
1.779518
1.865835
1.919806
1.939390
1.923072
1.869868
1.779283
1.651219
1.485869
1.283529
1.044904
0.768191
0.465092
0.047302
0.003850
-2.365833
-5.000000
-5.000000
-5.000000
0.000000
0.000000
0.000000
0.000000
0.158269
0.283637
0.410363
0.530420
0.643010
0.746084
0.837815
0.916391
0.980097
1.027371
1.056853
1.067431
1.058271
1.028813
0.978751
0.907976
0.816509
0.704380
0.571762
0.417015
0.245943
0.009970
0.003626
-2.126696
-5.000000
-5.000000
-5.000000
0.000000
0.000000
0.000000
0.000000
0.000000
0.000000
0.000000
0.000000
0.000000
0.000000
0.000000
0.000000
0.000000
0.000000
0.000000
0.000000
0.000000
0.000000
0.000000
0.000000
0.000000
0.000000
0.000000
0.000000
0.000000
0.000000
0.000000
0.000000
-5.000000
-5.000000
-5.000000
0.000000
0.000000
0.000000
0.000000
0.000000
0.000000
0.000000
0.000000
0.000000
0.000000
0.000000
0.000000
0.000000
0.000000
0.000000
0.000000
0.000000
0.000000
0.000000
0.000000
0.000000
0.000000
0.000000
0.000000
0.000000
0.000000
0.000000
0.000000
-5.000000
-5.000000
-5.000000
0.000000
0.000000
0.000000
0.000000
0.000000
0.000000
0.000000
0.000000
0.000000
0.000000
0.000000
0.000000
0.000000
0.000000
0.000000
0.000000
0.000000
0.000000
0.000000
0.000000
0.000000
0.000000
0.000000
0.000000
0.000000
0.000000
0.000000
0.000000
-5.000000
-5.000000
-5.000000
0.000000
0.000000
0.000000
0.000000
0.000000
0.000000
0.000000
0.000000
0.000000
0.000000
0.000000
0.000000
0.000000
0.000000
0.000000
0.000000
0.000000
0.000000
0.000000
0.000000
0.000000
0.000000
0.000000
0.000000
0.000000
0.000000
0.000000
0.000000
-5.000000
-5.000000
-5.000000
</DataArray>
</PointData>
<Cells>
<DataArray type='Int32' Name='connectivity' format='ascii'>
0
1
2
3
4
5
6
7
8
9
10
11
12
13
14
15
16
17
18
19
20
21
22
23
24
25
26
27
28
29
30
31
32
33
34
35
36
37
38
39
40
41
42
43
44
45
46
47
48
49
50
51
52
53
54
55
56
57
58
59
60
61
62
63
64
65
66
67
68
69
70
71
72
73
74
75
76
77
78
79
80
81
82
83
84
85
86
87
88
89
90
91
92
93
94
95
96
97
98
99
100
101
102
103
104
105
106
107
108
109
110
111
112
113
114
115
116
117
118
119
120
121
122
123
124
125
126
127
128
129
130
131
132
133
134
135
136
137
138
139
140
141
142
143
144
145
146
147
148
149
150
151
152
153
154
155
156
157
158
159
160
161
162
163
164
165
166
167
168
169
170
171
172
173
174
175
176
177
178
179
180
181
182
183
184
185
186
187
188
189
190
191
192
193
194
195
196
197
198
199
200
201
202
203
204
205
206
207
208
209
210
211
212
213
214
215
216
217
218
219
220
221
222
223
224
225
226
227
228
229
230
231
232
233
234
235
236
237
238
239
240
241
242
243
244
245
246
247
248
249
250
251
252
253
254
255
256
257
258
259
260
261
262
263
264
265
266
267
268
269
270
271
272
273
274
275
276
277
278
279
280
281
282
283
284
285
286
287
288
289
290
291
292
293
294
295
296
297
298
299
300
301
302
303
304
305
306
307
308
309
310
311
312
313
314
315
316
317
318
319
320
321
322
323
324
325
326
327
328
329
330
331
332
333
334
335
336
337
338
339
340
341
342
343
344
345
346
347
348
349
350
351
352
353
354
355
356
357
358
359
360
361
362
363
364
365
366
367
368
369
370
371
372
373
374
375
376
377
378
379
380
381
382
383
384
385
386
387
388
389
390
391
392
393
394
395
396
397
398
399
400
401
402
403
404
405
406
407
408
409
410
411
412
413
414
415
416
417
418
419
420
421
422
423
424
425
426
427
428
429
430
431
432
433
434
435
436
437
438
439
440
441
442
443
444
445
446
447
448
449
450
451
452
453
454
455
456
457
458
459
460
461
462
463
464
465
466
467
468
469
470
471
472
473
474
475
476
477
478
479
480
481
482
483
484
485
486
487
488
489
490
491
492
493
494
495
496
497
498
499
500
501
502
503
504
505
506
507
508
509
510
511
512
513
514
515
516
517
518
519
520
521
522
523
524
525
526
527
528
529
530
531
532
533
534
535
536
537
538
539
540
541
542
543
544
545
546
547
548
549
550
551
552
553
554
555
556
557
558
559
560
561
562
563
564
565
566
567
568
569
570
571
572
573
574
575
576
577
578
579
580
581
582
583
584
585
586
587
588
589
590
591
592
593
594
595
596
597
598
599
600
601
602
603
604
605
606
607
608
609
610
611
612
613
614
615
616
617
618
619
620
621
622
623
624
625
626
627
628
629
630
631
632
633
634
635
636
637
638
639
640
641
642
643
644
645
646
647
648
649
650
651
652
653
654
655
656
657
658
659
660
661
662
663
664
665
666
667
668
669
670
671
672
673
674
675
676
677
678
679
680
681
682
683
684
685
686
687
688
689
690
691
692
693
694
695
696
697
698
699
700
701
702
703
704
705
706
707
708
709
710
711
712
713
714
715
716
717
718
719
720
721
722
723
724
725
726
727
728
729
730
731
732
733
734
735
736
737
738
739
740
741
742
743
744
745
746
747
748
749
750
751
752