<?xml version='1.0' encoding='UTF-8'?>
<VTKFile xmlns='VTK' byte_order='LittleEndian' version='0.1' type='UnstructuredGrid'>
<UnstructuredGrid>
<Piece NumberOfCells='1488' NumberOfPoints='1488'>
<Points>
<DataArray NumberOfComponents='3' type='Float32' Name='Position' format='ascii'>
-0.075000 -0.075000 0.000000
-0.075000 -0.050000 0.000000
-0.075000 -0.025000 0.000000
-0.075000 0.000000 0.000000
-0.075000 0.025000 0.000000
-0.075000 0.050000 0.000000
-0.075000 0.075000 0.000000
-0.075000 0.100000 0.000000
-0.075000 0.125000 0.000000
-0.075000 0.150000 0.000000
-0.075000 0.175000 0.000000
-0.075000 0.200000 0.000000
-0.075000 0.225000 0.000000
-0.075000 0.250000 0.000000
-0.075000 0.275000 0.000000
-0.075000 0.300000 0.000000
-0.075000 0.325000 0.000000
-0.075000 0.350000 0.000000
-0.075000 0.375000 0.000000
-0.075000 0.400000 0.000000
-0.075000 0.425000 0.000000
-0.075000 0.450000 0.000000
-0.075000 0.475000 0.000000
-0.075000 0.500000 0.000000
-0.075000 0.525000 0.000000
-0.075000 0.550000 0.000000
-0.075000 0.575000 0.000000
-0.075000 0.600000 0.000000
-0.075000 0.625000 0.000000
-0.075000 0.650000 0.000000
-0.075000 0.675000 0.000000
-0.050000 -0.075000 0.000000
-0.050000 -0.050000 0.000000
-0.050000 -0.025000 0.000000
-0.050000 0.000000 0.000000
-0.050000 0.025000 0.000000
-0.050000 0.050000 0.000000
-0.050000 0.075000 0.000000
-0.050000 0.100000 0.000000
-0.050000 0.125000 0.000000
-0.050000 0.150000 0.000000
-0.050000 0.175000 0.000000
-0.050000 0.200000 0.000000
-0.050000 0.225000 0.000000
-0.050000 0.250000 0.000000
-0.050000 0.275000 0.000000
-0.050000 0.300000 0.000000
-0.050000 0.325000 0.000000
-0.050000 0.350000 0.000000
-0.050000 0.375000 0.000000
-0.050000 0.400000 0.000000
-0.050000 0.425000 0.000000
-0.050000 0.450000 0.000000
-0.050000 0.475000 0.000000
-0.050000 0.500000 0.000000
-0.050000 0.525000 0.000000
-0.050000 0.550000 0.000000
-0.050000 0.575000 0.000000
-0.050000 0.600000 0.000000
-0.050000 0.625000 0.000000
-0.050000 0.650000 0.000000
-0.050000 0.675000 0.000000
-0.025000 -0.075000 0.000000
-0.025000 -0.050000 0.000000
-0.025000 -0.025000 0.000000
-0.025000 0.000000 0.000000
-0.025000 0.025000 0.000000
-0.025000 0.050000 0.000000
-0.025000 0.075000 0.000000
-0.025000 0.100000 0.000000
-0.025000 0.125000 0.000000
-0.025000 0.150000 0.000000
-0.025000 0.175000 0.000000
-0.025000 0.200000 0.000000
-0.025000 0.225000 0.000000
-0.025000 0.250000 0.000000
-0.025000 0.275000 0.000000
-0.025000 0.300000 0.000000
-0.025000 0.325000 0.000000
-0.025000 0.350000 0.000000
-0.025000 0.375000 0.000000
-0.025000 0.400000 0.000000
-0.025000 0.425000 0.000000
-0.025000 0.450000 0.000000
-0.025000 0.475000 0.000000
-0.025000 0.500000 0.000000
-0.025000 0.525000 0.000000
-0.025000 0.550000 0.000000
-0.025000 0.575000 0.000000
-0.025000 0.600000 0.000000
-0.025000 0.625000 0.000000
-0.025000 0.650000 0.000000
-0.025000 0.675000 0.000000
0.000000 -0.075000 0.000000
0.000000 -0.050000 0.000000
0.000000 -0.025000 0.000000
0.000000 0.000000 0.000000
0.000000 0.025000 0.000000
0.000000 0.050000 0.000000
0.000000 0.075000 0.000000
0.000000 0.100000 0.000000
0.000000 0.125000 0.000000
0.000000 0.150000 0.000000
0.000000 0.175000 0.000000
0.000000 0.200000 0.000000
0.000000 0.225000 0.000000
0.000000 0.250000 0.000000
0.000000 0.275000 0.000000
0.000000 0.300000 0.000000
0.000000 0.325000 0.000000
0.000000 0.350000 0.000000
0.000000 0.375000 0.000000
0.000000 0.400000 0.000000
0.000000 0.425000 0.000000
0.000000 0.450000 0.000000
0.000000 0.475000 0.000000
0.000000 0.500000 0.000000
0.000000 0.525000 0.000000
0.000000 0.550000 0.000000
0.000000 0.575000 0.000000
0.000000 0.600000 0.000000
0.000000 0.625000 0.000000
0.000000 0.650000 0.000000
0.000000 0.675000 0.000000
0.025000 -0.075000 0.000000
0.025000 -0.050000 0.000000
0.025000 -0.025000 0.000000
0.025000 0.000000 0.000000
0.025000 0.025000 0.000000
0.025000 0.050000 0.000000
0.025000 0.075000 0.000000
0.025000 0.100000 0.000000
0.025000 0.125000 0.000000
0.025000 0.150000 0.000000
0.025000 0.175000 0.000000
0.025000 0.200000 0.000000
0.025000 0.225000 0.000000
0.025000 0.250000 0.000000
0.025000 0.275000 0.000000
0.025000 0.300000 0.000000
0.025000 0.325000 0.000000
0.025000 0.350000 0.000000
0.025000 0.375000 0.000000
0.025000 0.400000 0.000000
0.025000 0.425000 0.000000
0.025000 0.450000 0.000000
0.025000 0.475000 0.000000
0.025000 0.500000 0.000000
0.025000 0.525000 0.000000
0.025000 0.550000 0.000000
0.025000 0.575000 0.000000
0.025000 0.600000 0.000000
0.025000 0.625000 0.000000
0.025000 0.650000 0.000000
0.025000 0.675000 0.000000
0.050000 -0.075000 0.000000
0.050000 -0.050000 0.000000
0.050000 -0.025000 0.000000
0.050000 0.000000 0.000000
0.050000 0.025000 0.000000
0.050000 0.050000 0.000000
0.050000 0.075000 0.000000
0.050000 0.100000 0.000000
0.050000 0.125000 0.000000
0.050000 0.150000 0.000000
0.050000 0.175000 0.000000
0.050000 0.200000 0.000000
0.050000 0.225000 0.000000
0.050000 0.250000 0.000000
0.050000 0.275000 0.000000
0.050000 0.300000 0.000000
0.050000 0.325000 0.000000
0.050000 0.350000 0.000000
0.050000 0.375000 0.000000
0.050000 0.400000 0.000000
0.050000 0.425000 0.000000
0.050000 0.450000 0.000000
0.050000 0.475000 0.000000
0.050000 0.500000 0.000000
0.050000 0.525000 0.000000
0.050000 0.550000 0.000000
0.050000 0.575000 0.000000
0.050000 0.600000 0.000000
0.050000 0.625000 0.000000
0.050000 0.650000 0.000000
0.050000 0.675000 0.000000
0.075000 -0.075000 0.000000
0.075000 -0.050000 0.000000
0.075000 -0.025000 0.000000
0.075000 0.000000 0.000000
0.075000 0.025000 0.000000
0.075000 0.050000 0.000000
0.075000 0.075000 0.000000
0.075000 0.100000 0.000000
0.075000 0.125000 0.000000
0.075000 0.150000 0.000000
0.075000 0.175000 0.000000
0.075000 0.200000 0.000000
0.075000 0.225000 0.000000
0.075000 0.250000 0.000000
0.075000 0.275000 0.000000
0.075000 0.300000 0.000000
0.075000 0.325000 0.000000
0.075000 0.350000 0.000000
0.075000 0.375000 0.000000
0.075000 0.400000 0.000000
0.075000 0.425000 0.000000
0.075000 0.450000 0.000000
0.075000 0.475000 0.000000
0.075000 0.500000 0.000000
0.075000 0.525000 0.000000
0.075000 0.550000 0.000000
0.075000 0.575000 0.000000
0.075000 0.600000 0.000000
0.075000 0.625000 0.000000
0.075000 0.650000 0.000000
0.075000 0.675000 0.000000
0.100000 -0.075000 0.000000
0.100000 -0.050000 0.000000
0.100000 -0.025000 0.000000
0.100000 0.000000 0.000000
0.100000 0.025000 0.000000
0.100000 0.050000 0.000000
0.100000 0.075000 0.000000
0.100000 0.100000 0.000000
0.100000 0.125000 0.000000
0.100000 0.150000 0.000000
0.100000 0.175000 0.000000
0.100000 0.200000 0.000000
0.100000 0.225000 0.000000
0.100000 0.250000 0.000000
0.100000 0.275000 0.000000
0.100000 0.300000 0.000000
0.100000 0.325000 0.000000
0.100000 0.350000 0.000000
0.100000 0.375000 0.000000
0.100000 0.400000 0.000000
0.100000 0.425000 0.000000
0.100000 0.450000 0.000000
0.100000 0.475000 0.000000
0.100000 0.500000 0.000000
0.100000 0.525000 0.000000
0.100000 0.550000 0.000000
0.100000 0.575000 0.000000
0.100000 0.600000 0.000000
0.100000 0.625000 0.000000
0.100000 0.650000 0.000000
0.100000 0.675000 0.000000
0.125000 -0.075000 0.000000
0.125000 -0.050000 0.000000
0.125000 -0.025000 0.000000
0.125000 0.000000 0.000000
0.125000 0.025000 0.000000
0.125000 0.050000 0.000000
0.125000 0.075000 0.000000
0.125000 0.100000 0.000000
0.125000 0.125000 0.000000
0.125000 0.150000 0.000000
0.125000 0.175000 0.000000
0.125000 0.200000 0.000000
0.125000 0.225000 0.000000
0.125000 0.250000 0.000000
0.125000 0.275000 0.000000
0.125000 0.300000 0.000000
0.125000 0.325000 0.000000
0.125000 0.350000 0.000000
0.125000 0.375000 0.000000
0.125000 0.400000 0.000000
0.125000 0.425000 0.000000
0.125000 0.450000 0.000000
0.125000 0.475000 0.000000
0.125000 0.500000 0.000000
0.125000 0.525000 0.000000
0.125000 0.550000 0.000000
0.125000 0.575000 0.000000
0.125000 0.600000 0.000000
0.125000 0.625000 0.000000
0.125000 0.650000 0.000000
0.125000 0.675000 0.000000
0.150000 -0.075000 0.000000
0.150000 -0.050000 0.000000
0.150000 -0.025000 0.000000
0.150000 0.000000 0.000000
0.150000 0.025000 0.000000
0.150000 0.050000 0.000000
0.150000 0.075000 0.000000
0.150000 0.100000 0.000000
0.150000 0.125000 0.000000
0.150000 0.150000 0.000000
0.150000 0.175000 0.000000
0.150000 0.200000 0.000000
0.150000 0.225000 0.000000
0.150000 0.250000 0.000000
0.150000 0.275000 0.000000
0.150000 0.300000 0.000000
0.150000 0.325000 0.000000
0.150000 0.350000 0.000000
0.150000 0.375000 0.000000
0.150000 0.400000 0.000000
0.150000 0.425000 0.000000
0.150000 0.450000 0.000000
0.150000 0.475000 0.000000
0.150000 0.500000 0.000000
0.150000 0.525000 0.000000
0.150000 0.550000 0.000000
0.150000 0.575000 0.000000
0.150000 0.600000 0.000000
0.150000 0.625000 0.000000
0.150000 0.650000 0.000000
0.150000 0.675000 0.000000
0.175000 -0.075000 0.000000
0.175000 -0.050000 0.000000
0.175000 -0.025000 0.000000
0.175000 0.000000 0.000000
0.175000 0.025000 0.000000
0.175000 0.050000 0.000000
0.175000 0.075000 0.000000
0.175000 0.100000 0.000000
0.175000 0.125000 0.000000
0.175000 0.150000 0.000000
0.175000 0.175000 0.000000
0.175000 0.200000 0.000000
0.175000 0.225000 0.000000
0.175000 0.250000 0.000000
0.175000 0.275000 0.000000
0.175000 0.300000 0.000000
0.175000 0.325000 0.000000
0.175000 0.350000 0.000000
0.175000 0.375000 0.000000
0.175000 0.400000 0.000000
0.175000 0.425000 0.000000
0.175000 0.450000 0.000000
0.175000 0.475000 0.000000
0.175000 0.500000 0.000000
0.175000 0.525000 0.000000
0.175000 0.550000 0.000000
0.175000 0.575000 0.000000
0.175000 0.600000 0.000000
0.175000 0.625000 0.000000
0.175000 0.650000 0.000000
0.175000 0.675000 0.000000
0.200000 -0.075000 0.000000
0.200000 -0.050000 0.000000
0.200000 -0.025000 0.000000
0.200000 0.000000 0.000000
0.200000 0.025000 0.000000
0.200000 0.050000 0.000000
0.200000 0.075000 0.000000
0.200000 0.100000 0.000000
0.200000 0.125000 0.000000
0.200000 0.150000 0.000000
0.200000 0.175000 0.000000
0.200000 0.200000 0.000000
0.200000 0.225000 0.000000
0.200000 0.250000 0.000000
[...]
<PointData>
<DataArray NumberOfComponents='1' type='Int32' Name='ParticleType' format='ascii'>
4
4
4
4
4
4
4
4
4
4
4
4
4
4
4
4
4
4
4
4
4
4
4
4
4
4
4
4
2
2
2
4
4
4
4
4
4
4
4
4
4
4
4
4
4
4
4
4
4
4
4
4
4
4
4
4
4
4
4
2
2
2
4
4
3
3
3
3
3
3
3
3
3
3
3
3
3
3
3
3
3
3
3
3
3
3
3
3
3
3
2
2
2
4
4
3
3
3
3
3
3
3
3
3
3
3
3
3
3
3
3
3
3
3
3
3
3
3
3
3
3
2
2
2
4
4
3
3
0
0
0
0
0
0
0
0
0
0
0
0
0
0
0
0
0
0
0
0
0
0
1
1
2
2
2
4
4
3
3
0
0
0
0
0
0
0
0
0
0
0
0
0
0
0
0
0
0
0
0
0
0
0
1
2
2
2
4
4
3
3
0
0
0
0
0
0
0
0
0
0
0
0
0
0
0
0
0
0
0
0
0
0
0
1
2
2
2
4
4
3
3
0
0
0
0
0
0
0
0
0
0
0
0
0
0
0
0
0
0
0
0
0
0
0
1
2
2
2
4
4
3
3
0
0
0
0
0
0
0
0
0
0
0
0
0
0
0
0
0
0
0
0
0
0
0
1
2
2
2
4
4
3
3
0
0
0
0
0
0
0
0
0
0
0
0
0
0
0
0
0
0
0
0
0
0
0
1
2
2
2
4
4
3
3
0
0
0
0
0
0
0
0
0
0
0
0
0
0
0
0
0
0
0
0
0
0
0
1
2
2
2
4
4
3
3
0
0
0
0
0
0
0
0
0
0
0
0
0
0
0
0
0
0
0
0
0
0
0
1
2
2
2
4
4
3
3
0
0
0
0
0
0
0
0
0
0
0
0
0
0
0
0
0
0
0
0
0
0
0
1
2
2
2
4
4
3
3
0
0
0
0
0
0
0
0
0
0
0
0
0
0
0
0
0
0
0
0
0
0
0
1
2
2
2
4
4
3
3
0
0
0
0
0
0
0
0
0
0
0
0
0
0
0
0
0
0
0
0
0
0
0
1
2
2
2
4
4
3
3
0
0
0
0
0
0
0
0
0
0
0
0
0
0
0
0
0
0
0
0
0
0
0
1
2
2
2
4
4
3
3
0
0
0
0
0
0
0
0
0
0
0
0
0
0
0
0
0
0
0
0
0
0
0
1
2
2
2
4
4
3
3
0
0
0
0
0
0
0
0
0
0
0
0
0
0
0
0
0
0
0
0
0
0
0
1
2
2
2
4
4
3
3
0
0
0
0
0
0
0
0
0
0
0
0
0
0
0
0
0
0
0
0
0
0
0
1
2
2
2
4
4
3
3
0
0
0
0
0
0
0
0
0
0
0
0
0
0
0
0
0
0
0
0
0
0
0
1
2
2
2
4
4
3
3
0
0
0
0
0
0
0
0
0
0
0
0
0
0
0
0
0
0
0
0
0
0
0
1
2
2
2
4
4
3
3
0
0
0
0
0
0
0
0
0
0
0
0
0
0
0
0
0
0
0
0
0
0
0
1
2
2
2
4
4
3
3
0
0
0
0
0
0
0
0
0
0
0
0
0
0
0
0
0
0
0
0
0
0
0
1
2
2
2
4
4
3
3
0
0
0
0
0
0
0
0
0
0
0
0
0
0
0
0
0
0
0
0
0
0
0
1
2
2
2
4
4
3
3
0
0
0
0
0
0
0
0
0
0
0
0
0
0
0
0
0
0
0
0
0
0
0
1
2
2
2
4
4
3
3
0
0
0
0
0
0
0
0
0
0
0
0
0
0
0
0
0
0
0
0
0
0
0
1
2
2
2
4
4
3
3
0
0
0
0
0
0
0
0
0
0
0
0
0
0
0
0
0
0
0
0
0
0
0
1
2
2
2
4
4
3
3
0
0
0
0
0
0
0
0
0
0
0
0
0
0
0
0
0
0
0
0
0
0
0
1
2
2
2
4
4
3
3
0
0
0
0
0
0
0
0
0
0
0
0
0
0
0
0
0
0
0
0
0
0
0
1
2
2
2
4
4
3
3
0
0
0
0
0
0
0
0
0
0
0
0
0
0
0
0
0
0
0
0
0
0
0
1
2
2
2
4
4
3
3
0
0
0
0
0
0
0
0
0
0
0
0
0
0
0
0
0
0
0
0
0
0
0
1
2
2
2
4
4
3
3
0
0
0
0
0
0
0
0
0
0
0
0
0
0
0
0
0
0
0
0
0
0
0
1
2
2
2
4
4
3
3
0
0
0
0
0
0
0
0
0
0
0
0
0
0
0
0
0
0
0
0
0
0
0
1
2
2
2
4
4
3
3
0
0
0
0
0
0
0
0
0
0
0
0
0
0
0
0
0
0
0
0
0
0
0
1
2
2
2
4
4
3
3
0
0
0
0
0
0
0
0
0
0
0
0
0
0
0
0
0
0
0
0
0
0
0
1
2
2
2
4
4
3
3
0
0
0
0
0
0
0
0
0
0
0
0
0
0
0
0
0
0
0
0
0
0
0
1
2
2
2
4
4
3
3
0
0
0
0
0
0
0
0
0
0
0
0
0
0
0
0
0
0
0
0
0
0
0
1
2
2
2
4
4
3
3
0
0
0
0
0
0
0
0
0
0
0
0
0
0
0
0
0
0
0
0
0
0
0
1
2
2
2
4
4
3
3
0
0
0
0
0
0
0
0
0
0
0
0
0
0
0
0
0
0
0
0
0
0
0
1
2
2
2
4
4
3
3
0
0
0
0
0
0
0
0
0
0
0
0
0
0
0
0
0
0
0
0
0
0
0
1
2
2
2
4
4
3
3
0
0
0
0
0
0
0
0
0
0
0
0
0
0
0
0
0
0
0
0
0
0
0
1
2
2
2
4
4
3
3
0
0
0
0
0
0
0
0
0
0
0
0
0
0
0
0
0
0
0
0
0
0
0
1
2
2
2
4
4
3
3
0
0
0
0
0
0
0
0
0
0
0
0
0
0
0
0
0
0
0
0
0
0
0
1
2
2
2
4
4
3
3
0
0
0
0
0
0
0
0
0
0
0
0
0
0
0
0
0
0
0
0
0
0
1
1
2
2
2
4
4
3
3
3
3
3
3
3
3
3
3
3
3
3
3
3
3
3
3
3
3
3
3
3
3
3
3
2
2
2
4
4
3
3
3
3
3
3
3
3
3
3
3
3
3
3
3
3
3
3
3
3
3
3
3
3
3
3
2
2
2
4
4
4
4
4
4
4
4
4
4
4
4
4
4
4
4
4
4
4
4
4
4
4
4
4
4
4
4
2
2
2
4
4
4
4
4
4
4
4
4
4
4
4
4
4
4
4
4
4
4
4
4
4
4
4
4
4
4
4
2
2
2
</DataArray>
<DataArray NumberOfComponents='1' type='Float32' Name='Temperature' format='ascii'>
0.000000
0.000000
0.000000
0.000000
0.000000
0.000000
0.000000
0.000000
0.000000
0.000000
0.000000
0.000000
0.000000
0.000000
0.000000
0.000000
0.000000
0.000000
0.000000
0.000000
0.000000
0.000000
0.000000
0.000000
0.000000
0.000000
0.000000
0.000000
-5.000000
-5.000000
-5.000000
0.000000
0.000000
0.000000
0.000000
0.000000
0.000000
0.000000
0.000000
0.000000
0.000000
0.000000
0.000000
0.000000
0.000000
0.000000
0.000000
0.000000
0.000000
0.000000
0.000000
0.000000
0.000000
0.000000
0.000000
0.000000
0.000000
0.000000
0.000000
-5.000000
-5.000000
-5.000000
0.000000
0.000000
0.000000
0.000000
0.000000
0.000000
0.000000
0.000000
0.000000
0.000000
0.000000
0.000000
0.000000
0.000000
0.000000
0.000000
0.000000
0.000000
0.000000
0.000000
0.000000
0.000000
0.000000
0.000000
0.000000
0.000000
0.000000
0.000000
-5.000000
-5.000000
-5.000000
0.000000
0.000000
0.000000
0.000000
0.000000
0.000000
0.000000
0.000000
0.000000
0.000000
0.000000
0.000000
0.000000
0.000000
0.000000
0.000000
0.000000
0.000000
0.000000
0.000000
0.000000
0.000000
0.000000
0.000000
0.000000
0.000000
0.000000
0.000000
-5.000000
-5.000000
-5.000000
0.000000
0.000000
0.000000
0.000000
0.472238
0.797422
1.063725
1.249045
1.368966
1.440633
1.480887
1.502430
1.513618
1.519327
1.522123
1.523175
1.522826
1.520772
1.515874
1.505512
1.484407
1.442881
1.364752
1.226521
0.993998
0.651992
0.009869
0.007067
-5.000000
-5.000000
-5.000000
0.000000
0.000000
0.000000
0.000000
0.797489
1.346992
1.799074
2.114871
2.320312
2.444020
2.514368
2.552821
2.573492
2.584577
2.590324
2.592633
2.592031
2.587999
2.578642
2.559608
2.522068
2.449840
2.316056
2.082478
1.696285
1.140605
0.210936
0.007358
-5.000000
-5.000000
-5.000000
0.000000
0.000000
0.000000
0.000000
1.064167
1.799723
2.407055
2.833749
3.113619
3.284417
3.383838
3.440425
3.472820
3.491664
3.502283
3.506917
3.506095
3.499112
3.483591
3.453999
3.398927
3.297265
3.114029
2.800031
2.291179
1.566689
0.448607
0.007706
-5.000000
-5.000000
-5.000000
0.000000
0.000000
0.000000
0.000000
1.250576
2.117601
2.836755
3.346001
3.684395
3.895821
4.024205
4.102575
4.152036
4.184058
4.203842
4.213167
4.212181
4.200042
4.174403
4.129601
4.053333
3.922051
3.696181
3.320025
2.723434
1.882153
0.630347
0.007735
-5.000000
-5.000000
-5.000000
0.000000
0.000000
0.000000
0.000000
1.372971
2.328042
3.124782
3.695428
4.082767
4.334719
4.498854
4.610048
4.689276
4.746430
4.784563
4.803561
4.802463
4.780333
4.735694
4.664392
4.555629
4.386471
4.116279
3.686458
3.023420
2.099806
0.756172
0.007805
-5.000000
-5.000000
-5.000000
0.000000
0.000000
0.000000
0.000000
1.449533
2.462048
3.313577
3.934352
4.370683
4.673550
4.892150
5.060288
5.195151
5.301125
5.375579
5.413919
5.412754
5.371089
5.289727
5.168760
5.002706
4.773599
4.443951
3.955678
3.233634
2.247495
0.839994
0.008133
-5.000000
-5.000000
-5.000000
0.000000
0.000000
0.000000
0.000000
1.498536
2.551366
3.447721
4.119614
4.618256
4.998087
5.308525
5.578720
5.816477
6.014091
6.157139
6.232101
6.230903
6.152511
6.002327
5.789239
5.519356
5.186515
4.762272
4.192873
3.402890
2.358248
0.899925
0.008185
-5.000000
-5.000000
-5.000000
0.000000
0.000000
0.000000
0.000000
1.534372
2.621540
3.564357
4.300998
4.890849
5.393886
5.859016
6.305971
6.724478
7.084016
7.348403
7.488113
7.486897
7.343699
7.072050
6.696778
6.245649
5.735167
5.154769
4.459886
3.575449
2.461266
0.951900
0.007955
-5.000000
-5.000000
-5.000000
0.000000
0.000000
0.000000
0.000000
1.566969
2.690603
3.690727
4.517091
5.242673
5.937138
6.649065
7.382569
8.096535
8.721387
9.184346
9.429776
9.428534
9.179552
8.709237
8.068503
7.321668
6.524204
5.696251
4.808642
3.786381
2.578730
1.007748
0.008278
-5.000000
-5.000000
-5.000000
0.000000
0.000000
0.000000
0.000000
1.602106
2.769138
3.843107
4.791715
5.708879
6.680246
7.755571
8.916145
10.073240
11.096285
11.856450
12.259577
12.258275
11.851473
11.083824
10.044775
8.854692
7.629984
6.438261
5.272934
4.057473
2.724013
1.074454
0.008079
-5.000000
-5.000000
-5.000000
0.000000
0.000000
0.000000
0.000000
1.642001
2.860791
4.026181
5.130300
6.296067
7.632657
9.194015
10.931883
12.691189
14.255173
15.417414
16.032961
16.031547
15.412100
14.242161
12.662021
10.869673
9.067657
7.389762
5.858636
4.393108
2.900369
1.154009
0.008274
-5.000000
-5.000000
-5.000000
0.000000
0.000000
0.000000
0.000000
1.685988
2.963117
4.233329
5.518167
6.976060
8.746230
10.890316
13.325863
15.816463
18.036232
19.684011
20.555036
20.553460
19.678205
18.022421
15.786293
13.262623
10.763025
8.502410
6.537256
4.778176
3.100709
1.243598
0.008203
-5.000000
-5.000000
-5.000000
0.000000
0.000000
0.000000
0.000000
1.731393
3.069221
4.449155
5.924048
7.690362
9.920009
12.683884
15.864362
19.140379
22.061133
24.226618
25.369620
25.367860
24.220256
22.046413
19.109058
15.799956
12.555587
9.675263
7.250246
5.181346
3.309744
1.336794
0.007884
-5.000000
-5.000000
-5.000000
0.000000
0.000000
0.000000
0.000000
1.774674
3.170316
4.654587
6.309775
8.367816
11.030611
14.376702
18.254260
22.260945
25.836940
28.487581
29.885870
29.883949
28.480733
25.821433
22.228644
18.188865
14.247545
10.785061
7.926518
5.564557
3.508768
1.425659
0.008327
-5.000000
-5.000000
-5.000000
0.000000
0.000000
0.000000
0.000000
1.812611
3.258566
4.832941
6.642538
8.948224
11.975334
15.806507
20.260345
24.868233
28.984300
32.036402
33.646800
33.644770
32.029229
28.968271
24.835287
20.194300
15.676774
11.729200
8.505957
5.895135
3.681485
1.503122
0.008259
-5.000000
-5.000000
-5.000000
0.000000
0.000000
0.000000
0.000000
1.843171
3.329163
4.974357
6.903748
9.399034
12.701393
16.894489
21.774014
26.823768
31.336977
34.685541
36.453256
36.451175
34.678212
31.320699
26.790517
21.707663
16.764470
12.454909
8.956046
6.154585
3.818296
1.564921
0.008416
-5.000000
-5.000000
-5.000000
0.000000
0.000000
0.000000
0.000000
1.865783
3.380942
5.076917
7.090838
9.717812
13.208452
17.645807
22.809750
28.153161
32.930242
36.476367
38.349289
38.347196
36.469003
32.913904
28.119838
22.743327
17.515706
12.961797
9.274330
6.340364
3.917384
1.610073
0.008002
-5.000000
-5.000000
-5.000000
0.000000
0.000000
0.000000
0.000000
1.881066
3.415601
5.144729
7.212887
9.922967
13.530611
18.117775
23.454490
28.975354
33.911742
37.577369
39.514093
39.512009
37.570027
33.895438
28.942071
23.388109
17.987696
13.283893
9.479173
6.461514
3.982803
1.640197
0.008460
-5.000000
-5.000000
-5.000000
0.000000
0.000000
0.000000
0.000000
1.890233
3.436198
5.184567
7.283691
10.040500
13.713034
18.382328
23.812973
29.429860
34.452340
38.182612
40.153910
40.151839
38.175306
34.436090
29.396643
23.746659
18.252297
13.466302
9.596528
6.531769
4.021178
1.658028
0.008324
-5.000000
-5.000000
-5.000000
0.000000
0.000000
0.000000
0.000000
1.894473
3.445659
5.202705
7.315625
10.093018
13.793846
18.498654
23.969669
29.627682
34.686991
38.444927
40.431035
40.428971
38.437645
34.670776
29.594507
23.903399
18.368656
13.547114
9.648965
6.563445
4.038628
1.666196
0.008406
-5.000000
-5.000000
-5.000000
0.000000
0.000000
0.000000
0.000000
1.894496
3.445707
5.202785
7.315745
10.093188
13.794072
18.498940
23.970015
29.628082
34.687438
38.445408
40.431534
40.429470
38.438126
34.671223
29.594907
23.903744
18.368942
13.547340
9.649133
6.563563
4.038702
1.666235
0.008407
-5.000000
-5.000000
-5.000000
0.000000
0.000000
0.000000
0.000000
1.890304
3.436342
5.184805
7.284049
10.041001
13.713692
18.383147
23.813946
29.430972
34.453568
38.183924
40.155267
40.153196
38.176618
34.437318
29.397754
23.747632
18.253116
13.466959
9.597025
6.532120
4.021401
1.658147
0.008328
-5.000000
-5.000000
-5.000000
0.000000
0.000000
0.000000
0.000000
1.881188
3.415843
5.145128
7.213475
9.923767
13.531627
18.118989
23.455870
28.976868
33.913360
37.579060
39.515824
39.513740
37.571718
33.897055
28.943585
23.389489
17.988908
13.284906
9.479967
6.462090
3.983176
1.640397
0.008469
-5.000000
-5.000000
-5.000000
0.000000
0.000000
0.000000
0.000000
1.865957
3.381284
5.077468
7.091626
9.718835
13.209666
17.647131
22.811096
28.154463
32.931478
36.477550
38.350445
38.348352
36.470185
32.915139
28.121138
22.744671
17.517028
12.963007
9.275345
6.341134
3.917899
1.610355
0.008019
-5.000000
-5.000000
-5.000000
0.000000
0.000000
0.000000
0.000000
1.843395
3.329597
4.975038
6.904679
9.400156
12.702563
16.895501
21.774671
26.823954
31.336703
34.684922
36.452459
36.450377
34.677591
31.320422
26.790700
21.708317
16.765479
12.456073
8.957157
6.155495
3.818930
1.565278
0.008444
-5.000000
-5.000000
-5.000000
0.000000
0.000000
0.000000
0.000000
1.812879
3.259075
4.833719
6.643544
8.949306
11.976202
15.806774
20.259649
24.866390
28.981380
32.032685
33.642671
33.640641
32.025510
28.965348
24.833442
20.193602
15.677037
11.730061
8.507025
5.896114
3.682207
1.503540
0.008295
-5.000000
-5.000000
-5.000000
0.000000
0.000000
0.000000
0.000000
1.774973
3.170879
4.655425
6.310798
8.368773
11.031052
14.376036
18.251941
22.256712
25.830936
28.480278
29.877901
29.875980
28.473429
25.815427
22.224409
18.186544
14.246874
10.785494
7.927459
5.565548
3.509543
1.426120
0.008383
-5.000000
-5.000000
-5.000000
0.000000
0.000000
0.000000
0.000000
1.731711
3.069814
4.450023
5.925068
7.691218
9.920140
12.682557
15.860902
19.134463
22.052962
24.216806
25.358969
25.357209
24.210443
22.038241
19.103141
15.796493
12.554256
9.675385
7.251085
5.182332
3.310543
1.337279
0.007948
-5.000000
-5.000000
-5.000000
0.000000
0.000000
0.000000
0.000000
1.686311
2.963718
4.234207
5.519200
6.976931
8.746378
10.889008
13.322423
15.810568
18.028083
19.674221
20.544407
20.542830
19.668414
18.014271
15.780396
13.259180
10.761713
8.502549
6.538109
4.779173
3.101517
1.244086
0.008257
-5.000000
-5.000000
-5.000000
0.000000
0.000000
0.000000
0.000000
1.642316
2.861381
4.027056
5.131370
6.297079
7.633158
9.193414
10.929634
12.687028
14.249243
15.410188
16.025068
16.023654
15.404872
14.236229
12.657858
10.867420
9.067049
7.390252
5.859628
4.394140
2.901173
1.154486
0.008322
-5.000000
-5.000000
-5.000000
0.000000
0.000000
0.000000
0.000000
1.602405
2.769704
3.843964
4.792820
5.710077
6.681243
7.755977
8.915597
10.071552
11.093524
11.852896
12.255613
12.254311
11.847917
11.081061
10.043083
8.854139
7.630382
6.439245
5.274109
4.058537
2.724797
1.074908
0.008125
-5.000000
-5.000000
-5.000000
0.000000
0.000000
0.000000
0.000000
1.567253
2.691141
3.691555
4.518206
5.244010
5.938548
6.650339
7.383505
8.097014
8.721416
9.184037
9.429293
9.428050
9.179242
8.709262
8.068976
7.322595
6.525466
5.697642
4.809948
3.787448
2.579480
1.008172
0.008306
-5.000000
-5.000000
-5.000000
0.000000
0.000000
0.000000
0.000000
1.534644
2.622055
3.565154
4.302095
4.892236
5.395512
5.860792
6.307801
6.726291
7.085785
7.350134
7.489824
7.488607
7.345427
7.073814
6.698584
6.247467
5.736924
5.156366
4.461230
3.576485
2.461973
0.952298
0.007990
-5.000000
-5.000000
-5.000000
0.000000
0.000000
0.000000
0.000000
1.498805
2.551870
3.448493
4.120677
4.619623
4.999749
5.310456
5.580879
5.818820
6.016578
6.159728
6.234743
6.233545
6.155097
6.004808
5.791572
5.521497
5.188417
4.763891
4.194177
3.403870
2.358914
0.900306
0.008231
-5.000000
-5.000000
-5.000000
0.000000
0.000000
0.000000
0.000000
1.449798
2.462541
3.314322
3.935367
4.371981
4.675134
4.894012
5.062407
5.197498
5.303659
5.378248
5.416657
5.415492
5.373753
5.292252
5.171092
5.004799
4.775417
4.445469
3.956884
3.234535
2.248111
0.840360
0.008222
-5.000000
-5.000000
-5.000000
0.000000
0.000000
0.000000
0.000000
1.373211
2.328488
3.125458
3.696347
4.083936
4.336136
4.500512
4.611928
4.691353
4.748669
4.786918
4.805975
4.804876
4.782682
4.737921
4.666447
4.557471
4.388065
4.117603
3.687499
3.024186
2.100328
0.756493
0.008019
-5.000000
-5.000000
-5.000000
0.000000
0.000000
0.000000
0.000000
1.250741
2.117920
2.837261
3.346713
3.685321
3.896955
4.025533
4.104075
4.153684
4.185825
4.205692
4.215059
4.214071
4.201884
4.176154
4.131220
4.054782
3.923295
3.697193
3.320789
2.723958
1.882478
0.630541
0.008101
-5.000000
-5.000000
-5.000000
0.000000
0.000000
0.000000
0.000000
1.064194
1.799814
2.407262
2.834112
3.114155
3.285122
3.384695
3.441410
3.473910
3.492834
3.503507
3.508168
3.507344
3.500328
3.484744
3.455055
3.399853
3.298025
3.114593
2.800382
2.291331
1.566700
0.448552
0.007540
-5.000000
-5.000000
-5.000000
0.000000
0.000000
0.000000
0.000000
0.797358
1.346821
1.798933
2.114824
2.320390
2.444226
2.514686
2.553231
2.573973
2.585108
2.590888
2.593213
2.592609
2.588556
2.579157
2.560055
2.522420
2.450063
2.316123
2.082377
1.696043
1.140281
0.210627
0.007409
-5.000000
-5.000000
-5.000000
0.000000
0.000000
0.000000
0.000000
0.472019
0.797097
1.063368
1.248724
1.368718
1.440466
1.480792
1.502393
1.513622
1.519361
1.522174
1.523234
1.522883
1.520818
1.515894
1.505491
1.484324
1.442714
1.364479
1.226139
0.993541
0.651527
0.009925
0.005590
-5.000000
-5.000000
-5.000000
0.000000
0.000000
0.000000
0.000000
0.000000
0.000000
0.000000
0.000000
0.000000
0.000000
0.000000
0.000000
0.000000
0.000000
0.000000
0.000000
0.000000
0.000000
0.000000
0.000000
0.000000
0.000000
0.000000
0.000000
0.000000
0.000000
0.000000
0.000000
-5.000000
-5.000000
-5.000000
0.000000
0.000000
0.000000
0.000000
0.000000
0.000000
0.000000
0.000000
0.000000
0.000000
0.000000
0.000000
0.000000
0.000000
0.000000
0.000000
0.000000
0.000000
0.000000
0.000000
0.000000
0.000000
0.000000
0.000000
0.000000
0.000000
0.000000
0.000000
-5.000000
-5.000000
-5.000000
0.000000
0.000000
0.000000
0.000000
0.000000
0.000000
0.000000
0.000000
0.000000
0.000000
0.000000
0.000000
0.000000
0.000000
0.000000
0.000000
0.000000
0.000000
0.000000
0.000000
0.000000
0.000000
0.000000
0.000000
0.000000
0.000000
0.000000
0.000000
-5.000000
-5.000000
-5.000000
0.000000
0.000000
0.000000
0.000000
0.000000
0.000000
0.000000
0.000000
0.000000
0.000000
0.000000
0.000000
0.000000
0.000000
0.000000
0.000000
0.000000
0.000000
0.000000
0.000000
0.000000
0.000000
0.000000
0.000000
0.000000
0.000000
0.000000
0.000000
-5.000000
-5.000000
-5.000000
</DataArray>
</PointData>
<Cells>
<DataArray type='Int32' Name='connectivity' format='ascii'>
0
1
2
3
4
5
6
7
8
9
10
11
12
13
14
15
16
17
18
19
20
21
22
23
24
25
26
27
28
29
30
31
32
33
34
35
36
37
38
39
40
41
42
43
44
45
46
47
48
49
50
51
52
53
54
55
56
57
58
59
60
61
62
63
64
65
66
67
68
69
70
71
72
73
74
75
76
77
78
79
80
81
82
83
84
85
86
87
88
89
90
91
92
93
94
95
96
97
98
99
100
101
102
103
104
105
106
107
108
109
110
111
112
113
114
115
116
117
118
119
120
121
122
123
124
125
126
127
128
129
130
131
132
133
134
135
136
137
138
139
140
141
142
143
144
145
146
147
148
149
150
151
152
153
154
155
156
157
158
159
160
161
162
163
164
165
166
167
168
169
170
171
172
173
174
175
176
177
178
179
180
181
182
183
184
185
186
187
188
189
190
191
192
193
194
195
196
197
198
199
200
201
202
203
204
205
206
207
208
209
210
211
212
213
214
215
216
217
218
219
220
221
222
223
224
225
226
227
228
229
230
231
232
233
234
235
236
237
238
239
240
241
242
243
244
245
246
247
248
249
250
251
252
253
254
255
256
257
258
259
260
261
262
263
264
265
266
267
268
269
270
271
272
273
274
275
276
277
278
279
280
281
282
283
284
285
286
287
288
289
290
291
292
293
294
295
296
297
298
299
300
301
302
303
304
305
306
307
308
309
310
311
312
313
314
315
316
317
318
319
320
321
322
323
324
325
326
327
328
329
330
331
332
333
334
335
336
337
338
339
340
341
342
343
344
345
346
347
348
349
350
351
352
353
354
355
356
357
358
359
360
361
362
363
364
365
366
367
368
369
370
371
372
373
374
375
376
377
378
379
380
381
382
383
384
385
386
387
388
389
390
391
392
393
394
395
396
397
398
399
400
401
402
403
404
405
406
407
408
409
410
411
412
413
414
415
416
417
418
419
420
421
422
423
424
425
426
427
428
429
430
431
432
433
434
435
436
437
438
439
440
441
442
443
444
445
446
447
448
449
450
451
452
453
454
455
456
457
458
459
460
461
462
463
464
465
466
467
468
469
470
471
472
473
474
475
476
477
478
479
480
481
482
483
484
485
486
487
488
489
490
491
492
493
494
495
496
497
498
499
500
501
502
503
504
505
506
507
508
509
510
511
512
513
514
515
516
517
518
519
520
521
522
523
524
525
526
527
528
529
530
531
532
533
534
535
536
537
538
539
540
541
542
543
544
545
546
547
548
549
550
551
552
553
554
555
556
557
558
559
560
561
562
563
564
565
566
567
568
569
570
571
572
573
574
575
576
577
578
579
580
581
582
583
584
585
586
587
588
589
590
591
592
593
594
595
596
597
598
599
600
601
602
603
604
605
606
607
608
609
610
611
612
613
614
615
616
617
618
619
620
621
622
623
624
625
626
627
628
629
630
631
632
633
634
635
636
637
638
639
640
641
642
643
644
645
646
647
648
649
650
651
652
653
654
655
656
657
658
659
660
661
662
663
664
665
666
667
668
669
670
671
672
673
674
675
676
677
678
679
680
681
682
683
684
685
686
687
688
689
690
691
692
693
694
695
696
697
698
699
700
701
702
703
704
705
706
707
708
709
710
711
712
713
714
715
716
717
718
719
720
721
722
723
724
725
726
727
728
729
730
731
732
733
734
735
736
737
738
739
740
741
742
743
744
745
746
747
748
749
750
751
752
753
754
755
756