<?xml version='1.0' encoding='UTF-8'?>
<VTKFile xmlns='VTK' byte_order='LittleEndian' version='0.1' type='UnstructuredGrid'>
<UnstructuredGrid>
<Piece NumberOfCells='1488' NumberOfPoints='1488'>
<Points>
<DataArray NumberOfComponents='3' type='Float32' Name='Position' format='ascii'>
-0.075000 -0.075000 0.000000
-0.075000 -0.050000 0.000000
-0.075000 -0.025000 0.000000
-0.075000 0.000000 0.000000
-0.075000 0.025000 0.000000
-0.075000 0.050000 0.000000
-0.075000 0.075000 0.000000
-0.075000 0.100000 0.000000
-0.075000 0.125000 0.000000
-0.075000 0.150000 0.000000
-0.075000 0.175000 0.000000
-0.075000 0.200000 0.000000
-0.075000 0.225000 0.000000
-0.075000 0.250000 0.000000
-0.075000 0.275000 0.000000
-0.075000 0.300000 0.000000
-0.075000 0.325000 0.000000
-0.075000 0.350000 0.000000
-0.075000 0.375000 0.000000
-0.075000 0.400000 0.000000
-0.075000 0.425000 0.000000
-0.075000 0.450000 0.000000
-0.075000 0.475000 0.000000
-0.075000 0.500000 0.000000
-0.075000 0.525000 0.000000
-0.075000 0.550000 0.000000
-0.075000 0.575000 0.000000
-0.075000 0.600000 0.000000
-0.075000 0.625000 0.000000
-0.075000 0.650000 0.000000
-0.075000 0.675000 0.000000
-0.050000 -0.075000 0.000000
-0.050000 -0.050000 0.000000
-0.050000 -0.025000 0.000000
-0.050000 0.000000 0.000000
-0.050000 0.025000 0.000000
-0.050000 0.050000 0.000000
-0.050000 0.075000 0.000000
-0.050000 0.100000 0.000000
-0.050000 0.125000 0.000000
-0.050000 0.150000 0.000000
-0.050000 0.175000 0.000000
-0.050000 0.200000 0.000000
-0.050000 0.225000 0.000000
-0.050000 0.250000 0.000000
-0.050000 0.275000 0.000000
-0.050000 0.300000 0.000000
-0.050000 0.325000 0.000000
-0.050000 0.350000 0.000000
-0.050000 0.375000 0.000000
-0.050000 0.400000 0.000000
-0.050000 0.425000 0.000000
-0.050000 0.450000 0.000000
-0.050000 0.475000 0.000000
-0.050000 0.500000 0.000000
-0.050000 0.525000 0.000000
-0.050000 0.550000 0.000000
-0.050000 0.575000 0.000000
-0.050000 0.600000 0.000000
-0.050000 0.625000 0.000000
-0.050000 0.650000 0.000000
-0.050000 0.675000 0.000000
-0.025000 -0.075000 0.000000
-0.025000 -0.050000 0.000000
-0.025000 -0.025000 0.000000
-0.025000 0.000000 0.000000
-0.025000 0.025000 0.000000
-0.025000 0.050000 0.000000
-0.025000 0.075000 0.000000
-0.025000 0.100000 0.000000
-0.025000 0.125000 0.000000
-0.025000 0.150000 0.000000
-0.025000 0.175000 0.000000
-0.025000 0.200000 0.000000
-0.025000 0.225000 0.000000
-0.025000 0.250000 0.000000
-0.025000 0.275000 0.000000
-0.025000 0.300000 0.000000
-0.025000 0.325000 0.000000
-0.025000 0.350000 0.000000
-0.025000 0.375000 0.000000
-0.025000 0.400000 0.000000
-0.025000 0.425000 0.000000
-0.025000 0.450000 0.000000
-0.025000 0.475000 0.000000
-0.025000 0.500000 0.000000
-0.025000 0.525000 0.000000
-0.025000 0.550000 0.000000
-0.025000 0.575000 0.000000
-0.025000 0.600000 0.000000
-0.025000 0.625000 0.000000
-0.025000 0.650000 0.000000
-0.025000 0.675000 0.000000
0.000000 -0.075000 0.000000
0.000000 -0.050000 0.000000
0.000000 -0.025000 0.000000
0.000000 0.000000 0.000000
0.000000 0.025000 0.000000
0.000000 0.050000 0.000000
0.000000 0.075000 0.000000
0.000000 0.100000 0.000000
0.000000 0.125000 0.000000
0.000000 0.150000 0.000000
0.000000 0.175000 0.000000
0.000000 0.200000 0.000000
0.000000 0.225000 0.000000
0.000000 0.250000 0.000000
0.000000 0.275000 0.000000
0.000000 0.300000 0.000000
0.000000 0.325000 0.000000
0.000000 0.350000 0.000000
0.000000 0.375000 0.000000
0.000000 0.400000 0.000000
0.000000 0.425000 0.000000
0.000000 0.450000 0.000000
0.000000 0.475000 0.000000
0.000000 0.500000 0.000000
0.000000 0.525000 0.000000
0.000000 0.550000 0.000000
0.000000 0.575000 0.000000
0.000000 0.600000 0.000000
0.000000 0.625000 0.000000
0.000000 0.650000 0.000000
0.000000 0.675000 0.000000
0.025000 -0.075000 0.000000
0.025000 -0.050000 0.000000
0.025000 -0.025000 0.000000
0.025000 0.000000 0.000000
0.025000 0.025000 0.000000
0.025000 0.050000 0.000000
0.025000 0.075000 0.000000
0.025000 0.100000 0.000000
0.025000 0.125000 0.000000
0.025000 0.150000 0.000000
0.025000 0.175000 0.000000
0.025000 0.200000 0.000000
0.025000 0.225000 0.000000
0.025000 0.250000 0.000000
0.025000 0.275000 0.000000
0.025000 0.300000 0.000000
0.025000 0.325000 0.000000
0.025000 0.350000 0.000000
0.025000 0.375000 0.000000
0.025000 0.400000 0.000000
0.025000 0.425000 0.000000
0.025000 0.450000 0.000000
0.025000 0.475000 0.000000
0.025000 0.500000 0.000000
0.025000 0.525000 0.000000
0.025000 0.550000 0.000000
0.025000 0.575000 0.000000
0.025000 0.600000 0.000000
0.025000 0.625000 0.000000
0.025000 0.650000 0.000000
0.025000 0.675000 0.000000
0.050000 -0.075000 0.000000
0.050000 -0.050000 0.000000
0.050000 -0.025000 0.000000
0.050000 0.000000 0.000000
0.050000 0.025000 0.000000
0.050000 0.050000 0.000000
0.050000 0.075000 0.000000
0.050000 0.100000 0.000000
0.050000 0.125000 0.000000
0.050000 0.150000 0.000000
0.050000 0.175000 0.000000
0.050000 0.200000 0.000000
0.050000 0.225000 0.000000
0.050000 0.250000 0.000000
0.050000 0.275000 0.000000
0.050000 0.300000 0.000000
0.050000 0.325000 0.000000
0.050000 0.350000 0.000000
0.050000 0.375000 0.000000
0.050000 0.400000 0.000000
0.050000 0.425000 0.000000
0.050000 0.450000 0.000000
0.050000 0.475000 0.000000
0.050000 0.500000 0.000000
0.050000 0.525000 0.000000
0.050000 0.550000 0.000000
0.050000 0.575000 0.000000
0.050000 0.600000 0.000000
0.050000 0.625000 0.000000
0.050000 0.650000 0.000000
0.050000 0.675000 0.000000
0.075000 -0.075000 0.000000
0.075000 -0.050000 0.000000
0.075000 -0.025000 0.000000
0.075000 0.000000 0.000000
0.075000 0.025000 0.000000
0.075000 0.050000 0.000000
0.075000 0.075000 0.000000
0.075000 0.100000 0.000000
0.075000 0.125000 0.000000
0.075000 0.150000 0.000000
0.075000 0.175000 0.000000
0.075000 0.200000 0.000000
0.075000 0.225000 0.000000
0.075000 0.250000 0.000000
0.075000 0.275000 0.000000
0.075000 0.300000 0.000000
0.075000 0.325000 0.000000
0.075000 0.350000 0.000000
0.075000 0.375000 0.000000
0.075000 0.400000 0.000000
0.075000 0.425000 0.000000
0.075000 0.450000 0.000000
0.075000 0.475000 0.000000
0.075000 0.500000 0.000000
0.075000 0.525000 0.000000
0.075000 0.550000 0.000000
0.075000 0.575000 0.000000
0.075000 0.600000 0.000000
0.075000 0.625000 0.000000
0.075000 0.650000 0.000000
0.075000 0.675000 0.000000
0.100000 -0.075000 0.000000
0.100000 -0.050000 0.000000
0.100000 -0.025000 0.000000
0.100000 0.000000 0.000000
0.100000 0.025000 0.000000
0.100000 0.050000 0.000000
0.100000 0.075000 0.000000
0.100000 0.100000 0.000000
0.100000 0.125000 0.000000
0.100000 0.150000 0.000000
0.100000 0.175000 0.000000
0.100000 0.200000 0.000000
0.100000 0.225000 0.000000
0.100000 0.250000 0.000000
0.100000 0.275000 0.000000
0.100000 0.300000 0.000000
0.100000 0.325000 0.000000
0.100000 0.350000 0.000000
0.100000 0.375000 0.000000
0.100000 0.400000 0.000000
0.100000 0.425000 0.000000
0.100000 0.450000 0.000000
0.100000 0.475000 0.000000
0.100000 0.500000 0.000000
0.100000 0.525000 0.000000
0.100000 0.550000 0.000000
0.100000 0.575000 0.000000
0.100000 0.600000 0.000000
0.100000 0.625000 0.000000
0.100000 0.650000 0.000000
0.100000 0.675000 0.000000
0.125000 -0.075000 0.000000
0.125000 -0.050000 0.000000
0.125000 -0.025000 0.000000
0.125000 0.000000 0.000000
0.125000 0.025000 0.000000
0.125000 0.050000 0.000000
0.125000 0.075000 0.000000
0.125000 0.100000 0.000000
0.125000 0.125000 0.000000
0.125000 0.150000 0.000000
0.125000 0.175000 0.000000
0.125000 0.200000 0.000000
0.125000 0.225000 0.000000
0.125000 0.250000 0.000000
0.125000 0.275000 0.000000
0.125000 0.300000 0.000000
0.125000 0.325000 0.000000
0.125000 0.350000 0.000000
0.125000 0.375000 0.000000
0.125000 0.400000 0.000000
0.125000 0.425000 0.000000
0.125000 0.450000 0.000000
0.125000 0.475000 0.000000
0.125000 0.500000 0.000000
0.125000 0.525000 0.000000
0.125000 0.550000 0.000000
0.125000 0.575000 0.000000
0.125000 0.600000 0.000000
0.125000 0.625000 0.000000
0.125000 0.650000 0.000000
0.125000 0.675000 0.000000
0.150000 -0.075000 0.000000
0.150000 -0.050000 0.000000
0.150000 -0.025000 0.000000
0.150000 0.000000 0.000000
0.150000 0.025000 0.000000
0.150000 0.050000 0.000000
0.150000 0.075000 0.000000
0.150000 0.100000 0.000000
0.150000 0.125000 0.000000
0.150000 0.150000 0.000000
0.150000 0.175000 0.000000
0.150000 0.200000 0.000000
0.150000 0.225000 0.000000
0.150000 0.250000 0.000000
0.150000 0.275000 0.000000
0.150000 0.300000 0.000000
0.150000 0.325000 0.000000
0.150000 0.350000 0.000000
0.150000 0.375000 0.000000
0.150000 0.400000 0.000000
0.150000 0.425000 0.000000
0.150000 0.450000 0.000000
0.150000 0.475000 0.000000
0.150000 0.500000 0.000000
0.150000 0.525000 0.000000
0.150000 0.550000 0.000000
0.150000 0.575000 0.000000
0.150000 0.600000 0.000000
0.150000 0.625000 0.000000
0.150000 0.650000 0.000000
0.150000 0.675000 0.000000
0.175000 -0.075000 0.000000
0.175000 -0.050000 0.000000
0.175000 -0.025000 0.000000
0.175000 0.000000 0.000000
0.175000 0.025000 0.000000
0.175000 0.050000 0.000000
0.175000 0.075000 0.000000
0.175000 0.100000 0.000000
0.175000 0.125000 0.000000
0.175000 0.150000 0.000000
0.175000 0.175000 0.000000
0.175000 0.200000 0.000000
0.175000 0.225000 0.000000
0.175000 0.250000 0.000000
0.175000 0.275000 0.000000
0.175000 0.300000 0.000000
0.175000 0.325000 0.000000
0.175000 0.350000 0.000000
0.175000 0.375000 0.000000
0.175000 0.400000 0.000000
0.175000 0.425000 0.000000
0.175000 0.450000 0.000000
0.175000 0.475000 0.000000
0.175000 0.500000 0.000000
0.175000 0.525000 0.000000
0.175000 0.550000 0.000000
0.175000 0.575000 0.000000
0.175000 0.600000 0.000000
0.175000 0.625000 0.000000
0.175000 0.650000 0.000000
0.175000 0.675000 0.000000
0.200000 -0.075000 0.000000
0.200000 -0.050000 0.000000
0.200000 -0.025000 0.000000
0.200000 0.000000 0.000000
0.200000 0.025000 0.000000
0.200000 0.050000 0.000000
0.200000 0.075000 0.000000
0.200000 0.100000 0.000000
0.200000 0.125000 0.000000
0.200000 0.150000 0.000000
0.200000 0.175000 0.000000
0.200000 0.200000 0.000000
0.200000 0.225000 0.000000
0.200000 0.250000 0.000000
[...]
<PointData>
<DataArray NumberOfComponents='1' type='Int32' Name='ParticleType' format='ascii'>
4
4
4
4
4
4
4
4
4
4
4
4
4
4
4
4
4
4
4
4
4
4
4
4
4
4
4
4
2
2
2
4
4
4
4
4
4
4
4
4
4
4
4
4
4
4
4
4
4
4
4
4
4
4
4
4
4
4
4
2
2
2
4
4
3
3
3
3
3
3
3
3
3
3
3
3
3
3
3
3
3
3
3
3
3
3
3
3
3
3
2
2
2
4
4
3
3
3
3
3
3
3
3
3
3
3
3
3
3
3
3
3
3
3
3
3
3
3
3
3
3
2
2
2
4
4
3
3
0
0
0
0
0
0
0
0
0
0
0
0
0
0
0
0
0
0
0
0
0
1
1
2
2
2
2
4
4
3
3
0
0
0
0
0
0
0
0
0
0
0
0
0
0
0
0
0
0
0
0
0
0
1
2
2
2
2
4
4
3
3
0
0
0
0
0
0
0
0
0
0
0
0
0
0
0
0
0
0
0
0
0
0
1
2
2
2
2
4
4
3
3
0
0
0
0
0
0
0
0
0
0
0
0
0
0
0
0
0
0
0
0
0
0
1
2
2
2
2
4
4
3
3
0
0
0
0
0
0
0
0
0
0
0
0
0
0
0
0
0
0
0
0
0
0
1
2
2
2
2
4
4
3
3
0
0
0
0
0
0
0
0
0
0
0
0
0
0
0
0
0
0
0
0
0
0
1
2
2
2
2
4
4
3
3
0
0
0
0
0
0
0
0
0
0
0
0
0
0
0
0
0
0
0
0
0
0
1
2
2
2
2
4
4
3
3
0
0
0
0
0
0
0
0
0
0
0
0
0
0
0
0
0
0
0
0
0
0
1
2
2
2
2
4
4
3
3
0
0
0
0
0
0
0
0
0
0
0
0
0
0
0
0
0
0
0
0
0
0
0
2
2
2
2
4
4
3
3
0
0
0
0
0
0
0
0
0
0
0
0
0
0
0
0
0
0
0
0
0
0
0
2
2
2
2
4
4
3
3
0
0
0
0
0
0
0
0
0
0
0
0
0
0
0
0
0
0
0
0
0
0
0
1
2
2
2
4
4
3
3
0
0
0
0
0
0
0
0
0
0
0
0
0
0
0
0
0
0
0
0
0
0
0
1
2
2
2
4
4
3
3
0
0
0
0
0
0
0
0
0
0
0
0
0
0
0
0
0
0
0
0
0
0
0
1
2
2
2
4
4
3
3
0
0
0
0
0
0
0
0
0
0
0
0
0
0
0
0
0
0
0
0
0
0
0
1
2
2
2
4
4
3
3
0
0
0
0
0
0
0
0
0
0
0
0
0
0
0
0
0
0
0
0
0
0
0
1
2
2
2
4
4
3
3
0
0
0
0
0
0
0
0
0
0
0
0
0
0
0
0
0
0
0
0
0
0
0
1
2
2
2
4
4
3
3
0
0
0
0
0
0
0
0
0
0
0
0
0
0
0
0
0
0
0
0
0
0
0
1
2
2
2
4
4
3
3
0
0
0
0
0
0
0
0
0
0
0
0
0
0
0
0
0
0
0
0
0
0
0
1
2
2
2
4
4
3
3
0
0
0
0
0
0
0
0
0
0
0
0
0
0
0
0
0
0
0
0
0
0
0
1
2
2
2
4
4
3
3
0
0
0
0
0
0
0
0
0
0
0
0
0
0
0
0
0
0
0
0
0
0
0
1
2
2
2
4
4
3
3
0
0
0
0
0
0
0
0
0
0
0
0
0
0
0
0
0
0
0
0
0
0
0
1
2
2
2
4
4
3
3
0
0
0
0
0
0
0
0
0
0
0
0
0
0
0
0
0
0
0
0
0
0
0
1
2
2
2
4
4
3
3
0
0
0
0
0
0
0
0
0
0
0
0
0
0
0
0
0
0
0
0
0
0
0
1
2
2
2
4
4
3
3
0
0
0
0
0
0
0
0
0
0
0
0
0
0
0
0
0
0
0
0
0
0
0
1
2
2
2
4
4
3
3
0
0
0
0
0
0
0
0
0
0
0
0
0
0
0
0
0
0
0
0
0
0
0
1
2
2
2
4
4
3
3
0
0
0
0
0
0
0
0
0
0
0
0
0
0
0
0
0
0
0
0
0
0
0
1
2
2
2
4
4
3
3
0
0
0
0
0
0
0
0
0
0
0
0
0
0
0
0
0
0
0
0
0
0
0
1
2
2
2
4
4
3
3
0
0
0
0
0
0
0
0
0
0
0
0
0
0
0
0
0
0
0
0
0
0
0
1
2
2
2
4
4
3
3
0
0
0
0
0
0
0
0
0
0
0
0
0
0
0
0
0
0
0
0
0
0
0
1
2
2
2
4
4
3
3
0
0
0
0
0
0
0
0
0
0
0
0
0
0
0
0
0
0
0
0
0
0
0
1
2
2
2
4
4
3
3
0
0
0
0
0
0
0
0
0
0
0
0
0
0
0
0
0
0
0
0
0
0
0
2
2
2
2
4
4
3
3
0
0
0
0
0
0
0
0
0
0
0
0
0
0
0
0
0
0
0
0
0
0
0
2
2
2
2
4
4
3
3
0
0
0
0
0
0
0
0
0
0
0
0
0
0
0
0
0
0
0
0
0
0
1
2
2
2
2
4
4
3
3
0
0
0
0
0
0
0
0
0
0
0
0
0
0
0
0
0
0
0
0
0
0
1
2
2
2
2
4
4
3
3
0
0
0
0
0
0
0
0
0
0
0
0
0
0
0
0
0
0
0
0
0
0
1
2
2
2
2
4
4
3
3
0
0
0
0
0
0
0
0
0
0
0
0
0
0
0
0
0
0
0
0
0
0
1
2
2
2
2
4
4
3
3
0
0
0
0
0
0
0
0
0
0
0
0
0
0
0
0
0
0
0
0
0
0
1
2
2
2
2
4
4
3
3
0
0
0
0
0
0
0
0
0
0
0
0
0
0
0
0
0
0
0
0
0
0
1
2
2
2
2
4
4
3
3
0
0
0
0
0
0
0
0
0
0
0
0
0
0
0
0
0
0
0
0
0
0
1
2
2
2
2
4
4
3
3
0
0
0
0
0
0
0
0
0
0
0
0
0
0
0
0
0
0
0
0
0
1
1
2
2
2
2
4
4
3
3
3
3
3
3
3
3
3
3
3
3
3
3
3
3
3
3
3
3
3
3
3
3
3
3
2
2
2
4
4
3
3
3
3
3
3
3
3
3
3
3
3
3
3
3
3
3
3
3
3
3
3
3
3
3
3
2
2
2
4
4
4
4
4
4
4
4
4
4
4
4
4
4
4
4
4
4
4
4
4
4
4
4
4
4
4
4
2
2
2
4
4
4
4
4
4
4
4
4
4
4
4
4
4
4
4
4
4
4
4
4
4
4
4
4
4
4
4
2
2
2
</DataArray>
<DataArray NumberOfComponents='1' type='Float32' Name='Temperature' format='ascii'>
0.000000
0.000000
0.000000
0.000000
0.000000
0.000000
0.000000
0.000000
0.000000
0.000000
0.000000
0.000000
0.000000
0.000000
0.000000
0.000000
0.000000
0.000000
0.000000
0.000000
0.000000
0.000000
0.000000
0.000000
0.000000
0.000000
0.000000
0.000000
-5.000000
-5.000000
-5.000000
0.000000
0.000000
0.000000
0.000000
0.000000
0.000000
0.000000
0.000000
0.000000
0.000000
0.000000
0.000000
0.000000
0.000000
0.000000
0.000000
0.000000
0.000000
0.000000
0.000000
0.000000
0.000000
0.000000
0.000000
0.000000
0.000000
0.000000
0.000000
-5.000000
-5.000000
-5.000000
0.000000
0.000000
0.000000
0.000000
0.000000
0.000000
0.000000
0.000000
0.000000
0.000000
0.000000
0.000000
0.000000
0.000000
0.000000
0.000000
0.000000
0.000000
0.000000
0.000000
0.000000
0.000000
0.000000
0.000000
0.000000
0.000000
0.000000
0.000000
-5.000000
-5.000000
-5.000000
0.000000
0.000000
0.000000
0.000000
0.000000
0.000000
0.000000
0.000000
0.000000
0.000000
0.000000
0.000000
0.000000
0.000000
0.000000
0.000000
0.000000
0.000000
0.000000
0.000000
0.000000
0.000000
0.000000
0.000000
0.000000
0.000000
0.000000
0.000000
-5.000000
-5.000000
-5.000000
0.000000
0.000000
0.000000
0.000000
0.164323
0.294175
0.424970
0.548282
0.663319
0.768095
0.860944
0.940259
1.004546
1.052439
1.082735
1.094435
1.086776
1.059241
1.011537
0.943497
0.854915
0.745234
0.613443
0.455932
0.276446
0.009984
0.006377
-2.124227
-5.000000
-5.000000
-5.000000
0.000000
0.000000
0.000000
0.000000
0.297446
0.532276
0.769303
0.993061
1.202182
1.393032
1.562517
1.707611
1.825474
1.913493
1.969368
1.991205
1.977584
1.927602
1.840819
1.717110
1.556372
1.358002
1.120794
0.839803
0.523402
0.084199
0.006582
-2.360798
-5.000000
-5.000000
-5.000000
0.000000
0.000000
0.000000
0.000000
0.437239
0.782816
1.132118
1.462602
1.772286
2.055756
2.308283
2.525161
2.701903
2.834357
2.918868
2.952455
2.932951
2.859080
2.730403
2.547105
2.309584
2.017743
1.670825
1.264011
0.808531
0.219413
0.007605
-2.437237
-5.000000
-5.000000
-5.000000
0.000000
0.000000
0.000000
0.000000
0.578093
1.035577
1.498925
1.938588
2.352012
2.731907
3.071709
3.364738
3.604523
3.785021
3.900918
3.947926
3.923037
3.824647
3.652523
3.407523
3.091064
2.704214
2.247282
1.716455
1.123580
0.393164
0.008270
-2.439060
-5.000000
-5.000000
-5.000000
0.000000
0.000000
0.000000
0.000000
0.721940
1.294154
1.875097
2.428259
2.950549
3.432667
3.865947
4.241357
4.550002
4.783504
4.934497
4.997106
4.967343
4.843326
4.625257
4.315084
3.915814
3.430368
2.860680
2.204156
1.470883
0.594078
0.008640
-2.420345
-5.000000
-5.000000
-5.000000
0.000000
0.000000
0.000000
0.000000
0.869436
1.559771
2.262535
2.934295
3.571459
4.162563
4.696529
5.161542
5.545777
5.838011
6.028373
6.109072
6.074983
5.923986
5.656964
5.277393
4.790487
4.201755
3.515426
2.730413
1.852714
0.822393
0.008933
-2.391374
-5.000000
-5.000000
-5.000000
0.000000
0.000000
0.000000
0.000000
1.021268
1.833693
2.663141
3.459274
4.218036
4.925630
5.568232
6.130776
6.597963
6.955173
7.189542
7.291007
7.253128
7.073578
6.754165
6.300338
5.720136
5.022451
4.214740
3.298415
2.273999
1.086878
0.009565
-2.348445
-5.000000
-5.000000
-5.000000
0.000000
0.000000
0.000000
0.000000
1.177700
2.116393
3.077603
4.004089
4.891372
5.723147
6.482504
7.150656
7.708281
8.136804
8.419876
8.544794
8.503623
8.293848
7.918429
7.385206
6.705633
5.892785
4.958527
3.908658
2.740342
1.406168
0.009797
-2.270046
-5.000000
-5.000000
-5.000000
0.000000
0.000000
0.000000
0.000000
1.338416
2.407272
3.504981
4.567408
5.589684
6.552835
7.436549
8.217875
8.872952
9.378723
9.714891
9.865770
9.821748
9.580136
9.145247
8.527671
7.742786
6.808533
5.742331
4.556727
3.251613
1.798676
0.067516
-2.098101
-5.000000
-5.000000
-5.000000
0.000000
0.000000
0.000000
0.000000
1.502362
2.704371
3.942295
5.145134
6.307666
7.408107
8.422481
9.323289
10.081692
10.669701
11.062669
11.241628
11.195137
10.920334
10.423045
9.716899
8.821567
7.760310
6.556797
5.231875
3.794373
2.249307
0.471393
-1.766668
-5.000000
-5.000000
-5.000000
0.000000
0.000000
0.000000
0.000000
1.667670
3.004246
4.384348
5.730192
7.036233
8.277792
9.427028
10.451620
11.317419
11.991165
12.443562
12.652136
12.603498
12.294617
11.732940
10.935328
9.925973
8.733629
7.388294
5.918796
4.345005
2.701703
0.875331
-0.008656
-5.000000
-5.000000
-5.000000
0.000000
0.000000
0.000000
0.000000
1.831689
3.302022
4.823814
6.312659
7.762717
9.146387
10.431863
11.581853
12.556711
13.317720
13.830760
14.069728
14.019217
13.676028
13.049291
12.159191
11.034517
9.709478
8.220065
6.601797
4.882001
3.113115
1.179690
-0.008356
-5.000000
-5.000000
-5.000000
0.000000
0.000000
0.000000
0.000000
1.991109
3.591625
5.251593
6.880251
8.471494
9.994838
11.414533
12.688312
13.771023
14.618471
15.191695
15.460948
15.408803
15.031892
14.341034
13.359727
12.121305
10.665252
9.033095
7.265795
5.395801
3.478812
1.405988
-0.007403
-5.000000
-5.000000
-5.000000
0.000000
0.000000
0.000000
0.000000
2.142166
3.866159
5.657378
7.419091
9.144957
10.801735
12.349869
13.742282
14.928487
15.858978
16.490098
16.788567
16.735000
16.325870
15.573627
14.504972
13.157594
11.575976
9.806738
7.895475
5.878579
3.812051
1.593497
-0.004607
-5.000000
-5.000000
-5.000000
0.000000
0.000000
0.000000
0.000000
2.280899
4.118377
6.030350
7.914644
9.764707
11.544748
13.211675
14.713925
15.996036
17.003543
17.688409
18.014055
17.959266
17.520369
16.711337
15.561848
14.113637
12.415790
10.519566
8.474675
6.320930
4.115174
1.762296
-0.003443
-5.000000
-5.000000
-5.000000
0.000000
0.000000
0.000000
0.000000
2.403414
4.341162
6.359906
8.352685
10.312769
12.202105
13.974448
15.574237
16.941567
18.017548
18.750229
19.100084
19.044270
18.578979
17.719543
16.498299
14.960579
13.159558
11.150594
8.987024
6.711695
4.382352
1.910649
-0.001990
-5.000000
-5.000000
-5.000000
0.000000
0.000000
0.000000
0.000000
2.506135
4.527981
6.636316
8.720183
10.772704
12.753921
14.614932
16.296801
17.735874
18.869522
19.642489
20.012761
19.956117
19.468638
18.566806
17.285195
15.672176
13.784367
11.680575
9.417189
7.039621
4.606423
2.034939
-0.002042
-5.000000
-5.000000
-5.000000
0.000000
0.000000
0.000000
0.000000
2.586000
4.673244
6.851272
9.006022
11.130503
13.183275
15.113361
16.859193
18.354186
19.532792
20.337176
20.723380
20.666107
20.161351
19.226491
17.897851
16.226169
14.270750
12.093093
9.751964
7.294785
4.780745
2.131659
-0.000441
-5.000000
-5.000000
-5.000000
0.000000
0.000000
0.000000
0.000000
2.640609
4.772575
6.998270
9.201510
11.375228
13.476969
15.454336
17.243954
18.777233
19.986625
20.812524
21.209643
21.151947
20.635370
19.677905
18.317075
16.605241
14.603548
12.375337
9.981005
7.469347
4.899999
2.197810
-0.000317
-5.000000
-5.000000
-5.000000
0.000000
0.000000
0.000000
0.000000
2.668321
4.822983
7.072865
9.300712
11.499416
13.626005
15.627363
17.439200
18.991905
20.216918
21.053735
21.456393
21.398484
20.875911
19.906978
18.529817
16.797611
14.772439
12.518575
10.097244
7.557941
4.960521
2.231388
0.000046
-5.000000
-5.000000
-5.000000
0.000000
0.000000
0.000000
0.000000
2.668304
4.822949
7.072808
9.300624
11.499290
13.625834
15.627142
17.438928
18.991585
20.216557
21.053344
21.455985
21.398075
20.875517
19.906613
18.529491
16.797332
14.772209
12.518394
10.097110
7.557847
4.960463
2.231358
0.000049
-5.000000
-5.000000
-5.000000
0.000000
0.000000
0.000000
0.000000
2.640559
4.772475
6.998100
9.201249
11.374853
13.476459
15.453678
17.243145
18.776281
19.985551
20.811361
21.208431
21.150733
20.634199
19.676818
18.316105
16.604410
14.602865
12.374800
9.980605
7.469069
4.899826
2.197724
-0.000309
-5.000000
-5.000000
-5.000000
0.000000
0.000000
0.000000
0.000000
2.585919
4.673080
6.850994
9.005595
11.129889
13.182441
15.112286
16.857870
18.352629
19.531037
20.335275
20.721400
20.664123
20.159438
19.224715
17.896266
16.224810
14.269634
12.092218
9.751314
7.294334
4.780466
2.131522
-0.000421
-5.000000
-5.000000
-5.000000
0.000000
0.000000
0.000000
0.000000
2.506026
4.527760
6.635942
8.719606
10.771874
12.752793
14.613476
16.295010
17.733766
18.867144
19.639913
20.010078
19.953429
19.466045
18.564399
17.283048
15.670337
13.782858
11.679395
9.416315
7.039020
4.606057
2.034764
-0.002004
-5.000000
-5.000000
-5.000000
0.000000
0.000000
0.000000
0.000000
2.403283
4.340895
6.359451
8.351983
10.311758
12.200728
13.972669
15.572047
16.938988
18.014638
18.747076
19.096800
19.040978
18.575804
17.716598
16.495673
14.958332
13.157720
11.149166
8.985981
6.710993
4.381938
1.910463
-0.001924
-5.000000
-5.000000
-5.000000
0.000000
0.000000
0.000000
0.000000
2.280752
4.118079
6.029841
7.913854
9.763564
11.543189
13.209656
14.711435
15.993101
17.000228
17.684815
18.010310
17.955513
17.516750
16.707980
15.558859
14.111087
12.413719
10.517982
8.473556
6.320223
4.114801
1.762156
-0.003353
-5.000000
-5.000000
-5.000000
0.000000
0.000000
0.000000
0.000000
2.142015
3.865850
5.656845
7.418259
9.143746
10.800074
12.347712
13.739615
14.925338
15.855416
16.486233
16.784538
16.730961
16.321977
15.570020
14.501766
13.154876
11.573803
9.805142
7.894454
5.878056
3.811865
1.593479
-0.004463
-5.000000
-5.000000
-5.000000
0.000000
0.000000
0.000000
0.000000
1.990966
3.591327
5.251074
6.879430
8.470287
9.993171
11.412356
12.685610
13.767823
14.614845
15.187754
15.456837
15.404680
15.027920
14.337359
13.356475
12.118578
10.663145
9.031703
7.265171
5.395808
3.479086
1.406178
-0.007221
-5.000000
-5.000000
-5.000000
0.000000
0.000000
0.000000
0.000000
1.831566
3.301760
4.823346
6.311904
7.761590
9.144812
10.429789
11.579262
12.553628
13.314216
13.826945
14.065743
14.015220
13.672179
13.045738
12.156067
11.031950
9.707626
8.219155
6.602034
4.883211
3.113835
1.177764
-0.008196
-5.000000
-5.000000
-5.000000
0.000000
0.000000
0.000000
0.000000
1.667577
3.004039
4.383963
5.729551
7.035252
8.276397
9.425167
10.449275
11.314610
11.987958
12.440059
12.648472
12.599820
12.291078
11.729684
10.932492
9.923717
8.732203
7.388139
5.920462
4.348555
2.703383
0.870570
-0.007623
-5.000000
-5.000000
-5.000000
0.000000
0.000000
0.000000
0.000000
1.502306
2.704234
3.942017
5.144642
6.306881
7.406960
8.420919
9.321295
10.079282
10.666931
11.059630
11.238440
11.191934
10.917255
10.420223
9.714471
8.819722
7.759399
6.557514
5.235286
3.800979
2.255050
0.466465
-1.767586
-5.000000
-5.000000
-5.000000
0.000000
0.000000
0.000000
0.000000
1.338399
2.407209
3.504820
4.567082
5.589123
6.551973
7.435339
8.216297
8.871018
9.376478
9.712414
9.863161
9.819123
9.577612
9.142942
8.525716
7.741381
6.808092
5.743721
4.561469
3.261016
1.810321
0.075776
-2.097672
-5.000000
-5.000000
-5.000000
0.000000
0.000000
0.000000
0.000000
1.177719
2.116400
3.077554
4.003926
4.891033
5.722575
6.481656
7.149512
7.706848
8.135116
8.417995
8.542801
8.501611
8.291911
7.916664
7.383726
6.704625
5.892648
4.960105
3.913454
2.749588
1.419180
0.009769
-2.269167
-5.000000
-5.000000
-5.000000
0.000000
0.000000
0.000000
0.000000
1.021316
1.833757
2.663186
3.459252
4.217895
4.925323
5.567720
6.130040
6.597005
6.954016
7.188233
7.289605
7.251703
7.072200
6.752906
6.299284
5.719434
5.022417
4.216014
3.302079
2.280583
1.095834
0.009557
-2.347610
-5.000000
-5.000000
-5.000000
0.000000
0.000000
0.000000
0.000000
0.869503
1.559873
2.262646
2.934378
3.571471
4.162467
4.696294
5.161149
5.545225
5.837313
6.027560
6.108185
6.074068
5.923089
5.656130
5.276678
4.789988
4.201678
3.516159
2.732544
1.856313
0.826651
0.009239
-2.390841
-5.000000
-5.000000
-5.000000
0.000000
0.000000
0.000000
0.000000
0.722013
1.294273
1.875242
2.428403
2.950661
3.432718
3.865912
4.241220
4.549759
4.783162
4.934073
4.996623
4.966828
4.842803
4.624746
4.314609
3.915425
3.430178
2.860892
2.205032
1.472402
0.595746
0.008825
-2.420038
-5.000000
-5.000000
-5.000000
0.000000
0.000000
0.000000
0.000000
0.578161
1.035691
1.499073
1.938750
2.352168
2.732036
3.071792
3.364763
3.604484
3.784919
3.900760
3.947724
3.922800
3.824381
3.652228
3.407198
3.090719
2.703900
2.247101
1.716538
1.123953
0.393683
0.008324
-2.438922
-5.000000
-5.000000
-5.000000
0.000000
0.000000
0.000000
0.000000
0.437294
0.782910
1.132244
1.462748
1.772439
2.055902
2.308411
2.525260
2.701968
2.834386
2.918862
2.952416
2.932879
2.858968
2.730237
2.546867
2.309259
2.017344
1.670402
1.263658
0.808331
0.219384
0.007552
-2.437192
-5.000000
-5.000000
-5.000000
0.000000
0.000000
0.000000
0.000000
0.297483
0.532340
0.769391
0.993166
1.202298
1.393151
1.562631
1.707715
1.825563
1.913564
1.969419
1.991233
1.977586
1.927565
1.840725
1.716935
1.556091
1.357608
1.120311
0.839301
0.522986
0.083956
0.006787
-2.360787
-5.000000
-5.000000
-5.000000
0.000000
0.000000
0.000000
0.000000
0.164342
0.294208
0.425016
0.548339
0.663383
0.768163
0.861013
0.940326
1.004608
1.052494
1.082781
1.094468
1.086792
1.059231
1.011486
0.943386
0.854725
0.744952
0.613079
0.455530
0.276086
0.010000
0.006255
-2.124235
-5.000000
-5.000000
-5.000000
0.000000
0.000000
0.000000
0.000000
0.000000
0.000000
0.000000
0.000000
0.000000
0.000000
0.000000
0.000000
0.000000
0.000000
0.000000
0.000000
0.000000
0.000000
0.000000
0.000000
0.000000
0.000000
0.000000
0.000000
0.000000
0.000000
0.000000
0.000000
-5.000000
-5.000000
-5.000000
0.000000
0.000000
0.000000
0.000000
0.000000
0.000000
0.000000
0.000000
0.000000
0.000000
0.000000
0.000000
0.000000
0.000000
0.000000
0.000000
0.000000
0.000000
0.000000
0.000000
0.000000
0.000000
0.000000
0.000000
0.000000
0.000000
0.000000
0.000000
-5.000000
-5.000000
-5.000000
0.000000
0.000000
0.000000
0.000000
0.000000
0.000000
0.000000
0.000000
0.000000
0.000000
0.000000
0.000000
0.000000
0.000000
0.000000
0.000000
0.000000
0.000000
0.000000
0.000000
0.000000
0.000000
0.000000
0.000000
0.000000
0.000000
0.000000
0.000000
-5.000000
-5.000000
-5.000000
0.000000
0.000000
0.000000
0.000000
0.000000
0.000000
0.000000
0.000000
0.000000
0.000000
0.000000
0.000000
0.000000
0.000000
0.000000
0.000000
0.000000
0.000000
0.000000
0.000000
0.000000
0.000000
0.000000
0.000000
0.000000
0.000000
0.000000
0.000000
-5.000000
-5.000000
-5.000000
</DataArray>
</PointData>
<Cells>
<DataArray type='Int32' Name='connectivity' format='ascii'>
0
1
2
3
4
5
6
7
8
9
10
11
12
13
14
15
16
17
18
19
20
21
22
23
24
25
26
27
28
29
30
31
32
33
34
35
36
37
38
39
40
41
42
43
44
45
46
47
48
49
50
51
52
53
54
55
56
57
58
59
60
61
62
63
64
65
66
67
68
69
70
71
72
73
74
75
76
77
78
79
80
81
82
83
84
85
86
87
88
89
90
91
92
93
94
95
96
97
98
99
100
101
102
103
104
105
106
107
108
109
110
111
112
113
114
115
116
117
118
119
120
121
122
123
124
125
126
127
128
129
130
131
132
133
134
135
136
137
138
139
140
141
142
143
144
145
146
147
148
149
150
151
152
153
154
155
156
157
158
159
160
161
162
163
164
165
166
167
168
169
170
171
172
173
174
175
176
177
178
179
180
181
182
183
184
185
186
187
188
189
190
191
192
193
194
195
196
197
198
199
200
201
202
203
204
205
206
207
208
209
210
211
212
213
214
215
216
217
218
219
220
221
222
223
224
225
226
227
228
229
230
231
232
233
234
235
236
237
238
239
240
241
242
243
244
245
246
247
248
249
250
251
252
253
254
255
256
257
258
259
260
261
262
263
264
265
266
267
268
269
270
271
272
273
274
275
276
277
278
279
280
281
282
283
284
285
286
287
288
289
290
291
292
293
294
295
296
297
298
299
300
301
302
303
304
305
306
307
308
309
310
311
312
313
314
315
316
317
318
319
320
321
322
323
324
325
326
327
328
329
330
331
332
333
334
335
336
337
338
339
340
341
342
343
344
345
346
347
348
349
350
351
352
353
354
355
356
357
358
359
360
361
362
363
364
365
366
367
368
369
370
371
372
373
374
375
376
377
378
379
380
381
382
383
384
385
386
387
388
389
390
391
392
393
394
395
396
397
398
399
400
401
402
403
404
405
406
407
408
409
410
411
412
413
414
415
416
417
418
419
420
421
422
423
424
425
426
427
428
429
430
431
432
433
434
435
436
437
438
439
440
441
442
443
444
445
446
447
448
449
450
451
452
453
454
455
456
457
458
459
460
461
462
463
464
465
466
467
468
469
470
471
472
473
474
475
476
477
478
479
480
481
482
483
484
485
486
487
488
489
490
491
492
493
494
495
496
497
498
499
500
501
502
503
504
505
506
507
508
509
510
511
512
513
514
515
516
517
518
519
520
521
522
523
524
525
526
527
528
529
530
531
532
533
534
535
536
537
538
539
540
541
542
543
544
545
546
547
548
549
550
551
552
553
554
555
556
557
558
559
560
561
562
563
564
565
566
567
568
569
570
571
572
573
574
575
576
577
578
579
580
581
582
583
584
585
586
587
588
589
590
591
592
593
594
595
596
597
598
599
600
601
602
603
604
605
606
607
608
609
610
611
612
613
614
615
616
617
618
619
620
621
622
623
624
625
626
627
628
629
630
631
632
633
634
635
636
637
638
639
640
641
642
643
644
645
646
647
648
649
650
651
652
653
654
655
656
657
658
659
660
661
662
663
664
665
666
667
668
669
670
671
672
673
674
675
676
677
678
679
680
681
682
683
684
685
686
687
688
689
690
691
692
693
694
695
696
697
698
699
700
701
702
703
704
705
706
707
708
709
710
711
712
713
714
715
716
717
718
719
720
721
722
723
724
725
726
727
728
729
730
731
732
733
734
735
736
737
738
739
740
741
742
743
744
745
746