<?xml version='1.0' encoding='UTF-8'?>
<VTKFile xmlns='VTK' byte_order='LittleEndian' version='0.1' type='UnstructuredGrid'>
<UnstructuredGrid>
<Piece NumberOfCells='1488' NumberOfPoints='1488'>
<Points>
<DataArray NumberOfComponents='3' type='Float32' Name='Position' format='ascii'>
-0.075000 -0.075000 0.000000
-0.075000 -0.050000 0.000000
-0.075000 -0.025000 0.000000
-0.075000 0.000000 0.000000
-0.075000 0.025000 0.000000
-0.075000 0.050000 0.000000
-0.075000 0.075000 0.000000
-0.075000 0.100000 0.000000
-0.075000 0.125000 0.000000
-0.075000 0.150000 0.000000
-0.075000 0.175000 0.000000
-0.075000 0.200000 0.000000
-0.075000 0.225000 0.000000
-0.075000 0.250000 0.000000
-0.075000 0.275000 0.000000
-0.075000 0.300000 0.000000
-0.075000 0.325000 0.000000
-0.075000 0.350000 0.000000
-0.075000 0.375000 0.000000
-0.075000 0.400000 0.000000
-0.075000 0.425000 0.000000
-0.075000 0.450000 0.000000
-0.075000 0.475000 0.000000
-0.075000 0.500000 0.000000
-0.075000 0.525000 0.000000
-0.075000 0.550000 0.000000
-0.075000 0.575000 0.000000
-0.075000 0.600000 0.000000
-0.075000 0.625000 0.000000
-0.075000 0.650000 0.000000
-0.075000 0.675000 0.000000
-0.050000 -0.075000 0.000000
-0.050000 -0.050000 0.000000
-0.050000 -0.025000 0.000000
-0.050000 0.000000 0.000000
-0.050000 0.025000 0.000000
-0.050000 0.050000 0.000000
-0.050000 0.075000 0.000000
-0.050000 0.100000 0.000000
-0.050000 0.125000 0.000000
-0.050000 0.150000 0.000000
-0.050000 0.175000 0.000000
-0.050000 0.200000 0.000000
-0.050000 0.225000 0.000000
-0.050000 0.250000 0.000000
-0.050000 0.275000 0.000000
-0.050000 0.300000 0.000000
-0.050000 0.325000 0.000000
-0.050000 0.350000 0.000000
-0.050000 0.375000 0.000000
-0.050000 0.400000 0.000000
-0.050000 0.425000 0.000000
-0.050000 0.450000 0.000000
-0.050000 0.475000 0.000000
-0.050000 0.500000 0.000000
-0.050000 0.525000 0.000000
-0.050000 0.550000 0.000000
-0.050000 0.575000 0.000000
-0.050000 0.600000 0.000000
-0.050000 0.625000 0.000000
-0.050000 0.650000 0.000000
-0.050000 0.675000 0.000000
-0.025000 -0.075000 0.000000
-0.025000 -0.050000 0.000000
-0.025000 -0.025000 0.000000
-0.025000 0.000000 0.000000
-0.025000 0.025000 0.000000
-0.025000 0.050000 0.000000
-0.025000 0.075000 0.000000
-0.025000 0.100000 0.000000
-0.025000 0.125000 0.000000
-0.025000 0.150000 0.000000
-0.025000 0.175000 0.000000
-0.025000 0.200000 0.000000
-0.025000 0.225000 0.000000
-0.025000 0.250000 0.000000
-0.025000 0.275000 0.000000
-0.025000 0.300000 0.000000
-0.025000 0.325000 0.000000
-0.025000 0.350000 0.000000
-0.025000 0.375000 0.000000
-0.025000 0.400000 0.000000
-0.025000 0.425000 0.000000
-0.025000 0.450000 0.000000
-0.025000 0.475000 0.000000
-0.025000 0.500000 0.000000
-0.025000 0.525000 0.000000
-0.025000 0.550000 0.000000
-0.025000 0.575000 0.000000
-0.025000 0.600000 0.000000
-0.025000 0.625000 0.000000
-0.025000 0.650000 0.000000
-0.025000 0.675000 0.000000
0.000000 -0.075000 0.000000
0.000000 -0.050000 0.000000
0.000000 -0.025000 0.000000
0.000000 0.000000 0.000000
0.000000 0.025000 0.000000
0.000000 0.050000 0.000000
0.000000 0.075000 0.000000
0.000000 0.100000 0.000000
0.000000 0.125000 0.000000
0.000000 0.150000 0.000000
0.000000 0.175000 0.000000
0.000000 0.200000 0.000000
0.000000 0.225000 0.000000
0.000000 0.250000 0.000000
0.000000 0.275000 0.000000
0.000000 0.300000 0.000000
0.000000 0.325000 0.000000
0.000000 0.350000 0.000000
0.000000 0.375000 0.000000
0.000000 0.400000 0.000000
0.000000 0.425000 0.000000
0.000000 0.450000 0.000000
0.000000 0.475000 0.000000
0.000000 0.500000 0.000000
0.000000 0.525000 0.000000
0.000000 0.550000 0.000000
0.000000 0.575000 0.000000
0.000000 0.600000 0.000000
0.000000 0.625000 0.000000
0.000000 0.650000 0.000000
0.000000 0.675000 0.000000
0.025000 -0.075000 0.000000
0.025000 -0.050000 0.000000
0.025000 -0.025000 0.000000
0.025000 0.000000 0.000000
0.025000 0.025000 0.000000
0.025000 0.050000 0.000000
0.025000 0.075000 0.000000
0.025000 0.100000 0.000000
0.025000 0.125000 0.000000
0.025000 0.150000 0.000000
0.025000 0.175000 0.000000
0.025000 0.200000 0.000000
0.025000 0.225000 0.000000
0.025000 0.250000 0.000000
0.025000 0.275000 0.000000
0.025000 0.300000 0.000000
0.025000 0.325000 0.000000
0.025000 0.350000 0.000000
0.025000 0.375000 0.000000
0.025000 0.400000 0.000000
0.025000 0.425000 0.000000
0.025000 0.450000 0.000000
0.025000 0.475000 0.000000
0.025000 0.500000 0.000000
0.025000 0.525000 0.000000
0.025000 0.550000 0.000000
0.025000 0.575000 0.000000
0.025000 0.600000 0.000000
0.025000 0.625000 0.000000
0.025000 0.650000 0.000000
0.025000 0.675000 0.000000
0.050000 -0.075000 0.000000
0.050000 -0.050000 0.000000
0.050000 -0.025000 0.000000
0.050000 0.000000 0.000000
0.050000 0.025000 0.000000
0.050000 0.050000 0.000000
0.050000 0.075000 0.000000
0.050000 0.100000 0.000000
0.050000 0.125000 0.000000
0.050000 0.150000 0.000000
0.050000 0.175000 0.000000
0.050000 0.200000 0.000000
0.050000 0.225000 0.000000
0.050000 0.250000 0.000000
0.050000 0.275000 0.000000
0.050000 0.300000 0.000000
0.050000 0.325000 0.000000
0.050000 0.350000 0.000000
0.050000 0.375000 0.000000
0.050000 0.400000 0.000000
0.050000 0.425000 0.000000
0.050000 0.450000 0.000000
0.050000 0.475000 0.000000
0.050000 0.500000 0.000000
0.050000 0.525000 0.000000
0.050000 0.550000 0.000000
0.050000 0.575000 0.000000
0.050000 0.600000 0.000000
0.050000 0.625000 0.000000
0.050000 0.650000 0.000000
0.050000 0.675000 0.000000
0.075000 -0.075000 0.000000
0.075000 -0.050000 0.000000
0.075000 -0.025000 0.000000
0.075000 0.000000 0.000000
0.075000 0.025000 0.000000
0.075000 0.050000 0.000000
0.075000 0.075000 0.000000
0.075000 0.100000 0.000000
0.075000 0.125000 0.000000
0.075000 0.150000 0.000000
0.075000 0.175000 0.000000
0.075000 0.200000 0.000000
0.075000 0.225000 0.000000
0.075000 0.250000 0.000000
0.075000 0.275000 0.000000
0.075000 0.300000 0.000000
0.075000 0.325000 0.000000
0.075000 0.350000 0.000000
0.075000 0.375000 0.000000
0.075000 0.400000 0.000000
0.075000 0.425000 0.000000
0.075000 0.450000 0.000000
0.075000 0.475000 0.000000
0.075000 0.500000 0.000000
0.075000 0.525000 0.000000
0.075000 0.550000 0.000000
0.075000 0.575000 0.000000
0.075000 0.600000 0.000000
0.075000 0.625000 0.000000
0.075000 0.650000 0.000000
0.075000 0.675000 0.000000
0.100000 -0.075000 0.000000
0.100000 -0.050000 0.000000
0.100000 -0.025000 0.000000
0.100000 0.000000 0.000000
0.100000 0.025000 0.000000
0.100000 0.050000 0.000000
0.100000 0.075000 0.000000
0.100000 0.100000 0.000000
0.100000 0.125000 0.000000
0.100000 0.150000 0.000000
0.100000 0.175000 0.000000
0.100000 0.200000 0.000000
0.100000 0.225000 0.000000
0.100000 0.250000 0.000000
0.100000 0.275000 0.000000
0.100000 0.300000 0.000000
0.100000 0.325000 0.000000
0.100000 0.350000 0.000000
0.100000 0.375000 0.000000
0.100000 0.400000 0.000000
0.100000 0.425000 0.000000
0.100000 0.450000 0.000000
0.100000 0.475000 0.000000
0.100000 0.500000 0.000000
0.100000 0.525000 0.000000
0.100000 0.550000 0.000000
0.100000 0.575000 0.000000
0.100000 0.600000 0.000000
0.100000 0.625000 0.000000
0.100000 0.650000 0.000000
0.100000 0.675000 0.000000
0.125000 -0.075000 0.000000
0.125000 -0.050000 0.000000
0.125000 -0.025000 0.000000
0.125000 0.000000 0.000000
0.125000 0.025000 0.000000
0.125000 0.050000 0.000000
0.125000 0.075000 0.000000
0.125000 0.100000 0.000000
0.125000 0.125000 0.000000
0.125000 0.150000 0.000000
0.125000 0.175000 0.000000
0.125000 0.200000 0.000000
0.125000 0.225000 0.000000
0.125000 0.250000 0.000000
0.125000 0.275000 0.000000
0.125000 0.300000 0.000000
0.125000 0.325000 0.000000
0.125000 0.350000 0.000000
0.125000 0.375000 0.000000
0.125000 0.400000 0.000000
0.125000 0.425000 0.000000
0.125000 0.450000 0.000000
0.125000 0.475000 0.000000
0.125000 0.500000 0.000000
0.125000 0.525000 0.000000
0.125000 0.550000 0.000000
0.125000 0.575000 0.000000
0.125000 0.600000 0.000000
0.125000 0.625000 0.000000
0.125000 0.650000 0.000000
0.125000 0.675000 0.000000
0.150000 -0.075000 0.000000
0.150000 -0.050000 0.000000
0.150000 -0.025000 0.000000
0.150000 0.000000 0.000000
0.150000 0.025000 0.000000
0.150000 0.050000 0.000000
0.150000 0.075000 0.000000
0.150000 0.100000 0.000000
0.150000 0.125000 0.000000
0.150000 0.150000 0.000000
0.150000 0.175000 0.000000
0.150000 0.200000 0.000000
0.150000 0.225000 0.000000
0.150000 0.250000 0.000000
0.150000 0.275000 0.000000
0.150000 0.300000 0.000000
0.150000 0.325000 0.000000
0.150000 0.350000 0.000000
0.150000 0.375000 0.000000
0.150000 0.400000 0.000000
0.150000 0.425000 0.000000
0.150000 0.450000 0.000000
0.150000 0.475000 0.000000
0.150000 0.500000 0.000000
0.150000 0.525000 0.000000
0.150000 0.550000 0.000000
0.150000 0.575000 0.000000
0.150000 0.600000 0.000000
0.150000 0.625000 0.000000
0.150000 0.650000 0.000000
0.150000 0.675000 0.000000
0.175000 -0.075000 0.000000
0.175000 -0.050000 0.000000
0.175000 -0.025000 0.000000
0.175000 0.000000 0.000000
0.175000 0.025000 0.000000
0.175000 0.050000 0.000000
0.175000 0.075000 0.000000
0.175000 0.100000 0.000000
0.175000 0.125000 0.000000
0.175000 0.150000 0.000000
0.175000 0.175000 0.000000
0.175000 0.200000 0.000000
0.175000 0.225000 0.000000
0.175000 0.250000 0.000000
0.175000 0.275000 0.000000
0.175000 0.300000 0.000000
0.175000 0.325000 0.000000
0.175000 0.350000 0.000000
0.175000 0.375000 0.000000
0.175000 0.400000 0.000000
0.175000 0.425000 0.000000
0.175000 0.450000 0.000000
0.175000 0.475000 0.000000
0.175000 0.500000 0.000000
0.175000 0.525000 0.000000
0.175000 0.550000 0.000000
0.175000 0.575000 0.000000
0.175000 0.600000 0.000000
0.175000 0.625000 0.000000
0.175000 0.650000 0.000000
0.175000 0.675000 0.000000
0.200000 -0.075000 0.000000
0.200000 -0.050000 0.000000
0.200000 -0.025000 0.000000
0.200000 0.000000 0.000000
0.200000 0.025000 0.000000
0.200000 0.050000 0.000000
0.200000 0.075000 0.000000
0.200000 0.100000 0.000000
0.200000 0.125000 0.000000
0.200000 0.150000 0.000000
0.200000 0.175000 0.000000
0.200000 0.200000 0.000000
0.200000 0.225000 0.000000
0.200000 0.250000 0.000000
[...]
<PointData>
<DataArray NumberOfComponents='1' type='Int32' Name='ParticleType' format='ascii'>
4
4
4
4
4
4
4
4
4
4
4
4
4
4
4
4
4
4
4
4
4
4
4
4
4
4
4
4
2
2
2
4
4
4
4
4
4
4
4
4
4
4
4
4
4
4
4
4
4
4
4
4
4
4
4
4
4
4
4
2
2
2
4
4
3
3
3
3
3
3
3
3
3
3
3
3
3
3
3
3
3
3
3
3
3
3
3
3
3
3
2
2
2
4
4
3
3
3
3
3
3
3
3
3
3
3
3
3
3
3
3
3
3
3
3
3
3
3
3
3
3
2
2
2
4
4
3
3
0
0
0
0
0
0
0
0
0
0
0
0
0
0
0
0
0
0
0
0
0
1
1
2
2
2
2
4
4
3
3
0
0
0
0
0
0
0
0
0
0
0
0
0
0
0
0
0
0
0
0
0
1
1
2
2
2
2
4
4
3
3
0
0
0
0
0
0
0
0
0
0
0
0
0
0
0
0
0
0
0
0
0
0
1
2
2
2
2
4
4
3
3
0
0
0
0
0
0
0
0
0
0
0
0
0
0
0
0
0
0
0
0
0
0
1
2
2
2
2
4
4
3
3
0
0
0
0
0
0
0
0
0
0
0
0
0
0
0
0
0
0
0
0
0
0
1
2
2
2
2
4
4
3
3
0
0
0
0
0
0
0
0
0
0
0
0
0
0
0
0
0
0
0
0
0
0
1
2
2
2
2
4
4
3
3
0
0
0
0
0
0
0
0
0
0
0
0
0
0
0
0
0
0
0
0
0
0
1
2
2
2
2
4
4
3
3
0
0
0
0
0
0
0
0
0
0
0
0
0
0
0
0
0
0
0
0
0
0
1
2
2
2
2
4
4
3
3
0
0
0
0
0
0
0
0
0
0
0
0
0
0
0
0
0
0
0
0
0
0
1
2
2
2
2
4
4
3
3
0
0
0
0
0
0
0
0
0
0
0
0
0
0
0
0
0
0
0
0
0
0
1
2
2
2
2
4
4
3
3
0
0
0
0
0
0
0
0
0
0
0
0
0
0
0
0
0
0
0
0
0
0
1
2
2
2
2
4
4
3
3
0
0
0
0
0
0
0
0
0
0
0
0
0
0
0
0
0
0
0
0
0
0
1
2
2
2
2
4
4
3
3
0
0
0
0
0
0
0
0
0
0
0
0
0
0
0
0
0
0
0
0
0
0
1
2
2
2
2
4
4
3
3
0
0
0
0
0
0
0
0
0
0
0
0
0
0
0
0
0
0
0
0
0
0
1
2
2
2
2
4
4
3
3
0
0
0
0
0
0
0
0
0
0
0
0
0
0
0
0
0
0
0
0
0
0
0
2
2
2
2
4
4
3
3
0
0
0
0
0
0
0
0
0
0
0
0
0
0
0
0
0
0
0
0
0
0
0
2
2
2
2
4
4
3
3
0
0
0
0
0
0
0
0
0
0
0
0
0
0
0
0
0
0
0
0
0
0
0
2
2
2
2
4
4
3
3
0
0
0
0
0
0
0
0
0
0
0
0
0
0
0
0
0
0
0
0
0
0
0
2
2
2
2
4
4
3
3
0
0
0
0
0
0
0
0
0
0
0
0
0
0
0
0
0
0
0
0
0
0
0
2
2
2
2
4
4
3
3
0
0
0
0
0
0
0
0
0
0
0
0
0
0
0
0
0
0
0
0
0
0
0
2
2
2
2
4
4
3
3
0
0
0
0
0
0
0
0
0
0
0
0
0
0
0
0
0
0
0
0
0
0
0
2
2
2
2
4
4
3
3
0
0
0
0
0
0
0
0
0
0
0
0
0
0
0
0
0
0
0
0
0
0
0
2
2
2
2
4
4
3
3
0
0
0
0
0
0
0
0
0
0
0
0
0
0
0
0
0
0
0
0
0
0
0
2
2
2
2
4
4
3
3
0
0
0
0
0
0
0
0
0
0
0
0
0
0
0
0
0
0
0
0
0
0
0
2
2
2
2
4
4
3
3
0
0
0
0
0
0
0
0
0
0
0
0
0
0
0
0
0
0
0
0
0
0
0
2
2
2
2
4
4
3
3
0
0
0
0
0
0
0
0
0
0
0
0
0
0
0
0
0
0
0
0
0
0
1
2
2
2
2
4
4
3
3
0
0
0
0
0
0
0
0
0
0
0
0
0
0
0
0
0
0
0
0
0
0
1
2
2
2
2
4
4
3
3
0
0
0
0
0
0
0
0
0
0
0
0
0
0
0
0
0
0
0
0
0
0
1
2
2
2
2
4
4
3
3
0
0
0
0
0
0
0
0
0
0
0
0
0
0
0
0
0
0
0
0
0
0
1
2
2
2
2
4
4
3
3
0
0
0
0
0
0
0
0
0
0
0
0
0
0
0
0
0
0
0
0
0
0
1
2
2
2
2
4
4
3
3
0
0
0
0
0
0
0
0
0
0
0
0
0
0
0
0
0
0
0
0
0
0
1
2
2
2
2
4
4
3
3
0
0
0
0
0
0
0
0
0
0
0
0
0
0
0
0
0
0
0
0
0
0
1
2
2
2
2
4
4
3
3
0
0
0
0
0
0
0
0
0
0
0
0
0
0
0
0
0
0
0
0
0
0
1
2
2
2
2
4
4
3
3
0
0
0
0
0
0
0
0
0
0
0
0
0
0
0
0
0
0
0
0
0
0
1
2
2
2
2
4
4
3
3
0
0
0
0
0
0
0
0
0
0
0
0
0
0
0
0
0
0
0
0
0
0
1
2
2
2
2
4
4
3
3
0
0
0
0
0
0
0
0
0
0
0
0
0
0
0
0
0
0
0
0
0
0
1
2
2
2
2
4
4
3
3
0
0
0
0
0
0
0
0
0
0
0
0
0
0
0
0
0
0
0
0
0
0
1
2
2
2
2
4
4
3
3
0
0
0
0
0
0
0
0
0
0
0
0
0
0
0
0
0
0
0
0
0
0
1
2
2
2
2
4
4
3
3
0
0
0
0
0
0
0
0
0
0
0
0
0
0
0
0
0
0
0
0
0
1
1
2
2
2
2
4
4
3
3
0
0
0
0
0
0
0
0
0
0
0
0
0
0
0
0
0
0
0
0
0
1
1
2
2
2
2
4
4
3
3
3
3
3
3
3
3
3
3
3
3
3
3
3
3
3
3
3
3
3
3
3
3
3
3
2
2
2
4
4
3
3
3
3
3
3
3
3
3
3
3
3
3
3
3
3
3
3
3
3
3
3
3
3
3
3
2
2
2
4
4
4
4
4
4
4
4
4
4
4
4
4
4
4
4
4
4
4
4
4
4
4
4
4
4
4
4
2
2
2
4
4
4
4
4
4
4
4
4
4
4
4
4
4
4
4
4
4
4
4
4
4
4
4
4
4
4
4
2
2
2
</DataArray>
<DataArray NumberOfComponents='1' type='Float32' Name='Temperature' format='ascii'>
0.000000
0.000000
0.000000
0.000000
0.000000
0.000000
0.000000
0.000000
0.000000
0.000000
0.000000
0.000000
0.000000
0.000000
0.000000
0.000000
0.000000
0.000000
0.000000
0.000000
0.000000
0.000000
0.000000
0.000000
0.000000
0.000000
0.000000
0.000000
-5.000000
-5.000000
-5.000000
0.000000
0.000000
0.000000
0.000000
0.000000
0.000000
0.000000
0.000000
0.000000
0.000000
0.000000
0.000000
0.000000
0.000000
0.000000
0.000000
0.000000
0.000000
0.000000
0.000000
0.000000
0.000000
0.000000
0.000000
0.000000
0.000000
0.000000
0.000000
-5.000000
-5.000000
-5.000000
0.000000
0.000000
0.000000
0.000000
0.000000
0.000000
0.000000
0.000000
0.000000
0.000000
0.000000
0.000000
0.000000
0.000000
0.000000
0.000000
0.000000
0.000000
0.000000
0.000000
0.000000
0.000000
0.000000
0.000000
0.000000
0.000000
0.000000
0.000000
-5.000000
-5.000000
-5.000000
0.000000
0.000000
0.000000
0.000000
0.000000
0.000000
0.000000
0.000000
0.000000
0.000000
0.000000
0.000000
0.000000
0.000000
0.000000
0.000000
0.000000
0.000000
0.000000
0.000000
0.000000
0.000000
0.000000
0.000000
0.000000
0.000000
0.000000
0.000000
-5.000000
-5.000000
-5.000000
0.000000
0.000000
0.000000
0.000000
0.148482
0.265984
0.384574
0.496645
0.601392
0.696856
0.781314
0.853077
0.910570
0.952370
0.977250
0.984214
0.972530
0.941748
0.891706
0.822525
0.734580
0.628386
0.504694
0.362655
0.208235
0.009832
-0.002701
-2.130357
-5.000000
-5.000000
-5.000000
0.000000
0.000000
0.000000
0.000000
0.268905
0.481384
0.696084
0.898979
1.088665
1.261586
1.414619
1.544699
1.648970
1.724851
1.770114
1.782960
1.762069
1.706641
1.616416
1.491662
1.333153
1.141990
0.919797
0.665732
0.391373
0.009991
-0.004395
-2.372867
-5.000000
-5.000000
-5.000000
0.000000
0.000000
0.000000
0.000000
0.395422
0.707944
1.023750
1.322277
1.601460
1.856069
2.081502
2.273237
2.427056
2.539148
2.606229
2.625651
2.595487
2.514594
2.382645
2.200134
1.968366
1.689292
1.365863
0.998380
0.603933
0.092295
-0.002542
-2.455804
-5.000000
-5.000000
-5.000000
0.000000
0.000000
0.000000
0.000000
0.522674
0.935817
1.353402
1.748273
2.117716
2.454815
2.753471
3.007682
3.211843
3.360886
3.450455
3.477047
3.438137
3.332260
3.159069
2.919355
2.615071
2.249219
1.826376
1.349166
0.838628
0.214715
-0.000436
-2.464338
-5.000000
-5.000000
-5.000000
0.000000
0.000000
0.000000
0.000000
0.651852
1.167189
1.688208
2.181089
2.642464
3.063709
3.437192
3.755388
4.011260
4.198449
4.311493
4.346020
4.298905
4.168384
3.954121
3.657259
3.280467
2.827904
2.305850
1.719575
1.092857
0.355428
0.001189
-2.453874
-5.000000
-5.000000
-5.000000
0.000000
0.000000
0.000000
0.000000
0.782772
1.401729
2.027702
2.620140
3.175027
3.682002
4.131867
4.515533
4.824489
5.051040
5.188590
5.231882
5.177192
5.022468
4.767415
4.413549
3.964272
3.424884
2.803268
2.107118
1.362036
0.507439
0.002666
-2.437493
-5.000000
-5.000000
-5.000000
0.000000
0.000000
0.000000
0.000000
0.915178
1.638980
2.371229
3.064590
3.714402
4.308547
4.836229
5.286756
5.650097
5.917187
6.080263
6.133169
6.071582
5.893179
5.597720
5.187101
4.665419
4.039019
3.317179
2.509701
1.643409
0.667543
0.004665
-2.418910
-5.000000
-5.000000
-5.000000
0.000000
0.000000
0.000000
0.000000
1.048481
1.877886
2.717258
3.512458
4.258187
4.940553
5.547142
6.065621
6.484408
6.793029
6.982539
7.045867
6.978103
6.776666
6.441387
5.974536
5.380849
4.667569
3.845105
2.925016
1.934909
0.834022
0.005919
-2.399290
-5.000000
-5.000000
-5.000000
0.000000
0.000000
0.000000
0.000000
1.181779
2.116829
3.063440
3.960695
4.802667
5.573691
6.259714
6.846748
7.321631
7.672466
7.889104
7.963568
7.890370
7.666699
7.292484
6.770364
6.105658
5.306338
4.383641
3.350466
2.234727
1.005792
0.007139
-2.379005
-5.000000
-5.000000
-5.000000
0.000000
0.000000
0.000000
0.000000
1.313851
2.353617
3.406593
4.405167
5.342798
6.202062
6.967274
7.622783
8.153842
8.547122
8.791278
8.877436
8.799559
8.554645
8.142760
7.566938
6.833034
5.949598
4.928352
3.783006
2.541107
1.182059
0.007888
-2.358176
-5.000000
-5.000000
-5.000000
0.000000
0.000000
0.000000
0.000000
1.443181
2.585526
3.742754
4.840720
5.872287
6.818308
7.661489
8.384533
8.971124
9.406513
9.678177
9.776377
9.694568
9.429610
8.981770
8.354527
7.554282
6.590043
5.473679
4.219057
2.852325
1.362389
0.008840
-2.336723
-5.000000
-5.000000
-5.000000
0.000000
0.000000
0.000000
0.000000
1.567994
2.809364
4.067287
5.261321
6.383767
7.413811
8.332595
9.121222
9.761843
10.238330
10.537021
10.647354
10.562328
10.278736
9.797124
9.121511
8.258906
7.218760
6.012823
4.654427
3.166782
1.546961
0.009275
-2.314274
-5.000000
-5.000000
-5.000000
0.000000
0.000000
0.000000
0.000000
1.686317
3.021588
4.375034
5.660263
6.869044
7.978980
8.969728
9.820857
10.513054
11.028875
11.353578
11.475835
11.388254
11.087629
10.574885
9.854691
8.934810
7.825238
6.537552
5.084030
3.483130
1.737752
0.009717
-2.289575
-5.000000
-5.000000
-5.000000
0.000000
0.000000
0.000000
0.000000
1.796053
3.218432
4.660522
6.030423
7.319415
8.503635
9.561351
10.470702
11.211010
11.763600
12.112730
12.246378
12.156823
11.840935
11.300097
10.539762
9.568626
8.397476
7.037953
5.501192
3.799970
1.939667
0.009916
-2.257857
-5.000000
-5.000000
-5.000000
0.000000
0.000000
0.000000
0.000000
1.895076
3.396071
4.918190
6.364567
7.726044
8.977433
10.095746
11.057826
11.841750
12.427732
12.799126
12.943296
12.852258
12.523007
11.957450
11.161921
10.146232
8.922279
7.502266
5.896693
4.113588
2.157557
0.012532
-2.211514
-5.000000
-5.000000
-5.000000
0.000000
0.000000
0.000000
0.000000
1.981319
3.550796
5.142642
6.655674
8.080356
9.390344
10.561551
11.569686
12.391739
13.006948
13.397884
13.551384
13.459255
13.118649
12.532013
11.706598
10.653448
9.385842
7.917120
6.258076
4.413979
2.387131
0.163382
-2.145312
-5.000000
-5.000000
-5.000000
0.000000
0.000000
0.000000
0.000000
2.052878
3.679183
5.328903
6.897273
8.374446
9.733117
10.948288
11.994722
12.848501
13.488054
13.895298
14.056637
13.963722
13.613856
13.009993
12.160244
11.076865
9.774623
8.268385
6.569995
4.683966
2.608675
0.324738
-2.070489
-5.000000
-5.000000
-5.000000
0.000000
0.000000
0.000000
0.000000
2.108102
3.778266
5.472658
7.083753
8.601460
9.997738
11.246879
12.322916
13.201229
13.859619
14.279498
14.446935
14.353463
13.996515
13.379450
12.511090
11.404710
10.076402
8.542554
6.816365
4.902508
2.796271
0.469227
-2.002925
-5.000000
-5.000000
-5.000000
0.000000
0.000000
0.000000
0.000000
2.145674
3.845680
5.570468
7.210639
8.755936
10.177815
11.450087
12.546285
13.441312
14.112539
14.541032
14.712632
14.618783
14.257002
13.630912
12.749800
11.627614
10.281330
8.728368
6.982925
5.050009
2.922908
0.568958
-1.956727
-5.000000
-5.000000
-5.000000
0.000000
0.000000
0.000000
0.000000
2.164678
3.879778
5.619942
7.274820
8.834074
10.268904
11.552879
12.659279
13.562764
14.240487
14.673336
14.847030
14.752959
14.388657
13.757844
12.869971
11.739212
10.382793
8.818364
7.060216
5.113197
2.970394
0.598457
-1.939742
-5.000000
-5.000000
-5.000000
0.000000
0.000000
0.000000
0.000000
2.164644
3.879717
5.619853
7.274702
8.833928
10.268731
11.552680
12.659056
13.562521
14.240224
14.673051
14.846708
14.752561
14.388099
13.756958
12.868443
11.736486
10.377920
8.809819
7.045778
5.090384
2.938368
0.562866
-1.952800
-5.000000
-5.000000
-5.000000
0.000000
0.000000
0.000000
0.000000
2.145575
3.845501
5.570205
7.210291
8.755505
10.177302
11.449497
12.545627
13.440593
14.111765
14.540194
14.711689
14.617624
14.255384
13.628357
12.745420
11.619859
10.267609
8.704647
6.943580
4.989241
2.840332
0.478945
-1.991183
-5.000000
-5.000000
-5.000000
0.000000
0.000000
0.000000
0.000000
2.107943
3.777977
5.472232
7.083190
8.600762
9.996907
11.245925
12.321851
13.200068
13.858372
14.278153
14.445433
14.351637
13.993997
13.375518
12.504429
11.393078
10.056207
8.508517
6.761814
4.821881
2.692433
0.363956
-2.047625
-5.000000
-5.000000
-5.000000
0.000000
0.000000
0.000000
0.000000
2.052664
3.678796
5.328332
6.896520
8.373510
9.732005
10.947011
11.993297
12.846951
13.486394
13.893522
14.054675
13.961374
13.610679
13.005118
12.152122
11.062944
9.751033
8.229906
6.510941
4.601313
2.509071
0.230023
-2.113543
-5.000000
-5.000000
-5.000000
0.000000
0.000000
0.000000
0.000000
1.981060
3.550326
5.141951
6.654761
8.079221
9.388995
10.560003
11.567962
12.389868
13.004955
13.395770
13.549082
13.456563
13.115099
12.526698
11.697930
10.638913
9.361872
7.879403
6.202871
4.341431
2.305817
0.091523
-2.178202
-5.000000
-5.000000
-5.000000
0.000000
0.000000
0.000000
0.000000
1.894782
3.395539
4.917406
6.363530
7.724757
8.975904
10.093992
11.055875
11.839638
12.425495
12.796778
12.940788
12.849408
12.519378
11.952189
11.153566
10.132560
8.900355
7.469006
5.850333
4.056855
2.099570
0.009937
-2.230755
-5.000000
-5.000000
-5.000000
0.000000
0.000000
0.000000
0.000000
1.795737
3.217858
4.659676
6.029304
7.318025
8.501984
9.559458
10.468600
11.208741
11.761213
12.110255
12.243793
12.153987
11.837482
11.295302
10.532397
9.556894
8.379181
7.011165
5.465619
3.759641
1.903049
0.009778
-2.267330
-5.000000
-5.000000
-5.000000
0.000000
0.000000
0.000000
0.000000
1.685989
3.020993
4.374157
5.659103
6.867603
7.977268
8.967766
9.818681
10.510714
11.026429
11.351075
11.473284
11.385568
11.084539
10.570832
9.848730
8.925603
7.811270
6.517759
5.058881
3.456542
1.716082
0.009604
-2.293955
-5.000000
-5.000000
-5.000000
0.000000
0.000000
0.000000
0.000000
1.567666
2.808769
4.066409
5.260160
6.382324
7.412096
8.330632
9.119047
9.759511
10.235907
10.534574
10.644924
10.559884
10.276111
9.793933
9.117089
8.252330
7.209052
5.999452
4.638059
3.150322
1.534538
0.009245
-2.316487
-5.000000
-5.000000
-5.000000
0.000000
0.000000
0.000000
0.000000
1.442864
2.584949
3.741903
4.839593
5.870887
6.816644
7.659584
8.382425
8.968869
9.404184
9.675854
9.774126
9.692410
9.427469
8.979417
8.351538
7.550064
6.583994
5.465533
4.209349
2.842864
1.355514
0.008757
-2.337867
-5.000000
-5.000000
-5.000000
0.000000
0.000000
0.000000
0.000000
1.313552
2.353075
3.405792
4.404107
5.341479
6.200493
6.965478
7.620797
8.151723
8.544944
8.789126
8.875397
8.797691
8.552945
8.141121
7.565119
6.830680
5.946342
4.924032
3.777922
2.536231
1.178593
0.008213
-2.358741
-5.000000
-5.000000
-5.000000
0.000000
0.000000
0.000000
0.000000
1.181505
2.116333
3.062707
3.959724
4.801458
5.572253
6.258067
6.844927
7.319691
7.670478
7.887156
7.961754
7.888773
7.665364
7.291386
6.769389
6.104604
5.304978
4.381841
3.348319
2.232649
1.004306
0.006969
-2.379274
-5.000000
-5.000000
-5.000000
0.000000
0.000000
0.000000
0.000000
1.048238
1.877445
2.716605
3.511592
4.257108
4.939270
5.545671
6.063994
6.482674
6.791257
6.980811
7.044278
6.976744
6.775608
6.440656
5.974091
5.380585
4.667335
3.844773
2.924545
1.934399
0.833639
0.005912
-2.399376
-5.000000
-5.000000
-5.000000
0.000000
0.000000
0.000000
0.000000
0.914968
1.638597
2.370663
3.063838
3.713465
4.307431
4.834949
5.285339
5.648587
5.915643
6.078761
6.131796
6.070428
5.892323
5.597210
5.186938
4.665549
4.039339
3.317565
2.510052
1.643677
0.667727
0.004668
-2.418868
-5.000000
-5.000000
-5.000000
0.000000
0.000000
0.000000
0.000000
0.782594
1.401406
2.027224
2.619505
3.174235
3.681057
4.130782
4.514331
4.823206
5.049728
5.187312
5.230715
5.176216
5.021757
4.767025
4.413498
3.964534
3.425384
2.803898
2.107763
1.362600
0.507872
0.003226
-2.437359
-5.000000
-5.000000
-5.000000
0.000000
0.000000
0.000000
0.000000
0.651706
1.166924
1.687816
2.180568
2.641814
3.062932
3.436299
3.754397
4.010201
4.197363
4.310432
4.345047
4.298088
4.167786
3.953793
3.657224
3.280713
2.828378
2.306464
1.720222
1.093439
0.355876
0.001552
-2.453733
-5.000000
-5.000000
-5.000000
0.000000
0.000000
0.000000
0.000000
0.522559
0.935608
1.353092
1.747861
2.117200
2.454198
2.752761
3.006894
3.210998
3.360017
3.449602
3.476260
3.437468
3.331760
3.158780
2.919298
2.615241
2.249578
1.826858
1.349685
0.839094
0.215064
-0.000322
-2.464235
-5.000000
-5.000000
-5.000000
0.000000
0.000000
0.000000
0.000000
0.395336
0.707786
1.023517
1.321966
1.601071
1.855604
2.080966
2.272640
2.426416
2.538487
2.605578
2.625044
2.594964
2.514191
2.382394
2.200053
1.968453
1.689521
1.366187
0.998735
0.604249
0.092517
-0.002652
-2.455742
-5.000000
-5.000000
-5.000000
0.000000
0.000000
0.000000
0.000000
0.268845
0.481276
0.695923
0.898766
1.088398
1.261266
1.414250
1.544288
1.648528
1.724393
1.769660
1.782534
1.761695
1.706345
1.616218
1.491576
1.333177
1.142110
0.919982
0.665938
0.391551
0.009995
-0.003961
-2.372821
-5.000000
-5.000000
-5.000000
0.000000
0.000000
0.000000
0.000000
0.148448
0.265922
0.384482
0.496523
0.601239
0.696674
0.781105
0.852843
0.910317
0.952107
0.976988
0.983966
0.972310
0.941568
0.891579
0.822458
0.734573
0.628431
0.504776
0.362748
0.208314
0.009848
-0.002933
-2.130349
-5.000000
-5.000000
-5.000000
0.000000
0.000000
0.000000
0.000000
0.000000
0.000000
0.000000
0.000000
0.000000
0.000000
0.000000
0.000000
0.000000
0.000000
0.000000
0.000000
0.000000
0.000000
0.000000
0.000000
0.000000
0.000000
0.000000
0.000000
0.000000
0.000000
0.000000
0.000000
-5.000000
-5.000000
-5.000000
0.000000
0.000000
0.000000
0.000000
0.000000
0.000000
0.000000
0.000000
0.000000
0.000000
0.000000
0.000000
0.000000
0.000000
0.000000
0.000000
0.000000
0.000000
0.000000
0.000000
0.000000
0.000000
0.000000
0.000000
0.000000
0.000000
0.000000
0.000000
-5.000000
-5.000000
-5.000000
0.000000
0.000000
0.000000
0.000000
0.000000
0.000000
0.000000
0.000000
0.000000
0.000000
0.000000
0.000000
0.000000
0.000000
0.000000
0.000000
0.000000
0.000000
0.000000
0.000000
0.000000
0.000000
0.000000
0.000000
0.000000
0.000000
0.000000
0.000000
-5.000000
-5.000000
-5.000000
0.000000
0.000000
0.000000
0.000000
0.000000
0.000000
0.000000
0.000000
0.000000
0.000000
0.000000
0.000000
0.000000
0.000000
0.000000
0.000000
0.000000
0.000000
0.000000
0.000000
0.000000
0.000000
0.000000
0.000000
0.000000
0.000000
0.000000
0.000000
-5.000000
-5.000000
-5.000000
</DataArray>
</PointData>
<Cells>
<DataArray type='Int32' Name='connectivity' format='ascii'>
0
1
2
3
4
5
6
7
8
9
10
11
12
13
14
15
16
17
18
19
20
21
22
23
24
25
26
27
28
29
30
31
32
33
34
35
36
37
38
39
40
41
42
43
44
45
46
47
48
49
50
51
52
53
54
55
56
57
58
59
60
61
62
63
64
65
66
67
68
69
70
71
72
73
74
75
76
77
78
79
80
81
82
83
84
85
86
87
88
89
90
91
92
93
94
95
96
97
98
99
100
101
102
103
104
105
106
107
108
109
110
111
112
113
114
115
116
117
118
119
120
121
122
123
124
125
126
127
128
129
130
131
132
133
134
135
136
137
138
139
140
141
142
143
144
145
146
147
148
149
150
151
152
153
154
155
156
157
158
159
160
161
162
163
164
165
166
167
168
169
170
171
172
173
174
175
176
177
178
179
180
181
182
183
184
185
186
187
188
189
190
191
192
193
194
195
196
197
198
199
200
201
202
203
204
205
206
207
208
209
210
211
212
213
214
215
216
217
218
219
220
221
222
223
224
225
226
227
228
229
230
231
232
233
234
235
236
237
238
239
240
241
242
243
244
245
246
247
248
249
250
251
252
253
254
255
256
257
258
259
260
261
262
263
264
265
266
267
268
269
270
271
272
273
274
275
276
277
278
279
280
281
282
283
284
285
286
287
288
289
290
291
292
293
294
295
296
297
298
299
300
301
302
303
304
305
306
307
308
309
310
311
312
313
314
315
316
317
318
319
320
321
322
323
324
325
326
327
328
329
330
331
332
333
334
335
336
337
338
339
340
341
342
343
344
345
346
347
348
349
350
351
352
353
354
355
356
357
358
359
360
361
362
363
364
365
366
367
368
369
370
371
372
373
374
375
376
377
378
379
380
381
382
383
384
385
386
387
388
389
390
391
392
393
394
395
396
397
398
399
400
401
402
403
404
405
406
407
408
409
410
411
412
413
414
415
416
417
418
419
420
421
422
423
424
425
426
427
428
429
430
431
432
433
434
435
436
437
438
439
440
441
442
443
444
445
446
447
448
449
450
451
452
453
454
455
456
457
458
459
460
461
462
463
464
465
466
467
468
469
470
471
472
473
474
475
476
477
478
479
480
481
482
483
484
485
486
487
488
489
490
491
492
493
494
495
496
497
498
499
500
501
502
503
504
505
506
507
508
509
510
511
512
513
514
515
516
517
518
519
520
521
522
523
524
525
526
527
528
529
530
531
532
533
534
535
536
537
538
539
540
541
542
543
544
545
546
547
548
549
550
551
552
553
554
555
556
557
558
559
560
561
562
563
564
565
566
567
568
569
570
571
572
573
574
575
576
577
578
579
580
581
582
583
584
585
586
587
588
589
590
591
592
593
594
595
596
597
598
599
600
601
602
603
604
605
606
607
608
609
610
611
612
613
614
615
616
617
618
619
620
621
622
623
624
625
626
627
628
629
630
631
632
633
634
635
636
637
638
639
640
641
642
643
644
645
646
647
648
649
650
651
652
653
654
655
656
657
658
659
660
661
662
663
664
665
666
667
668
669
670
671
672
673
674
675
676
677
678
679
680
681
682
683
684
685
686
687
688
689
690
691
692
693
694
695
696
697
698
699
700
701
702
703
704
705
706
707
708
709
710
711
712
713
714
715
716
717
718
719
720
721
722
723
724
725
726
727
728
729
730
731
732
733
734
735
736
737
738
739
740
741
742
743
744
745
746
747
748
749
750
751
752
753
754
755
756
757
758
759
760
761
762
763
764
765
766
767
768
769