<?xml version='1.0' encoding='UTF-8'?>
<VTKFile xmlns='VTK' byte_order='LittleEndian' version='0.1' type='UnstructuredGrid'>
<UnstructuredGrid>
<Piece NumberOfCells='1488' NumberOfPoints='1488'>
<Points>
<DataArray NumberOfComponents='3' type='Float32' Name='Position' format='ascii'>
-0.075000 -0.075000 0.000000
-0.075000 -0.050000 0.000000
-0.075000 -0.025000 0.000000
-0.075000 0.000000 0.000000
-0.075000 0.025000 0.000000
-0.075000 0.050000 0.000000
-0.075000 0.075000 0.000000
-0.075000 0.100000 0.000000
-0.075000 0.125000 0.000000
-0.075000 0.150000 0.000000
-0.075000 0.175000 0.000000
-0.075000 0.200000 0.000000
-0.075000 0.225000 0.000000
-0.075000 0.250000 0.000000
-0.075000 0.275000 0.000000
-0.075000 0.300000 0.000000
-0.075000 0.325000 0.000000
-0.075000 0.350000 0.000000
-0.075000 0.375000 0.000000
-0.075000 0.400000 0.000000
-0.075000 0.425000 0.000000
-0.075000 0.450000 0.000000
-0.075000 0.475000 0.000000
-0.075000 0.500000 0.000000
-0.075000 0.525000 0.000000
-0.075000 0.550000 0.000000
-0.075000 0.575000 0.000000
-0.075000 0.600000 0.000000
-0.075000 0.625000 0.000000
-0.075000 0.650000 0.000000
-0.075000 0.675000 0.000000
-0.050000 -0.075000 0.000000
-0.050000 -0.050000 0.000000
-0.050000 -0.025000 0.000000
-0.050000 0.000000 0.000000
-0.050000 0.025000 0.000000
-0.050000 0.050000 0.000000
-0.050000 0.075000 0.000000
-0.050000 0.100000 0.000000
-0.050000 0.125000 0.000000
-0.050000 0.150000 0.000000
-0.050000 0.175000 0.000000
-0.050000 0.200000 0.000000
-0.050000 0.225000 0.000000
-0.050000 0.250000 0.000000
-0.050000 0.275000 0.000000
-0.050000 0.300000 0.000000
-0.050000 0.325000 0.000000
-0.050000 0.350000 0.000000
-0.050000 0.375000 0.000000
-0.050000 0.400000 0.000000
-0.050000 0.425000 0.000000
-0.050000 0.450000 0.000000
-0.050000 0.475000 0.000000
-0.050000 0.500000 0.000000
-0.050000 0.525000 0.000000
-0.050000 0.550000 0.000000
-0.050000 0.575000 0.000000
-0.050000 0.600000 0.000000
-0.050000 0.625000 0.000000
-0.050000 0.650000 0.000000
-0.050000 0.675000 0.000000
-0.025000 -0.075000 0.000000
-0.025000 -0.050000 0.000000
-0.025000 -0.025000 0.000000
-0.025000 0.000000 0.000000
-0.025000 0.025000 0.000000
-0.025000 0.050000 0.000000
-0.025000 0.075000 0.000000
-0.025000 0.100000 0.000000
-0.025000 0.125000 0.000000
-0.025000 0.150000 0.000000
-0.025000 0.175000 0.000000
-0.025000 0.200000 0.000000
-0.025000 0.225000 0.000000
-0.025000 0.250000 0.000000
-0.025000 0.275000 0.000000
-0.025000 0.300000 0.000000
-0.025000 0.325000 0.000000
-0.025000 0.350000 0.000000
-0.025000 0.375000 0.000000
-0.025000 0.400000 0.000000
-0.025000 0.425000 0.000000
-0.025000 0.450000 0.000000
-0.025000 0.475000 0.000000
-0.025000 0.500000 0.000000
-0.025000 0.525000 0.000000
-0.025000 0.550000 0.000000
-0.025000 0.575000 0.000000
-0.025000 0.600000 0.000000
-0.025000 0.625000 0.000000
-0.025000 0.650000 0.000000
-0.025000 0.675000 0.000000
0.000000 -0.075000 0.000000
0.000000 -0.050000 0.000000
0.000000 -0.025000 0.000000
0.000000 0.000000 0.000000
0.000000 0.025000 0.000000
0.000000 0.050000 0.000000
0.000000 0.075000 0.000000
0.000000 0.100000 0.000000
0.000000 0.125000 0.000000
0.000000 0.150000 0.000000
0.000000 0.175000 0.000000
0.000000 0.200000 0.000000
0.000000 0.225000 0.000000
0.000000 0.250000 0.000000
0.000000 0.275000 0.000000
0.000000 0.300000 0.000000
0.000000 0.325000 0.000000
0.000000 0.350000 0.000000
0.000000 0.375000 0.000000
0.000000 0.400000 0.000000
0.000000 0.425000 0.000000
0.000000 0.450000 0.000000
0.000000 0.475000 0.000000
0.000000 0.500000 0.000000
0.000000 0.525000 0.000000
0.000000 0.550000 0.000000
0.000000 0.575000 0.000000
0.000000 0.600000 0.000000
0.000000 0.625000 0.000000
0.000000 0.650000 0.000000
0.000000 0.675000 0.000000
0.025000 -0.075000 0.000000
0.025000 -0.050000 0.000000
0.025000 -0.025000 0.000000
0.025000 0.000000 0.000000
0.025000 0.025000 0.000000
0.025000 0.050000 0.000000
0.025000 0.075000 0.000000
0.025000 0.100000 0.000000
0.025000 0.125000 0.000000
0.025000 0.150000 0.000000
0.025000 0.175000 0.000000
0.025000 0.200000 0.000000
0.025000 0.225000 0.000000
0.025000 0.250000 0.000000
0.025000 0.275000 0.000000
0.025000 0.300000 0.000000
0.025000 0.325000 0.000000
0.025000 0.350000 0.000000
0.025000 0.375000 0.000000
0.025000 0.400000 0.000000
0.025000 0.425000 0.000000
0.025000 0.450000 0.000000
0.025000 0.475000 0.000000
0.025000 0.500000 0.000000
0.025000 0.525000 0.000000
0.025000 0.550000 0.000000
0.025000 0.575000 0.000000
0.025000 0.600000 0.000000
0.025000 0.625000 0.000000
0.025000 0.650000 0.000000
0.025000 0.675000 0.000000
0.050000 -0.075000 0.000000
0.050000 -0.050000 0.000000
0.050000 -0.025000 0.000000
0.050000 0.000000 0.000000
0.050000 0.025000 0.000000
0.050000 0.050000 0.000000
0.050000 0.075000 0.000000
0.050000 0.100000 0.000000
0.050000 0.125000 0.000000
0.050000 0.150000 0.000000
0.050000 0.175000 0.000000
0.050000 0.200000 0.000000
0.050000 0.225000 0.000000
0.050000 0.250000 0.000000
0.050000 0.275000 0.000000
0.050000 0.300000 0.000000
0.050000 0.325000 0.000000
0.050000 0.350000 0.000000
0.050000 0.375000 0.000000
0.050000 0.400000 0.000000
0.050000 0.425000 0.000000
0.050000 0.450000 0.000000
0.050000 0.475000 0.000000
0.050000 0.500000 0.000000
0.050000 0.525000 0.000000
0.050000 0.550000 0.000000
0.050000 0.575000 0.000000
0.050000 0.600000 0.000000
0.050000 0.625000 0.000000
0.050000 0.650000 0.000000
0.050000 0.675000 0.000000
0.075000 -0.075000 0.000000
0.075000 -0.050000 0.000000
0.075000 -0.025000 0.000000
0.075000 0.000000 0.000000
0.075000 0.025000 0.000000
0.075000 0.050000 0.000000
0.075000 0.075000 0.000000
0.075000 0.100000 0.000000
0.075000 0.125000 0.000000
0.075000 0.150000 0.000000
0.075000 0.175000 0.000000
0.075000 0.200000 0.000000
0.075000 0.225000 0.000000
0.075000 0.250000 0.000000
0.075000 0.275000 0.000000
0.075000 0.300000 0.000000
0.075000 0.325000 0.000000
0.075000 0.350000 0.000000
0.075000 0.375000 0.000000
0.075000 0.400000 0.000000
0.075000 0.425000 0.000000
0.075000 0.450000 0.000000
0.075000 0.475000 0.000000
0.075000 0.500000 0.000000
0.075000 0.525000 0.000000
0.075000 0.550000 0.000000
0.075000 0.575000 0.000000
0.075000 0.600000 0.000000
0.075000 0.625000 0.000000
0.075000 0.650000 0.000000
0.075000 0.675000 0.000000
0.100000 -0.075000 0.000000
0.100000 -0.050000 0.000000
0.100000 -0.025000 0.000000
0.100000 0.000000 0.000000
0.100000 0.025000 0.000000
0.100000 0.050000 0.000000
0.100000 0.075000 0.000000
0.100000 0.100000 0.000000
0.100000 0.125000 0.000000
0.100000 0.150000 0.000000
0.100000 0.175000 0.000000
0.100000 0.200000 0.000000
0.100000 0.225000 0.000000
0.100000 0.250000 0.000000
0.100000 0.275000 0.000000
0.100000 0.300000 0.000000
0.100000 0.325000 0.000000
0.100000 0.350000 0.000000
0.100000 0.375000 0.000000
0.100000 0.400000 0.000000
0.100000 0.425000 0.000000
0.100000 0.450000 0.000000
0.100000 0.475000 0.000000
0.100000 0.500000 0.000000
0.100000 0.525000 0.000000
0.100000 0.550000 0.000000
0.100000 0.575000 0.000000
0.100000 0.600000 0.000000
0.100000 0.625000 0.000000
0.100000 0.650000 0.000000
0.100000 0.675000 0.000000
0.125000 -0.075000 0.000000
0.125000 -0.050000 0.000000
0.125000 -0.025000 0.000000
0.125000 0.000000 0.000000
0.125000 0.025000 0.000000
0.125000 0.050000 0.000000
0.125000 0.075000 0.000000
0.125000 0.100000 0.000000
0.125000 0.125000 0.000000
0.125000 0.150000 0.000000
0.125000 0.175000 0.000000
0.125000 0.200000 0.000000
0.125000 0.225000 0.000000
0.125000 0.250000 0.000000
0.125000 0.275000 0.000000
0.125000 0.300000 0.000000
0.125000 0.325000 0.000000
0.125000 0.350000 0.000000
0.125000 0.375000 0.000000
0.125000 0.400000 0.000000
0.125000 0.425000 0.000000
0.125000 0.450000 0.000000
0.125000 0.475000 0.000000
0.125000 0.500000 0.000000
0.125000 0.525000 0.000000
0.125000 0.550000 0.000000
0.125000 0.575000 0.000000
0.125000 0.600000 0.000000
0.125000 0.625000 0.000000
0.125000 0.650000 0.000000
0.125000 0.675000 0.000000
0.150000 -0.075000 0.000000
0.150000 -0.050000 0.000000
0.150000 -0.025000 0.000000
0.150000 0.000000 0.000000
0.150000 0.025000 0.000000
0.150000 0.050000 0.000000
0.150000 0.075000 0.000000
0.150000 0.100000 0.000000
0.150000 0.125000 0.000000
0.150000 0.150000 0.000000
0.150000 0.175000 0.000000
0.150000 0.200000 0.000000
0.150000 0.225000 0.000000
0.150000 0.250000 0.000000
0.150000 0.275000 0.000000
0.150000 0.300000 0.000000
0.150000 0.325000 0.000000
0.150000 0.350000 0.000000
0.150000 0.375000 0.000000
0.150000 0.400000 0.000000
0.150000 0.425000 0.000000
0.150000 0.450000 0.000000
0.150000 0.475000 0.000000
0.150000 0.500000 0.000000
0.150000 0.525000 0.000000
0.150000 0.550000 0.000000
0.150000 0.575000 0.000000
0.150000 0.600000 0.000000
0.150000 0.625000 0.000000
0.150000 0.650000 0.000000
0.150000 0.675000 0.000000
0.175000 -0.075000 0.000000
0.175000 -0.050000 0.000000
0.175000 -0.025000 0.000000
0.175000 0.000000 0.000000
0.175000 0.025000 0.000000
0.175000 0.050000 0.000000
0.175000 0.075000 0.000000
0.175000 0.100000 0.000000
0.175000 0.125000 0.000000
0.175000 0.150000 0.000000
0.175000 0.175000 0.000000
0.175000 0.200000 0.000000
0.175000 0.225000 0.000000
0.175000 0.250000 0.000000
0.175000 0.275000 0.000000
0.175000 0.300000 0.000000
0.175000 0.325000 0.000000
0.175000 0.350000 0.000000
0.175000 0.375000 0.000000
0.175000 0.400000 0.000000
0.175000 0.425000 0.000000
0.175000 0.450000 0.000000
0.175000 0.475000 0.000000
0.175000 0.500000 0.000000
0.175000 0.525000 0.000000
0.175000 0.550000 0.000000
0.175000 0.575000 0.000000
0.175000 0.600000 0.000000
0.175000 0.625000 0.000000
0.175000 0.650000 0.000000
0.175000 0.675000 0.000000
0.200000 -0.075000 0.000000
0.200000 -0.050000 0.000000
0.200000 -0.025000 0.000000
0.200000 0.000000 0.000000
0.200000 0.025000 0.000000
0.200000 0.050000 0.000000
0.200000 0.075000 0.000000
0.200000 0.100000 0.000000
0.200000 0.125000 0.000000
0.200000 0.150000 0.000000
0.200000 0.175000 0.000000
0.200000 0.200000 0.000000
0.200000 0.225000 0.000000
0.200000 0.250000 0.000000
[...]
<PointData>
<DataArray NumberOfComponents='1' type='Int32' Name='ParticleType' format='ascii'>
4
4
4
4
4
4
4
4
4
4
4
4
4
4
4
4
4
4
4
4
4
4
4
4
4
4
4
4
2
2
2
4
4
4
4
4
4
4
4
4
4
4
4
4
4
4
4
4
4
4
4
4
4
4
4
4
4
4
4
2
2
2
4
4
3
3
3
3
3
3
3
3
3
3
3
3
3
3
3
3
3
3
3
3
3
3
3
3
3
3
2
2
2
4
4
3
3
3
3
3
3
3
3
3
3
3
3
3
3
3
3
3
3
3
3
3
3
3
3
3
3
2
2
2
4
4
3
3
0
0
0
0
0
0
0
0
0
0
0
0
0
0
0
0
0
0
0
0
0
0
1
2
2
2
2
4
4
3
3
0
0
0
0
0
0
0
0
0
0
0
0
0
0
0
0
0
0
0
0
0
0
1
2
2
2
2
4
4
3
3
0
0
0
0
0
0
0
0
0
0
0
0
0
0
0
0
0
0
0
0
0
0
1
1
2
2
2
4
4
3
3
0
0
0
0
0
0
0
0
0
0
0
0
0
0
0
0
0
0
0
0
0
0
1
1
2
2
2
4
4
3
3
0
0
0
0
0
0
0
0
0
0
0
0
0
0
0
0
0
0
0
0
0
0
0
1
2
2
2
4
4
3
3
0
0
0
0
0
0
0
0
0
0
0
0
0
0
0
0
0
0
0
0
0
0
0
1
2
2
2
4
4
3
3
0
0
0
0
0
0
0
0
0
0
0
0
0
0
0
0
0
0
0
0
0
0
0
1
2
2
2
4
4
3
3
0
0
0
0
0
0
0
0
0
0
0
0
0
0
0
0
0
0
0
0
0
0
0
1
2
2
2
4
4
3
3
0
0
0
0
0
0
0
0
0
0
0
0
0
0
0
0
0
0
0
0
0
0
0
1
2
2
2
4
4
3
3
0
0
0
0
0
0
0
0
0
0
0
0
0
0
0
0
0
0
0
0
0
0
0
1
2
2
2
4
4
3
3
0
0
0
0
0
0
0
0
0
0
0
0
0
0
0
0
0
0
0
0
0
0
0
1
2
2
2
4
4
3
3
0
0
0
0
0
0
0
0
0
0
0
0
0
0
0
0
0
0
0
0
0
0
0
1
2
2
2
4
4
3
3
0
0
0
0
0
0
0
0
0
0
0
0
0
0
0
0
0
0
0
0
0
0
0
1
2
2
2
4
4
3
3
0
0
0
0
0
0
0
0
0
0
0
0
0
0
0
0
0
0
0
0
0
0
0
1
2
2
2
4
4
3
3
0
0
0
0
0
0
0
0
0
0
0
0
0
0
0
0
0
0
0
0
0
0
0
1
2
2
2
4
4
3
3
0
0
0
0
0
0
0
0
0
0
0
0
0
0
0
0
0
0
0
0
0
0
0
1
2
2
2
4
4
3
3
0
0
0
0
0
0
0
0
0
0
0
0
0
0
0
0
0
0
0
0
0
0
0
1
2
2
2
4
4
3
3
0
0
0
0
0
0
0
0
0
0
0
0
0
0
0
0
0
0
0
0
0
0
0
1
2
2
2
4
4
3
3
0
0
0
0
0
0
0
0
0
0
0
0
0
0
0
0
0
0
0
0
0
0
0
1
2
2
2
4
4
3
3
0
0
0
0
0
0
0
0
0
0
0
0
0
0
0
0
0
0
0
0
0
0
0
1
2
2
2
4
4
3
3
0
0
0
0
0
0
0
0
0
0
0
0
0
0
0
0
0
0
0
0
0
0
0
1
2
2
2
4
4
3
3
0
0
0
0
0
0
0
0
0
0
0
0
0
0
0
0
0
0
0
0
0
0
0
1
2
2
2
4
4
3
3
0
0
0
0
0
0
0
0
0
0
0
0
0
0
0
0
0
0
0
0
0
0
0
1
2
2
2
4
4
3
3
0
0
0
0
0
0
0
0
0
0
0
0
0
0
0
0
0
0
0
0
0
0
0
1
2
2
2
4
4
3
3
0
0
0
0
0
0
0
0
0
0
0
0
0
0
0
0
0
0
0
0
0
0
0
1
2
2
2
4
4
3
3
0
0
0
0
0
0
0
0
0
0
0
0
0
0
0
0
0
0
0
0
0
0
0
1
2
2
2
4
4
3
3
0
0
0
0
0
0
0
0
0
0
0
0
0
0
0
0
0
0
0
0
0
0
0
1
2
2
2
4
4
3
3
0
0
0
0
0
0
0
0
0
0
0
0
0
0
0
0
0
0
0
0
0
0
0
1
2
2
2
4
4
3
3
0
0
0
0
0
0
0
0
0
0
0
0
0
0
0
0
0
0
0
0
0
0
0
1
2
2
2
4
4
3
3
0
0
0
0
0
0
0
0
0
0
0
0
0
0
0
0
0
0
0
0
0
0
0
1
2
2
2
4
4
3
3
0
0
0
0
0
0
0
0
0
0
0
0
0
0
0
0
0
0
0
0
0
0
0
1
2
2
2
4
4
3
3
0
0
0
0
0
0
0
0
0
0
0
0
0
0
0
0
0
0
0
0
0
0
0
1
2
2
2
4
4
3
3
0
0
0
0
0
0
0
0
0
0
0
0
0
0
0
0
0
0
0
0
0
0
0
1
2
2
2
4
4
3
3
0
0
0
0
0
0
0
0
0
0
0
0
0
0
0
0
0
0
0
0
0
0
0
1
2
2
2
4
4
3
3
0
0
0
0
0
0
0
0
0
0
0
0
0
0
0
0
0
0
0
0
0
0
0
1
2
2
2
4
4
3
3
0
0
0
0
0
0
0
0
0
0
0
0
0
0
0
0
0
0
0
0
0
0
0
1
2
2
2
4
4
3
3
0
0
0
0
0
0
0
0
0
0
0
0
0
0
0
0
0
0
0
0
0
0
1
1
2
2
2
4
4
3
3
0
0
0
0
0
0
0
0
0
0
0
0
0
0
0
0
0
0
0
0
0
0
1
2
2
2
2
4
4
3
3
0
0
0
0
0
0
0
0
0
0
0
0
0
0
0
0
0
0
0
0
0
0
1
2
2
2
2
4
4
3
3
0
0
0
0
0
0
0
0
0
0
0
0
0
0
0
0
0
0
0
0
0
0
1
2
2
2
2
4
4
3
3
3
3
3
3
3
3
3
3
3
3
3
3
3
3
3
3
3
3
3
3
3
3
3
3
2
2
2
4
4
3
3
3
3
3
3
3
3
3
3
3
3
3
3
3
3
3
3
3
3
3
3
3
3
3
3
2
2
2
4
4
4
4
4
4
4
4
4
4
4
4
4
4
4
4
4
4
4
4
4
4
4
4
4
4
4
4
2
2
2
4
4
4
4
4
4
4
4
4
4
4
4
4
4
4
4
4
4
4
4
4
4
4
4
4
4
4
4
2
2
2
</DataArray>
<DataArray NumberOfComponents='1' type='Float32' Name='Temperature' format='ascii'>
0.000000
0.000000
0.000000
0.000000
0.000000
0.000000
0.000000
0.000000
0.000000
0.000000
0.000000
0.000000
0.000000
0.000000
0.000000
0.000000
0.000000
0.000000
0.000000
0.000000
0.000000
0.000000
0.000000
0.000000
0.000000
0.000000
0.000000
0.000000
-5.000000
-5.000000
-5.000000
0.000000
0.000000
0.000000
0.000000
0.000000
0.000000
0.000000
0.000000
0.000000
0.000000
0.000000
0.000000
0.000000
0.000000
0.000000
0.000000
0.000000
0.000000
0.000000
0.000000
0.000000
0.000000
0.000000
0.000000
0.000000
0.000000
0.000000
0.000000
-5.000000
-5.000000
-5.000000
0.000000
0.000000
0.000000
0.000000
0.000000
0.000000
0.000000
0.000000
0.000000
0.000000
0.000000
0.000000
0.000000
0.000000
0.000000
0.000000
0.000000
0.000000
0.000000
0.000000
0.000000
0.000000
0.000000
0.000000
0.000000
0.000000
0.000000
0.000000
-5.000000
-5.000000
-5.000000
0.000000
0.000000
0.000000
0.000000
0.000000
0.000000
0.000000
0.000000
0.000000
0.000000
0.000000
0.000000
0.000000
0.000000
0.000000
0.000000
0.000000
0.000000
0.000000
0.000000
0.000000
0.000000
0.000000
0.000000
0.000000
0.000000
0.000000
0.000000
-5.000000
-5.000000
-5.000000
0.000000
0.000000
0.000000
0.000000
0.180415
0.321392
0.460991
0.589455
0.706010
0.809093
0.897891
0.971882
1.030708
1.074027
1.101437
1.112440
1.106451
1.082812
1.040823
0.979780
0.899051
0.798192
0.677049
0.535778
0.373052
0.164999
0.008515
-1.912168
-5.000000
-5.000000
-5.000000
0.000000
0.000000
0.000000
0.000000
0.324117
0.577299
0.828795
1.060911
1.272346
1.460208
1.622864
1.759119
1.868021
1.948640
1.999971
2.020916
2.010321
1.967027
1.889921
1.777985
1.630396
1.446698
1.226955
0.972111
0.682652
0.347042
0.008895
-1.736414
-5.000000
-5.000000
-5.000000
0.000000
0.000000
0.000000
0.000000
0.471363
0.840347
1.207992
1.548931
1.861348
2.140871
2.384731
2.590607
2.756420
2.880102
2.959552
2.992704
2.977652
2.912755
2.796715
2.628608
2.407944
2.134820
1.810042
1.435930
1.013247
0.556365
0.009612
-0.009326
-5.000000
-5.000000
-5.000000
0.000000
0.000000
0.000000
0.000000
0.615109
1.097929
1.581079
2.032038
2.448577
2.824702
3.156090
3.438662
3.668450
3.841461
3.953800
4.001919
3.982908
3.894710
3.736205
3.507187
3.208297
2.841040
2.407738
1.912605
1.356325
0.769403
0.009881
-0.008512
-5.000000
-5.000000
-5.000000
0.000000
0.000000
0.000000
0.000000
0.757469
1.354081
1.954318
2.519038
3.045722
3.526546
3.955084
4.324686
4.628513
4.859632
5.011440
5.078240
5.055788
4.941667
4.735388
4.438243
4.053010
3.583702
3.035208
2.414363
1.723033
0.998446
0.053291
-0.007566
-5.000000
-5.000000
-5.000000
0.000000
0.000000
0.000000
0.000000
0.899892
1.611558
2.332062
3.016178
3.661240
4.257332
4.795274
5.264873
5.655249
5.955313
6.154669
6.244660
6.219302
6.075876
5.815045
5.440510
4.958369
4.376428
3.703411
2.949812
2.120388
1.256971
0.185792
-0.005908
-5.000000
-5.000000
-5.000000
0.000000
0.000000
0.000000
0.000000
1.044431
1.874148
2.720027
3.531250
4.305156
5.029434
5.691419
6.276289
6.767815
7.149392
7.405606
7.523927
7.496166
7.319352
6.995864
6.532809
5.940892
5.233112
4.423369
3.526858
2.552549
1.545264
0.341275
-0.005010
-5.000000
-5.000000
-5.000000
0.000000
0.000000
0.000000
0.000000
1.192946
2.145213
3.123157
4.070787
4.985599
5.852559
6.654752
7.371586
7.980109
8.456772
8.779852
8.931981
8.902260
8.687512
8.292403
7.728476
7.012363
6.163678
5.202815
4.150642
3.020867
1.860415
0.513667
-0.004810
-5.000000
-5.000000
-5.000000
0.000000
0.000000
0.000000
0.000000
1.346614
2.426809
3.544319
4.638315
5.706599
6.731093
7.689874
8.555473
9.296868
9.882167
10.282072
10.473422
10.442114
10.184790
9.708959
9.031587
8.176503
7.171294
6.044078
4.822280
3.524677
2.199773
0.699819
-0.003213
-5.000000
-5.000000
-5.000000
0.000000
0.000000
0.000000
0.000000
1.505486
2.718878
3.983112
5.232790
6.466154
7.661788
8.792092
9.821719
10.710381
11.416581
11.902308
12.137754
12.105157
11.801000
11.236123
10.433788
9.426151
8.249970
6.942168
5.537510
4.060205
2.560143
0.897420
-0.002841
-5.000000
-5.000000
-5.000000
0.000000
0.000000
0.000000
0.000000
1.668244
3.018818
4.435248
5.847800
7.255259
8.632647
9.946157
11.151781
12.199010
13.035753
13.614382
13.897758
13.864105
13.509757
12.849270
11.912892
10.741994
9.383444
7.883823
6.285856
4.619510
2.935997
1.103338
-0.001552
-5.000000
-5.000000
-5.000000
0.000000
0.000000
0.000000
0.000000
1.832199
3.321485
4.892593
6.471661
8.058096
9.623223
11.126703
12.515376
13.727915
14.701000
15.376819
15.710473
15.675940
15.269423
14.509431
13.433640
12.093193
10.545662
8.847815
7.050732
5.190338
3.319138
1.313050
-0.000859
-5.000000
-5.000000
-5.000000
0.000000
0.000000
0.000000
0.000000
1.993522
3.619645
5.343860
7.088411
8.853360
10.606328
12.300358
13.872998
15.251923
16.362402
17.136264
17.520723
17.485451
17.026522
16.166486
14.950579
13.439885
11.702857
9.806597
7.810630
5.756864
3.699072
1.520879
-0.000678
-5.000000
-5.000000
-5.000000
0.000000
0.000000
0.000000
0.000000
2.147655
3.904731
5.775791
7.679453
9.616437
11.550776
13.429077
15.179833
16.719998
17.963716
18.832718
19.266532
19.230632
18.720980
17.764065
16.412503
14.737074
12.816832
10.728941
8.541135
6.301119
4.063878
1.720403
0.000932
-5.000000
-5.000000
-5.000000
0.000000
0.000000
0.000000
0.000000
2.289802
4.167767
6.174557
8.225503
10.321941
12.424571
14.473997
16.390269
18.080343
19.447982
20.405503
20.885266
20.848838
20.292073
19.245140
17.767539
15.939092
13.848738
11.583016
9.217310
6.804707
4.401321
1.904897
0.001449
-5.000000
-5.000000
-5.000000
0.000000
0.000000
0.000000
0.000000
2.415403
4.400237
6.527094
8.708421
10.946101
13.197874
15.399014
17.462064
19.285102
20.762674
21.798735
22.319284
22.282417
21.683896
20.557160
18.967817
17.003719
14.762580
12.339263
9.815939
7.250473
4.699963
2.068145
0.002261
-5.000000
-5.000000
-5.000000
0.000000
0.000000
0.000000
0.000000
2.520491
4.594759
6.822117
9.112601
11.468553
13.845228
16.173430
18.359413
20.293815
21.863461
22.965306
23.520024
23.482806
22.849337
21.655791
19.972892
17.895212
15.527814
12.972533
10.317221
7.623745
4.950032
2.204809
0.001980
-5.000000
-5.000000
-5.000000
0.000000
0.000000
0.000000
0.000000
2.601915
4.745477
7.050700
9.425752
11.873324
14.346746
16.773354
19.054537
21.075169
22.716104
23.868884
24.450059
24.412577
23.752061
22.506802
20.751481
18.585866
16.120703
13.463220
10.705672
7.913025
5.143848
2.310772
0.003059
-5.000000
-5.000000
-5.000000
0.000000
0.000000
0.000000
0.000000
2.657395
4.848167
7.206432
9.639078
12.149033
14.688315
17.181901
19.527866
21.607168
23.296604
24.484031
25.083205
25.045546
24.366637
23.086205
21.281617
19.056173
16.524483
13.797440
10.970289
8.110108
5.275911
2.382972
0.003038
-5.000000
-5.000000
-5.000000
0.000000
0.000000
0.000000
0.000000
2.685487
4.900158
7.285266
9.747051
12.288557
14.861137
17.388578
19.767280
21.876226
23.590163
24.795094
25.403359
25.365611
24.677411
23.379212
21.549735
19.294062
16.728750
13.966543
11.104198
8.209857
5.342759
2.419526
0.003270
-5.000000
-5.000000
-5.000000
0.000000
0.000000
0.000000
0.000000
2.685496
4.900168
7.285269
9.747034
12.288506
14.861041
17.388425
19.767065
21.875951
23.589834
24.794724
25.402969
25.365220
24.677040
23.378880
21.549455
19.293841
16.728589
13.966435
11.104134
8.209825
5.342747
2.419523
0.003272
-5.000000
-5.000000
-5.000000
0.000000
0.000000
0.000000
0.000000
2.657420
4.848194
7.206434
9.639020
12.148874
14.688016
17.181432
19.527210
21.606329
23.295602
24.482909
25.082018
25.044357
24.365510
23.085195
21.280764
19.055499
16.523988
13.797107
10.970090
8.110006
5.275871
2.382963
0.003045
-5.000000
-5.000000
-5.000000
0.000000
0.000000
0.000000
0.000000
2.601950
4.745512
7.050690
9.425636
11.873035
14.346221
16.772543
19.053413
21.073736
22.714400
23.866977
24.448043
24.410558
23.750146
22.505084
20.750026
18.584710
16.119850
13.462642
10.705320
7.912839
5.143770
2.310753
0.003075
-5.000000
-5.000000
-5.000000
0.000000
0.000000
0.000000
0.000000
2.520531
4.594792
6.822080
9.112411
11.468116
13.844457
16.172255
18.357799
20.291767
21.861032
22.962595
23.517160
23.479938
22.846614
21.653343
19.970814
17.893556
15.526583
12.971689
10.316699
7.623462
4.949908
2.204775
0.002011
-5.000000
-5.000000
-5.000000
0.000000
0.000000
0.000000
0.000000
2.415443
4.400261
6.527023
8.708148
10.945510
13.196855
15.397480
17.459971
19.282458
20.759546
21.795247
22.315603
22.278731
21.680395
20.554008
18.965135
17.001572
14.760975
12.338156
9.815245
7.250089
4.699789
2.068094
0.002312
-5.000000
-5.000000
-5.000000
0.000000
0.000000
0.000000
0.000000
2.289843
4.167782
6.174455
8.225159
10.321218
12.423339
14.472155
16.387764
18.077187
19.444255
20.401350
20.880885
20.844451
20.287903
19.241384
17.764338
15.936524
13.846812
11.581680
9.216465
6.804235
4.401103
1.904834
0.001517
-5.000000
-5.000000
-5.000000
0.000000
0.000000
0.000000
0.000000
2.147700
3.904748
5.775676
7.679069
9.615633
11.549407
13.427031
15.177051
16.716493
17.959577
18.828106
19.261665
19.225760
18.716348
17.759891
16.408946
14.734220
12.814691
10.727454
8.540195
6.300593
4.063638
1.720338
0.001038
-5.000000
-5.000000
-5.000000
0.000000
0.000000
0.000000
0.000000
1.993580
3.619681
5.343767
7.088042
8.852556
10.604937
12.298261
13.870132
15.248300
16.358115
17.131481
17.515673
17.480394
17.021717
16.162160
14.946897
13.436938
11.700654
9.805076
7.809676
5.756339
3.698840
1.520825
-0.000549
-5.000000
-5.000000
-5.000000
0.000000
0.000000
0.000000
0.000000
1.832280
3.321562
4.892560
6.471371
8.057388
9.621944
11.124732
12.512650
13.724441
14.696870
15.372199
15.705588
15.671047
15.264778
14.505258
13.430102
12.090377
10.543575
8.846394
7.049861
5.189878
3.318952
1.313022
-0.000744
-5.000000
-5.000000
-5.000000
0.000000
0.000000
0.000000
0.000000
1.668357
3.018957
4.435312
5.847648
7.254739
8.631610
9.944485
11.149411
12.195948
13.032079
13.610250
13.893378
13.859716
13.505598
12.845548
11.909758
10.739527
9.381647
7.882633
6.285161
4.619176
2.935891
1.103350
-0.001445
-5.000000
-5.000000
-5.000000
0.000000
0.000000
0.000000
0.000000
1.505636
2.719091
3.983297
5.232819
6.465887
7.661090
8.790853
9.819878
10.707936
11.413602
11.898927
12.134152
12.101546
11.797588
11.233090
10.431265
9.424204
8.248597
6.941308
5.537059
4.060039
2.560142
0.897485
-0.002735
-5.000000
-5.000000
-5.000000
0.000000
0.000000
0.000000
0.000000
1.346800
2.427095
3.544629
4.638537
5.706612
6.730779
7.689136
8.554252
9.295159
9.880021
10.279594
10.470762
10.439443
10.182279
9.706755
9.029794
8.175170
7.170414
6.043593
4.822099
3.524693
2.199883
0.699938
-0.003144
-5.000000
-5.000000
-5.000000
0.000000
0.000000
0.000000
0.000000
1.193158
2.145556
3.123572
4.071182
4.985874
5.852616
6.654508
7.370989
7.979147
8.455479
8.778306
8.930293
8.900560
8.685930
8.291048
7.727425
7.011647
6.163283
5.202689
4.150706
3.021037
1.860613
0.513834
-0.004722
-5.000000
-5.000000
-5.000000
0.000000
0.000000
0.000000
0.000000
1.044655
1.874520
2.720506
3.531766
4.305633
5.029793
5.691593
6.276234
6.767513
7.148863
7.404899
7.523118
7.495344
7.318607
6.995269
6.532413
5.940708
5.233119
4.423514
3.527074
2.552778
1.545474
0.341455
-0.004888
-5.000000
-5.000000
-5.000000
0.000000
0.000000
0.000000
0.000000
0.900107
1.611925
2.332554
3.016745
3.661829
4.257885
4.795740
5.265215
5.655448
5.955374
6.154620
6.244543
6.219172
6.075787
5.815039
5.440610
4.958569
4.376692
3.703670
2.949985
2.120443
1.256977
0.185886
-0.005663
-5.000000
-5.000000
-5.000000
0.000000
0.000000
0.000000
0.000000
0.757656
1.354407
1.954769
2.519583
3.046327
3.527172
3.955695
4.325253
4.629018
4.860070
5.011820
5.078581
5.056116
4.942007
4.735757
4.438643
4.053416
3.584043
3.035357
2.414118
1.722325
0.997590
0.052898
-0.006966
-5.000000
-5.000000
-5.000000
0.000000
0.000000
0.000000
0.000000
0.615255
1.098188
1.581446
2.032499
2.449112
2.825290
3.156708
3.439289
3.669069
3.842063
3.954381
4.002481
3.983457
3.895252
3.736739
3.507698
3.208737
2.841283
2.407522
1.911341
1.353683
0.763441
0.009897
-0.007482
-5.000000
-5.000000
-5.000000
0.000000
0.000000
0.000000
0.000000
0.471461
0.840525
1.208251
1.549268
1.861756
2.141341
2.385250
2.591162
2.756997
2.880690
2.960141
2.993288
2.978224
2.913310
2.797241
2.629080
2.408293
2.134851
1.809297
1.433094
1.007346
0.535600
0.009569
-0.288346
-5.000000
-5.000000
-5.000000
0.000000
0.000000
0.000000
0.000000
0.324170
0.577398
0.828945
1.061114
1.272604
1.460518
1.623223
1.759518
1.868451
1.949091
2.000433
2.021379
2.010775
1.967462
1.890322
1.778325
1.630600
1.446539
1.225833
0.968101
0.673135
0.310780
0.009065
-1.980283
-5.000000
-5.000000
-5.000000
0.000000
0.000000
0.000000
0.000000
0.180435
0.321431
0.461052
0.589544
0.706131
0.809247
0.898077
0.972098
1.030948
1.074285
1.101705
1.112711
1.106717
1.083063
1.041049
0.979961
0.899130
0.797988
0.676044
0.532221
0.364400
0.130329
0.008427
-1.993521
-5.000000
-5.000000
-5.000000
0.000000
0.000000
0.000000
0.000000
0.000000
0.000000
0.000000
0.000000
0.000000
0.000000
0.000000
0.000000
0.000000
0.000000
0.000000
0.000000
0.000000
0.000000
0.000000
0.000000
0.000000
0.000000
0.000000
0.000000
0.000000
0.000000
0.000000
0.000000
-5.000000
-5.000000
-5.000000
0.000000
0.000000
0.000000
0.000000
0.000000
0.000000
0.000000
0.000000
0.000000
0.000000
0.000000
0.000000
0.000000
0.000000
0.000000
0.000000
0.000000
0.000000
0.000000
0.000000
0.000000
0.000000
0.000000
0.000000
0.000000
0.000000
0.000000
0.000000
-5.000000
-5.000000
-5.000000
0.000000
0.000000
0.000000
0.000000
0.000000
0.000000
0.000000
0.000000
0.000000
0.000000
0.000000
0.000000
0.000000
0.000000
0.000000
0.000000
0.000000
0.000000
0.000000
0.000000
0.000000
0.000000
0.000000
0.000000
0.000000
0.000000
0.000000
0.000000
-5.000000
-5.000000
-5.000000
0.000000
0.000000
0.000000
0.000000
0.000000
0.000000
0.000000
0.000000
0.000000
0.000000
0.000000
0.000000
0.000000
0.000000
0.000000
0.000000
0.000000
0.000000
0.000000
0.000000
0.000000
0.000000
0.000000
0.000000
0.000000
0.000000
0.000000
0.000000
-5.000000
-5.000000
-5.000000
</DataArray>
</PointData>
<Cells>
<DataArray type='Int32' Name='connectivity' format='ascii'>
0
1
2
3
4
5
6
7
8
9
10
11
12
13
14
15
16
17
18
19
20
21
22
23
24
25
26
27
28
29
30
31
32
33
34
35
36
37
38
39
40
41
42
43
44
45
46
47
48
49
50
51
52
53
54
55
56
57
58
59
60
61
62
63
64
65
66
67
68
69
70
71
72
73
74
75
76
77
78
79
80
81
82
83
84
85
86
87
88
89
90
91
92
93
94
95
96
97
98
99
100
101
102
103
104
105
106
107
108
109
110
111
112
113
114
115
116
117
118
119
120
121
122
123
124
125
126
127
128
129
130
131
132
133
134
135
136
137
138
139
140
141
142
143
144
145
146
147
148
149
150
151
152
153
154
155
156
157
158
159
160
161
162
163
164
165
166
167
168
169
170
171
172
173
174
175
176
177
178
179
180
181
182
183
184
185
186
187
188
189
190
191
192
193
194
195
196
197
198
199
200
201
202
203
204
205
206
207
208
209
210
211
212
213
214
215
216
217
218
219
220
221
222
223
224
225
226
227
228
229
230
231
232
233
234
235
236
237
238
239
240
241
242
243
244
245
246
247
248
249
250
251
252
253
254
255
256
257
258
259
260
261
262
263
264
265
266
267
268
269
270
271
272
273
274
275
276
277
278
279
280
281
282
283
284
285
286
287
288
289
290
291
292
293
294
295
296
297
298
299
300
301
302
303
304
305
306
307
308
309
310
311
312
313
314
315
316
317
318
319
320
321
322
323
324
325
326
327
328
329
330
331
332
333
334
335
336
337
338
339
340
341
342
343
344
345
346
347
348
349
350
351
352
353
354
355
356
357
358
359
360
361
362
363
364
365
366
367
368
369
370
371
372
373
374
375
376
377
378
379
380
381
382
383
384
385
386
387
388
389
390
391
392
393
394
395
396
397
398
399
400
401
402
403
404
405
406
407
408
409
410
411
412
413
414
415
416
417
418
419
420
421
422
423
424
425
426
427
428
429
430
431
432
433
434
435
436
437
438
439
440
441
442
443
444
445
446
447
448
449
450
451
452
453
454
455
456
457
458
459
460
461
462
463
464
465
466
467
468
469
470
471
472
473
474
475
476
477
478
479
480
481
482
483
484
485
486
487
488
489
490
491
492
493
494
495
496
497
498
499
500
501
502
503
504
505
506
507
508
509
510
511
512
513
514
515
516
517
518
519
520
521
522
523
524
525
526
527
528
529
530
531
532
533
534
535
536
537
538
539
540
541
542
543
544
545
546
547
548
549
550
551
552
553
554
555
556
557
558
559
560
561
562
563
564
565
566
567
568
569
570
571
572
573
574
575
576
577
578
579
580
581
582
583
584
585
586
587
588
589
590
591
592
593
594
595
596
597
598
599
600
601
602
603
604
605
606
607
608
609
610
611
612
613
614
615
616
617
618
619
620
621
622
623
624
625
626
627
628
629
630
631
632
633
634
635
636
637
638
639
640
641
642
643
644
645
646
647
648
649
650
651
652
653
654
655
656
657
658
659
660
661
662
663
664
665
666
667
668
669
670
671
672
673
674
675
676
677
678
679
680
681
682
683
684
685
686
687
688
689
690
691
692
693
694
695
696
697
698
699
700
701
702
703
704
705
706
707
708
709
710
711
712
713
714
715
716
717
718
719
720
721
722
723
724
725
726
727
728
729
730
731
732
733
734
735
736
737
738
739
740
741
742
743