<?xml version='1.0' encoding='UTF-8'?>
<VTKFile xmlns='VTK' byte_order='LittleEndian' version='0.1' type='UnstructuredGrid'>
<UnstructuredGrid>
<Piece NumberOfCells='1488' NumberOfPoints='1488'>
<Points>
<DataArray NumberOfComponents='3' type='Float32' Name='Position' format='ascii'>
-0.075000 -0.075000 0.000000
-0.075000 -0.050000 0.000000
-0.075000 -0.025000 0.000000
-0.075000 0.000000 0.000000
-0.075000 0.025000 0.000000
-0.075000 0.050000 0.000000
-0.075000 0.075000 0.000000
-0.075000 0.100000 0.000000
-0.075000 0.125000 0.000000
-0.075000 0.150000 0.000000
-0.075000 0.175000 0.000000
-0.075000 0.200000 0.000000
-0.075000 0.225000 0.000000
-0.075000 0.250000 0.000000
-0.075000 0.275000 0.000000
-0.075000 0.300000 0.000000
-0.075000 0.325000 0.000000
-0.075000 0.350000 0.000000
-0.075000 0.375000 0.000000
-0.075000 0.400000 0.000000
-0.075000 0.425000 0.000000
-0.075000 0.450000 0.000000
-0.075000 0.475000 0.000000
-0.075000 0.500000 0.000000
-0.075000 0.525000 0.000000
-0.075000 0.550000 0.000000
-0.075000 0.575000 0.000000
-0.075000 0.600000 0.000000
-0.075000 0.625000 0.000000
-0.075000 0.650000 0.000000
-0.075000 0.675000 0.000000
-0.050000 -0.075000 0.000000
-0.050000 -0.050000 0.000000
-0.050000 -0.025000 0.000000
-0.050000 0.000000 0.000000
-0.050000 0.025000 0.000000
-0.050000 0.050000 0.000000
-0.050000 0.075000 0.000000
-0.050000 0.100000 0.000000
-0.050000 0.125000 0.000000
-0.050000 0.150000 0.000000
-0.050000 0.175000 0.000000
-0.050000 0.200000 0.000000
-0.050000 0.225000 0.000000
-0.050000 0.250000 0.000000
-0.050000 0.275000 0.000000
-0.050000 0.300000 0.000000
-0.050000 0.325000 0.000000
-0.050000 0.350000 0.000000
-0.050000 0.375000 0.000000
-0.050000 0.400000 0.000000
-0.050000 0.425000 0.000000
-0.050000 0.450000 0.000000
-0.050000 0.475000 0.000000
-0.050000 0.500000 0.000000
-0.050000 0.525000 0.000000
-0.050000 0.550000 0.000000
-0.050000 0.575000 0.000000
-0.050000 0.600000 0.000000
-0.050000 0.625000 0.000000
-0.050000 0.650000 0.000000
-0.050000 0.675000 0.000000
-0.025000 -0.075000 0.000000
-0.025000 -0.050000 0.000000
-0.025000 -0.025000 0.000000
-0.025000 0.000000 0.000000
-0.025000 0.025000 0.000000
-0.025000 0.050000 0.000000
-0.025000 0.075000 0.000000
-0.025000 0.100000 0.000000
-0.025000 0.125000 0.000000
-0.025000 0.150000 0.000000
-0.025000 0.175000 0.000000
-0.025000 0.200000 0.000000
-0.025000 0.225000 0.000000
-0.025000 0.250000 0.000000
-0.025000 0.275000 0.000000
-0.025000 0.300000 0.000000
-0.025000 0.325000 0.000000
-0.025000 0.350000 0.000000
-0.025000 0.375000 0.000000
-0.025000 0.400000 0.000000
-0.025000 0.425000 0.000000
-0.025000 0.450000 0.000000
-0.025000 0.475000 0.000000
-0.025000 0.500000 0.000000
-0.025000 0.525000 0.000000
-0.025000 0.550000 0.000000
-0.025000 0.575000 0.000000
-0.025000 0.600000 0.000000
-0.025000 0.625000 0.000000
-0.025000 0.650000 0.000000
-0.025000 0.675000 0.000000
0.000000 -0.075000 0.000000
0.000000 -0.050000 0.000000
0.000000 -0.025000 0.000000
0.000000 0.000000 0.000000
0.000000 0.025000 0.000000
0.000000 0.050000 0.000000
0.000000 0.075000 0.000000
0.000000 0.100000 0.000000
0.000000 0.125000 0.000000
0.000000 0.150000 0.000000
0.000000 0.175000 0.000000
0.000000 0.200000 0.000000
0.000000 0.225000 0.000000
0.000000 0.250000 0.000000
0.000000 0.275000 0.000000
0.000000 0.300000 0.000000
0.000000 0.325000 0.000000
0.000000 0.350000 0.000000
0.000000 0.375000 0.000000
0.000000 0.400000 0.000000
0.000000 0.425000 0.000000
0.000000 0.450000 0.000000
0.000000 0.475000 0.000000
0.000000 0.500000 0.000000
0.000000 0.525000 0.000000
0.000000 0.550000 0.000000
0.000000 0.575000 0.000000
0.000000 0.600000 0.000000
0.000000 0.625000 0.000000
0.000000 0.650000 0.000000
0.000000 0.675000 0.000000
0.025000 -0.075000 0.000000
0.025000 -0.050000 0.000000
0.025000 -0.025000 0.000000
0.025000 0.000000 0.000000
0.025000 0.025000 0.000000
0.025000 0.050000 0.000000
0.025000 0.075000 0.000000
0.025000 0.100000 0.000000
0.025000 0.125000 0.000000
0.025000 0.150000 0.000000
0.025000 0.175000 0.000000
0.025000 0.200000 0.000000
0.025000 0.225000 0.000000
0.025000 0.250000 0.000000
0.025000 0.275000 0.000000
0.025000 0.300000 0.000000
0.025000 0.325000 0.000000
0.025000 0.350000 0.000000
0.025000 0.375000 0.000000
0.025000 0.400000 0.000000
0.025000 0.425000 0.000000
0.025000 0.450000 0.000000
0.025000 0.475000 0.000000
0.025000 0.500000 0.000000
0.025000 0.525000 0.000000
0.025000 0.550000 0.000000
0.025000 0.575000 0.000000
0.025000 0.600000 0.000000
0.025000 0.625000 0.000000
0.025000 0.650000 0.000000
0.025000 0.675000 0.000000
0.050000 -0.075000 0.000000
0.050000 -0.050000 0.000000
0.050000 -0.025000 0.000000
0.050000 0.000000 0.000000
0.050000 0.025000 0.000000
0.050000 0.050000 0.000000
0.050000 0.075000 0.000000
0.050000 0.100000 0.000000
0.050000 0.125000 0.000000
0.050000 0.150000 0.000000
0.050000 0.175000 0.000000
0.050000 0.200000 0.000000
0.050000 0.225000 0.000000
0.050000 0.250000 0.000000
0.050000 0.275000 0.000000
0.050000 0.300000 0.000000
0.050000 0.325000 0.000000
0.050000 0.350000 0.000000
0.050000 0.375000 0.000000
0.050000 0.400000 0.000000
0.050000 0.425000 0.000000
0.050000 0.450000 0.000000
0.050000 0.475000 0.000000
0.050000 0.500000 0.000000
0.050000 0.525000 0.000000
0.050000 0.550000 0.000000
0.050000 0.575000 0.000000
0.050000 0.600000 0.000000
0.050000 0.625000 0.000000
0.050000 0.650000 0.000000
0.050000 0.675000 0.000000
0.075000 -0.075000 0.000000
0.075000 -0.050000 0.000000
0.075000 -0.025000 0.000000
0.075000 0.000000 0.000000
0.075000 0.025000 0.000000
0.075000 0.050000 0.000000
0.075000 0.075000 0.000000
0.075000 0.100000 0.000000
0.075000 0.125000 0.000000
0.075000 0.150000 0.000000
0.075000 0.175000 0.000000
0.075000 0.200000 0.000000
0.075000 0.225000 0.000000
0.075000 0.250000 0.000000
0.075000 0.275000 0.000000
0.075000 0.300000 0.000000
0.075000 0.325000 0.000000
0.075000 0.350000 0.000000
0.075000 0.375000 0.000000
0.075000 0.400000 0.000000
0.075000 0.425000 0.000000
0.075000 0.450000 0.000000
0.075000 0.475000 0.000000
0.075000 0.500000 0.000000
0.075000 0.525000 0.000000
0.075000 0.550000 0.000000
0.075000 0.575000 0.000000
0.075000 0.600000 0.000000
0.075000 0.625000 0.000000
0.075000 0.650000 0.000000
0.075000 0.675000 0.000000
0.100000 -0.075000 0.000000
0.100000 -0.050000 0.000000
0.100000 -0.025000 0.000000
0.100000 0.000000 0.000000
0.100000 0.025000 0.000000
0.100000 0.050000 0.000000
0.100000 0.075000 0.000000
0.100000 0.100000 0.000000
0.100000 0.125000 0.000000
0.100000 0.150000 0.000000
0.100000 0.175000 0.000000
0.100000 0.200000 0.000000
0.100000 0.225000 0.000000
0.100000 0.250000 0.000000
0.100000 0.275000 0.000000
0.100000 0.300000 0.000000
0.100000 0.325000 0.000000
0.100000 0.350000 0.000000
0.100000 0.375000 0.000000
0.100000 0.400000 0.000000
0.100000 0.425000 0.000000
0.100000 0.450000 0.000000
0.100000 0.475000 0.000000
0.100000 0.500000 0.000000
0.100000 0.525000 0.000000
0.100000 0.550000 0.000000
0.100000 0.575000 0.000000
0.100000 0.600000 0.000000
0.100000 0.625000 0.000000
0.100000 0.650000 0.000000
0.100000 0.675000 0.000000
0.125000 -0.075000 0.000000
0.125000 -0.050000 0.000000
0.125000 -0.025000 0.000000
0.125000 0.000000 0.000000
0.125000 0.025000 0.000000
0.125000 0.050000 0.000000
0.125000 0.075000 0.000000
0.125000 0.100000 0.000000
0.125000 0.125000 0.000000
0.125000 0.150000 0.000000
0.125000 0.175000 0.000000
0.125000 0.200000 0.000000
0.125000 0.225000 0.000000
0.125000 0.250000 0.000000
0.125000 0.275000 0.000000
0.125000 0.300000 0.000000
0.125000 0.325000 0.000000
0.125000 0.350000 0.000000
0.125000 0.375000 0.000000
0.125000 0.400000 0.000000
0.125000 0.425000 0.000000
0.125000 0.450000 0.000000
0.125000 0.475000 0.000000
0.125000 0.500000 0.000000
0.125000 0.525000 0.000000
0.125000 0.550000 0.000000
0.125000 0.575000 0.000000
0.125000 0.600000 0.000000
0.125000 0.625000 0.000000
0.125000 0.650000 0.000000
0.125000 0.675000 0.000000
0.150000 -0.075000 0.000000
0.150000 -0.050000 0.000000
0.150000 -0.025000 0.000000
0.150000 0.000000 0.000000
0.150000 0.025000 0.000000
0.150000 0.050000 0.000000
0.150000 0.075000 0.000000
0.150000 0.100000 0.000000
0.150000 0.125000 0.000000
0.150000 0.150000 0.000000
0.150000 0.175000 0.000000
0.150000 0.200000 0.000000
0.150000 0.225000 0.000000
0.150000 0.250000 0.000000
0.150000 0.275000 0.000000
0.150000 0.300000 0.000000
0.150000 0.325000 0.000000
0.150000 0.350000 0.000000
0.150000 0.375000 0.000000
0.150000 0.400000 0.000000
0.150000 0.425000 0.000000
0.150000 0.450000 0.000000
0.150000 0.475000 0.000000
0.150000 0.500000 0.000000
0.150000 0.525000 0.000000
0.150000 0.550000 0.000000
0.150000 0.575000 0.000000
0.150000 0.600000 0.000000
0.150000 0.625000 0.000000
0.150000 0.650000 0.000000
0.150000 0.675000 0.000000
0.175000 -0.075000 0.000000
0.175000 -0.050000 0.000000
0.175000 -0.025000 0.000000
0.175000 0.000000 0.000000
0.175000 0.025000 0.000000
0.175000 0.050000 0.000000
0.175000 0.075000 0.000000
0.175000 0.100000 0.000000
0.175000 0.125000 0.000000
0.175000 0.150000 0.000000
0.175000 0.175000 0.000000
0.175000 0.200000 0.000000
0.175000 0.225000 0.000000
0.175000 0.250000 0.000000
0.175000 0.275000 0.000000
0.175000 0.300000 0.000000
0.175000 0.325000 0.000000
0.175000 0.350000 0.000000
0.175000 0.375000 0.000000
0.175000 0.400000 0.000000
0.175000 0.425000 0.000000
0.175000 0.450000 0.000000
0.175000 0.475000 0.000000
0.175000 0.500000 0.000000
0.175000 0.525000 0.000000
0.175000 0.550000 0.000000
0.175000 0.575000 0.000000
0.175000 0.600000 0.000000
0.175000 0.625000 0.000000
0.175000 0.650000 0.000000
0.175000 0.675000 0.000000
0.200000 -0.075000 0.000000
0.200000 -0.050000 0.000000
0.200000 -0.025000 0.000000
0.200000 0.000000 0.000000
0.200000 0.025000 0.000000
0.200000 0.050000 0.000000
0.200000 0.075000 0.000000
0.200000 0.100000 0.000000
0.200000 0.125000 0.000000
0.200000 0.150000 0.000000
0.200000 0.175000 0.000000
0.200000 0.200000 0.000000
0.200000 0.225000 0.000000
0.200000 0.250000 0.000000
[...]
<PointData>
<DataArray NumberOfComponents='1' type='Int32' Name='ParticleType' format='ascii'>
4
4
4
4
4
4
4
4
4
4
4
4
4
4
4
4
4
4
4
4
4
4
4
4
4
4
4
4
2
2
2
4
4
4
4
4
4
4
4
4
4
4
4
4
4
4
4
4
4
4
4
4
4
4
4
4
4
4
4
2
2
2
4
4
3
3
3
3
3
3
3
3
3
3
3
3
3
3
3
3
3
3
3
3
3
3
3
3
3
3
2
2
2
4
4
3
3
3
3
3
3
3
3
3
3
3
3
3
3
3
3
3
3
3
3
3
3
3
3
3
3
2
2
2
4
4
3
3
0
0
0
0
0
0
0
0
0
0
0
0
0
0
0
0
0
0
0
0
0
1
1
2
2
2
2
4
4
3
3
0
0
0
0
0
0
0
0
0
0
0
0
0
0
0
0
0
0
0
0
0
1
1
2
2
2
2
4
4
3
3
0
0
0
0
0
0
0
0
0
0
0
0
0
0
0
0
0
0
0
0
0
0
1
2
2
2
2
4
4
3
3
0
0
0
0
0
0
0
0
0
0
0
0
0
0
0
0
0
0
0
0
0
0
1
2
2
2
2
4
4
3
3
0
0
0
0
0
0
0
0
0
0
0
0
0
0
0
0
0
0
0
0
0
0
1
2
2
2
2
4
4
3
3
0
0
0
0
0
0
0
0
0
0
0
0
0
0
0
0
0
0
0
0
0
0
1
2
2
2
2
4
4
3
3
0
0
0
0
0
0
0
0
0
0
0
0
0
0
0
0
0
0
0
0
0
0
1
2
2
2
2
4
4
3
3
0
0
0
0
0
0
0
0
0
0
0
0
0
0
0
0
0
0
0
0
0
0
1
2
2
2
2
4
4
3
3
0
0
0
0
0
0
0
0
0
0
0
0
0
0
0
0
0
0
0
0
0
0
1
2
2
2
2
4
4
3
3
0
0
0
0
0
0
0
0
0
0
0
0
0
0
0
0
0
0
0
0
0
0
1
2
2
2
2
4
4
3
3
0
0
0
0
0
0
0
0
0
0
0
0
0
0
0
0
0
0
0
0
0
0
1
2
2
2
2
4
4
3
3
0
0
0
0
0
0
0
0
0
0
0
0
0
0
0
0
0
0
0
0
0
0
1
2
2
2
2
4
4
3
3
0
0
0
0
0
0
0
0
0
0
0
0
0
0
0
0
0
0
0
0
0
0
1
2
2
2
2
4
4
3
3
0
0
0
0
0
0
0
0
0
0
0
0
0
0
0
0
0
0
0
0
0
0
1
2
2
2
2
4
4
3
3
0
0
0
0
0
0
0
0
0
0
0
0
0
0
0
0
0
0
0
0
0
0
1
2
2
2
2
4
4
3
3
0
0
0
0
0
0
0
0
0
0
0
0
0
0
0
0
0
0
0
0
0
0
1
2
2
2
2
4
4
3
3
0
0
0
0
0
0
0
0
0
0
0
0
0
0
0
0
0
0
0
0
0
0
1
2
2
2
2
4
4
3
3
0
0
0
0
0
0
0
0
0
0
0
0
0
0
0
0
0
0
0
0
0
0
1
2
2
2
2
4
4
3
3
0
0
0
0
0
0
0
0
0
0
0
0
0
0
0
0
0
0
0
0
0
0
1
2
2
2
2
4
4
3
3
0
0
0
0
0
0
0
0
0
0
0
0
0
0
0
0
0
0
0
0
0
0
0
2
2
2
2
4
4
3
3
0
0
0
0
0
0
0
0
0
0
0
0
0
0
0
0
0
0
0
0
0
0
0
2
2
2
2
4
4
3
3
0
0
0
0
0
0
0
0
0
0
0
0
0
0
0
0
0
0
0
0
0
0
1
2
2
2
2
4
4
3
3
0
0
0
0
0
0
0
0
0
0
0
0
0
0
0
0
0
0
0
0
0
0
1
2
2
2
2
4
4
3
3
0
0
0
0
0
0
0
0
0
0
0
0
0
0
0
0
0
0
0
0
0
0
1
2
2
2
2
4
4
3
3
0
0
0
0
0
0
0
0
0
0
0
0
0
0
0
0
0
0
0
0
0
0
1
2
2
2
2
4
4
3
3
0
0
0
0
0
0
0
0
0
0
0
0
0
0
0
0
0
0
0
0
0
0
1
2
2
2
2
4
4
3
3
0
0
0
0
0
0
0
0
0
0
0
0
0
0
0
0
0
0
0
0
0
0
1
2
2
2
2
4
4
3
3
0
0
0
0
0
0
0
0
0
0
0
0
0
0
0
0
0
0
0
0
0
0
1
2
2
2
2
4
4
3
3
0
0
0
0
0
0
0
0
0
0
0
0
0
0
0
0
0
0
0
0
0
0
1
2
2
2
2
4
4
3
3
0
0
0
0
0
0
0
0
0
0
0
0
0
0
0
0
0
0
0
0
0
0
1
2
2
2
2
4
4
3
3
0
0
0
0
0
0
0
0
0
0
0
0
0
0
0
0
0
0
0
0
0
0
1
2
2
2
2
4
4
3
3
0
0
0
0
0
0
0
0
0
0
0
0
0
0
0
0
0
0
0
0
0
0
1
2
2
2
2
4
4
3
3
0
0
0
0
0
0
0
0
0
0
0
0
0
0
0
0
0
0
0
0
0
0
1
2
2
2
2
4
4
3
3
0
0
0
0
0
0
0
0
0
0
0
0
0
0
0
0
0
0
0
0
0
0
1
2
2
2
2
4
4
3
3
0
0
0
0
0
0
0
0
0
0
0
0
0
0
0
0
0
0
0
0
0
0
1
2
2
2
2
4
4
3
3
0
0
0
0
0
0
0
0
0
0
0
0
0
0
0
0
0
0
0
0
0
0
1
2
2
2
2
4
4
3
3
0
0
0
0
0
0
0
0
0
0
0
0
0
0
0
0
0
0
0
0
0
0
1
2
2
2
2
4
4
3
3
0
0
0
0
0
0
0
0
0
0
0
0
0
0
0
0
0
0
0
0
0
0
1
2
2
2
2
4
4
3
3
0
0
0
0
0
0
0
0
0
0
0
0
0
0
0
0
0
0
0
0
0
1
1
2
2
2
2
4
4
3
3
0
0
0
0
0
0
0
0
0
0
0
0
0
0
0
0
0
0
0
0
0
1
1
2
2
2
2
4
4
3
3
3
3
3
3
3
3
3
3
3
3
3
3
3
3
3
3
3
3
3
3
3
3
3
3
2
2
2
4
4
3
3
3
3
3
3
3
3
3
3
3
3
3
3
3
3
3
3
3
3
3
3
3
3
3
3
2
2
2
4
4
4
4
4
4
4
4
4
4
4
4
4
4
4
4
4
4
4
4
4
4
4
4
4
4
4
4
2
2
2
4
4
4
4
4
4
4
4
4
4
4
4
4
4
4
4
4
4
4
4
4
4
4
4
4
4
4
4
2
2
2
</DataArray>
<DataArray NumberOfComponents='1' type='Float32' Name='Temperature' format='ascii'>
0.000000
0.000000
0.000000
0.000000
0.000000
0.000000
0.000000
0.000000
0.000000
0.000000
0.000000
0.000000
0.000000
0.000000
0.000000
0.000000
0.000000
0.000000
0.000000
0.000000
0.000000
0.000000
0.000000
0.000000
0.000000
0.000000
0.000000
0.000000
-5.000000
-5.000000
-5.000000
0.000000
0.000000
0.000000
0.000000
0.000000
0.000000
0.000000
0.000000
0.000000
0.000000
0.000000
0.000000
0.000000
0.000000
0.000000
0.000000
0.000000
0.000000
0.000000
0.000000
0.000000
0.000000
0.000000
0.000000
0.000000
0.000000
0.000000
0.000000
-5.000000
-5.000000
-5.000000
0.000000
0.000000
0.000000
0.000000
0.000000
0.000000
0.000000
0.000000
0.000000
0.000000
0.000000
0.000000
0.000000
0.000000
0.000000
0.000000
0.000000
0.000000
0.000000
0.000000
0.000000
0.000000
0.000000
0.000000
0.000000
0.000000
0.000000
0.000000
-5.000000
-5.000000
-5.000000
0.000000
0.000000
0.000000
0.000000
0.000000
0.000000
0.000000
0.000000
0.000000
0.000000
0.000000
0.000000
0.000000
0.000000
0.000000
0.000000
0.000000
0.000000
0.000000
0.000000
0.000000
0.000000
0.000000
0.000000
0.000000
0.000000
0.000000
0.000000
-5.000000
-5.000000
-5.000000
0.000000
0.000000
0.000000
0.000000
0.143651
0.257255
0.371790
0.479855
0.580650
0.672276
0.753078
0.821451
0.875914
0.915138
0.937988
0.943555
0.931183
0.900492
0.851386
0.784046
0.698905
0.596540
0.477783
0.342083
0.195116
0.009765
-0.006054
-2.131621
-5.000000
-5.000000
-5.000000
0.000000
0.000000
0.000000
0.000000
0.259976
0.465257
0.672456
0.867939
1.050304
1.216110
1.362363
1.486159
1.584815
1.655927
1.697441
1.707716
1.685575
1.630343
1.541873
1.420537
1.267201
1.083057
0.869815
0.626886
0.365556
0.009969
-0.008770
-2.375322
-5.000000
-5.000000
-5.000000
0.000000
0.000000
0.000000
0.000000
0.381888
0.683490
0.987911
1.275172
1.543217
1.786990
2.002092
2.184252
2.329521
2.434366
2.495768
2.511320
2.479307
2.398768
2.269536
2.092245
1.868316
1.599792
1.289655
0.938243
0.562093
0.068638
-0.006661
-2.459668
-5.000000
-5.000000
-5.000000
0.000000
0.000000
0.000000
0.000000
0.504065
0.902185
1.304088
1.683420
2.037480
2.359597
2.643962
2.884927
3.077272
3.216323
3.298093
3.319414
3.278043
3.172753
3.003393
2.770922
2.477428
2.125995
1.721183
1.265375
0.779202
0.180017
-0.003933
-2.469588
-5.000000
-5.000000
-5.000000
0.000000
0.000000
0.000000
0.000000
0.627542
1.123239
1.623733
2.096245
2.537431
2.938988
3.293682
3.594466
3.834826
4.008929
4.111810
4.139529
4.089322
3.959711
3.750588
3.463281
3.100606
2.666804
2.168123
1.609488
1.014337
0.309497
-0.001761
-2.460383
-5.000000
-5.000000
-5.000000
0.000000
0.000000
0.000000
0.000000
0.752041
1.346152
1.946129
2.512736
3.041983
3.523932
3.949900
4.311429
4.600689
4.810674
4.935422
4.970224
4.911793
4.758408
4.510020
4.168336
3.736911
3.221146
2.628913
1.967564
1.262458
0.449405
0.000212
-2.445288
-5.000000
-5.000000
-5.000000
0.000000
0.000000
0.000000
0.000000
0.877245
1.570356
2.270461
2.931842
3.549875
4.112974
4.611003
5.034071
5.373019
5.619652
5.767004
5.809588
5.743601
5.567079
5.280032
4.884530
4.384828
3.787401
3.101589
2.336903
1.520054
0.595857
0.002751
-2.428164
-5.000000
-5.000000
-5.000000
0.000000
0.000000
0.000000
0.000000
1.002549
1.794770
2.595164
3.351542
4.058657
4.703275
5.273803
5.758909
6.148096
6.431969
6.602557
6.653597
6.580768
6.381870
6.056958
5.608435
5.041177
4.362600
3.583306
2.714708
1.784531
0.746702
0.004375
-2.410261
-5.000000
-5.000000
-5.000000
0.000000
0.000000
0.000000
0.000000
1.127093
2.017850
2.918000
3.768941
4.564810
5.290744
5.933694
6.480893
6.920503
7.241934
7.436212
7.496306
7.417389
7.197031
6.835318
6.334943
5.701308
4.942610
4.070479
3.097969
2.053560
0.900425
0.005920
-2.392030
-5.000000
-5.000000
-5.000000
0.000000
0.000000
0.000000
0.000000
1.249756
2.237589
3.236059
4.180264
5.063746
5.870035
6.584649
7.193400
7.683124
8.042051
8.260220
8.329851
8.245632
8.004911
7.607806
7.057258
6.359093
5.522107
4.558699
3.483261
2.324759
1.055653
0.006903
-2.373706
-5.000000
-5.000000
-5.000000
0.000000
0.000000
0.000000
0.000000
1.369184
2.451554
3.545813
4.580936
5.549893
6.434654
7.219339
7.888370
8.427291
8.823178
9.065116
9.144609
9.055887
8.796106
8.365422
7.766992
7.006977
6.094583
5.042681
3.866626
2.595512
1.211001
0.008083
-2.355443
-5.000000
-5.000000
-5.000000
0.000000
0.000000
0.000000
0.000000
1.483818
2.656951
3.843208
4.965700
6.016851
6.977137
7.829334
8.556529
9.143020
9.574779
9.839981
9.929458
9.837030
9.559696
9.097674
8.454330
7.636084
6.652377
5.516225
4.243485
2.862873
1.364927
0.008675
-2.337435
-5.000000
-5.000000
-5.000000
0.000000
0.000000
0.000000
0.000000
1.591954
2.850720
4.123802
5.328789
6.457598
7.489294
8.405386
9.187697
9.819349
10.285276
10.572805
10.672153
10.576783
10.283589
9.792889
9.108273
8.236379
7.186736
5.972192
4.608568
3.123503
1.515781
0.009260
-2.319858
-5.000000
-5.000000
-5.000000
0.000000
0.000000
0.000000
0.000000
1.691798
3.029644
4.382929
5.664149
6.864757
7.962520
8.937772
9.771170
10.444751
10.942491
11.250945
11.359785
11.262176
10.954963
10.438615
9.716978
8.796908
7.687938
6.402485
4.955797
3.373560
1.661733
0.009577
-2.302916
-5.000000
-5.000000
-5.000000
0.000000
0.000000
0.000000
0.000000
1.781544
3.190482
4.615884
5.965676
7.230895
8.388141
9.416694
10.296162
11.007604
11.534141
11.861643
11.979310
11.880076
11.560785
11.022108
10.268191
9.306140
8.145475
6.798052
5.278118
3.608487
1.800728
0.009700
-2.286822
-5.000000
-5.000000
-5.000000
0.000000
0.000000
0.000000
0.000000
1.859451
3.330109
4.818132
6.227483
7.548841
8.757794
9.832705
10.752270
11.496700
12.048377
12.392585
12.518130
12.417769
12.088391
11.530898
10.749774
9.752418
8.548391
7.149004
5.567327
3.822659
1.930274
0.009813
-2.271822
-5.000000
-5.000000
-5.000000
0.000000
0.000000
0.000000
0.000000
1.923919
3.445655
4.985510
6.444169
7.812015
9.063800
10.177129
11.129942
11.901749
12.474321
12.832462
12.964660
12.863547
12.526079
11.953390
11.150307
10.124551
8.885801
7.444975
5.814096
4.009007
2.046870
0.009928
-2.258165
-5.000000
-5.000000
-5.000000
0.000000
0.000000
0.000000
0.000000
1.973566
3.534640
5.114418
6.611061
8.014728
9.299524
10.442471
11.420927
12.213861
12.802572
13.171498
13.308887
13.207279
12.863693
12.279470
11.459731
10.412504
9.147639
7.675868
6.008527
4.158897
2.144863
0.009976
-2.245990
-5.000000
-5.000000
-5.000000
0.000000
0.000000
0.000000
0.000000
2.007293
3.595092
5.201993
6.724446
8.152455
9.459687
10.622770
11.618661
12.425963
13.025656
13.401922
13.542845
13.440900
13.093147
12.501060
11.669970
10.608126
9.325548
7.832953
6.141412
4.262934
2.215831
0.009994
-2.235999
-5.000000
-5.000000
-5.000000
0.000000
0.000000
0.000000
0.000000
2.024335
3.625639
5.246246
6.781742
8.222053
9.540625
10.713884
11.718586
12.533148
13.138383
13.518340
13.661012
13.558826
13.208841
12.612578
11.775444
10.705787
9.413729
7.910063
6.205927
4.313151
2.250499
0.027077
-2.230192
-5.000000
-5.000000
-5.000000
0.000000
0.000000
0.000000
0.000000
2.024303
3.625581
5.246161
6.781630
8.221915
9.540462
10.713696
11.718373
12.532906
13.138103
13.518002
13.660576
13.558222
13.207957
12.611244
11.773429
10.702814
9.409527
7.904482
6.199108
4.305762
2.243760
0.022241
-2.231384
-5.000000
-5.000000
-5.000000
0.000000
0.000000
0.000000
0.000000
2.007197
3.594919
5.201740
6.724114
8.152046
9.459204
10.622214
11.618031
12.425250
13.024833
13.400931
13.541573
13.439148
13.090592
12.497222
11.664199
10.599651
9.313634
7.817229
6.122368
4.242648
2.197846
0.009986
-2.238751
-5.000000
-5.000000
-5.000000
0.000000
0.000000
0.000000
0.000000
1.973410
3.534360
5.114008
6.610524
8.014066
9.298741
10.441572
11.419909
12.212712
12.801254
13.169922
13.306881
13.204542
12.859741
12.273586
11.450962
10.399740
9.129878
7.652720
5.980965
4.130406
2.120974
0.009974
-2.249133
-5.000000
-5.000000
-5.000000
0.000000
0.000000
0.000000
0.000000
1.923710
3.445279
4.984959
6.443447
7.811127
9.062750
10.175924
11.128582
11.900222
12.472580
12.830402
12.962074
12.860070
12.521128
11.946118
11.139602
10.109172
8.864709
7.417965
5.782673
3.977717
2.022279
0.009911
-2.261119
-5.000000
-5.000000
-5.000000
0.000000
0.000000
0.000000
0.000000
1.859197
3.329651
4.817463
6.226606
7.547762
8.756519
9.831244
10.750627
11.494865
12.046304
12.390166
12.515145
12.413834
12.082896
11.522965
10.738286
9.736181
8.526517
7.121579
5.536266
3.792888
1.908225
0.009766
-2.274422
-5.000000
-5.000000
-5.000000
0.000000
0.000000
0.000000
0.000000
1.781254
3.189960
4.615120
5.964676
7.229665
8.386691
9.415036
10.294304
11.005542
11.531837
11.858997
11.976116
11.875967
11.555183
11.014194
10.256955
9.290560
8.124907
6.772854
5.250366
3.582785
1.782543
0.009685
-2.289008
-5.000000
-5.000000
-5.000000
0.000000
0.000000
0.000000
0.000000
1.691483
3.029077
4.382099
5.663063
6.863422
7.960948
8.935978
9.769169
10.442546
10.940057
11.248202
11.356555
11.258141
10.949620
10.431264
9.706780
8.783067
7.670057
6.381090
4.932855
3.352923
1.647589
0.009417
-2.304663
-5.000000
-5.000000
-5.000000
0.000000
0.000000
0.000000
0.000000
1.591625
2.850127
4.122936
5.327655
6.456204
7.487655
8.403520
9.185624
9.817083
10.282806
10.570077
10.669031
10.573014
10.278768
9.786461
9.099592
8.224873
7.172203
5.955197
4.590782
3.107882
1.505312
0.009130
-2.321184
-5.000000
-5.000000
-5.000000
0.000000
0.000000
0.000000
0.000000
1.483486
2.656352
3.842332
4.964553
6.015443
6.975483
7.827456
8.554451
9.140765
9.572354
9.837359
9.926548
9.833648
9.555545
9.092344
8.447355
7.627079
6.641264
5.503512
4.230463
2.851662
1.357543
0.008636
-2.338383
-5.000000
-5.000000
-5.000000
0.000000
0.000000
0.000000
0.000000
1.368858
2.450965
3.544952
4.579811
5.548512
6.433034
7.217502
7.886346
8.425111
8.820863
9.062665
9.141974
9.052952
8.792670
8.361204
7.761678
7.000321
6.086570
5.033707
3.857608
2.587880
1.206047
0.007988
-2.356080
-5.000000
-5.000000
-5.000000
0.000000
0.000000
0.000000
0.000000
1.249445
2.237026
3.235237
4.179189
5.062427
5.868488
6.582900
7.191479
7.681069
8.039894
8.257982
8.327520
8.243148
8.002155
7.604602
7.053406
6.354441
5.516661
4.552732
3.477372
2.319848
1.052514
0.007260
-2.374103
-5.000000
-5.000000
-5.000000
0.000000
0.000000
0.000000
0.000000
1.126802
2.017326
2.917234
3.767939
4.563582
5.289305
5.932068
6.479113
6.918610
7.239968
7.434208
7.494280
7.415325
7.194870
6.832962
6.332275
5.698236
4.939135
4.066766
3.094372
2.050600
0.898542
0.005727
-2.392283
-5.000000
-5.000000
-5.000000
0.000000
0.000000
0.000000
0.000000
1.002285
1.794293
2.594468
3.350632
4.057540
4.701967
5.272327
5.757298
6.146389
6.430212
6.600794
6.651861
6.579071
6.380198
6.055265
5.606658
5.039259
4.360534
3.581173
2.712692
1.782904
0.745690
0.004366
-2.410387
-5.000000
-5.000000
-5.000000
0.000000
0.000000
0.000000
0.000000
0.877011
1.569933
2.269844
2.931034
3.548884
4.111814
4.609695
5.032644
5.371514
5.618111
5.765476
5.808117
5.742214
5.565789
5.278825
4.883378
4.383695
3.786271
3.100487
2.335907
1.519294
0.595435
0.002754
-2.428169
-5.000000
-5.000000
-5.000000
0.000000
0.000000
0.000000
0.000000
0.751839
1.345786
1.945595
2.512037
3.041126
3.522928
3.948769
4.310196
4.599391
4.809351
4.934122
4.968990
4.910664
4.757408
4.509155
4.167594
3.736271
3.220587
2.628428
1.967173
1.262215
0.449360
0.000872
-2.445187
-5.000000
-5.000000
-5.000000
0.000000
0.000000
0.000000
0.000000
0.627372
1.122932
1.623284
2.095657
2.536710
2.938144
3.292730
3.593429
3.833734
4.007820
4.110724
4.138510
4.088407
3.958928
3.749954
3.462793
3.100251
2.666560
2.167968
1.609411
1.014349
0.309608
-0.001326
-2.460262
-5.000000
-5.000000
-5.000000
0.000000
0.000000
0.000000
0.000000
0.503928
0.901937
1.303724
1.682944
2.036895
2.358912
2.643189
2.884085
3.076386
3.215423
3.297214
3.318592
3.277312
3.172141
3.002918
2.770587
2.477223
2.125901
1.721174
1.265426
0.779297
0.180147
-0.003794
-2.469498
-5.000000
-5.000000
-5.000000
0.000000
0.000000
0.000000
0.000000
0.381782
0.683299
0.987632
1.274806
1.542768
1.786463
2.001497
2.183603
2.328837
2.433671
2.495088
2.510685
2.478744
2.398301
2.269179
2.092004
1.868186
1.599755
1.289688
0.938318
0.562188
0.068733
-0.006796
-2.459613
-5.000000
-5.000000
-5.000000
0.000000
0.000000
0.000000
0.000000
0.259902
0.465123
0.672261
0.867683
1.049990
1.215742
1.361947
1.485705
1.584336
1.655439
1.696964
1.707269
1.685177
1.630011
1.541619
1.420367
1.267110
1.083034
0.869842
0.626942
0.365619
0.009974
-0.008239
-2.375274
-5.000000
-5.000000
-5.000000
0.000000
0.000000
0.000000
0.000000
0.143609
0.257178
0.371678
0.479708
0.580470
0.672064
0.752839
0.821190
0.875638
0.914856
0.937711
0.943293
0.930948
0.900295
0.851233
0.783940
0.698845
0.596520
0.477793
0.342108
0.195145
0.009781
-0.006328
-2.131613
-5.000000
-5.000000
-5.000000
0.000000
0.000000
0.000000
0.000000
0.000000
0.000000
0.000000
0.000000
0.000000
0.000000
0.000000
0.000000
0.000000
0.000000
0.000000
0.000000
0.000000
0.000000
0.000000
0.000000
0.000000
0.000000
0.000000
0.000000
0.000000
0.000000
0.000000
0.000000
-5.000000
-5.000000
-5.000000
0.000000
0.000000
0.000000
0.000000
0.000000
0.000000
0.000000
0.000000
0.000000
0.000000
0.000000
0.000000
0.000000
0.000000
0.000000
0.000000
0.000000
0.000000
0.000000
0.000000
0.000000
0.000000
0.000000
0.000000
0.000000
0.000000
0.000000
0.000000
-5.000000
-5.000000
-5.000000
0.000000
0.000000
0.000000
0.000000
0.000000
0.000000
0.000000
0.000000
0.000000
0.000000
0.000000
0.000000
0.000000
0.000000
0.000000
0.000000
0.000000
0.000000
0.000000
0.000000
0.000000
0.000000
0.000000
0.000000
0.000000
0.000000
0.000000
0.000000
-5.000000
-5.000000
-5.000000
0.000000
0.000000
0.000000
0.000000
0.000000
0.000000
0.000000
0.000000
0.000000
0.000000
0.000000
0.000000
0.000000
0.000000
0.000000
0.000000
0.000000
0.000000
0.000000
0.000000
0.000000
0.000000
0.000000
0.000000
0.000000
0.000000
0.000000
0.000000
-5.000000
-5.000000
-5.000000
</DataArray>
</PointData>
<Cells>
<DataArray type='Int32' Name='connectivity' format='ascii'>
0
1
2
3
4
5
6
7
8
9
10
11
12
13
14
15
16
17
18
19
20
21
22
23
24
25
26
27
28
29
30
31
32
33
34
35
36
37
38
39
40
41
42
43
44
45
46
47
48
49
50
51
52
53
54
55
56
57
58
59
60
61
62
63
64
65
66
67
68
69
70
71
72
73
74
75
76
77
78
79
80
81
82
83
84
85
86
87
88
89
90
91
92
93
94
95
96
97
98
99
100
101
102
103
104
105
106
107
108
109
110
111
112
113
114
115
116
117
118
119
120
121
122
123
124
125
126
127
128
129
130
131
132
133
134
135
136
137
138
139
140
141
142
143
144
145
146
147
148
149
150
151
152
153
154
155
156
157
158
159
160
161
162
163
164
165
166
167
168
169
170
171
172
173
174
175
176
177
178
179
180
181
182
183
184
185
186
187
188
189
190
191
192
193
194
195
196
197
198
199
200
201
202
203
204
205
206
207
208
209
210
211
212
213
214
215
216
217
218
219
220
221
222
223
224
225
226
227
228
229
230
231
232
233
234
235
236
237
238
239
240
241
242
243
244
245
246
247
248
249
250
251
252
253
254
255
256
257
258
259
260
261
262
263
264
265
266
267
268
269
270
271
272
273
274
275
276
277
278
279
280
281
282
283
284
285
286
287
288
289
290
291
292
293
294
295
296
297
298
299
300
301
302
303
304
305
306
307
308
309
310
311
312
313
314
315
316
317
318
319
320
321
322
323
324
325
326
327
328
329
330
331
332
333
334
335
336
337
338
339
340
341
342
343
344
345
346
347
348
349
350
351
352
353
354
355
356
357
358
359
360
361
362
363
364
365
366
367
368
369
370
371
372
373
374
375
376
377
378
379
380
381
382
383
384
385
386
387
388
389
390
391
392
393
394
395
396
397
398
399
400
401
402
403
404
405
406
407
408
409
410
411
412
413
414
415
416
417
418
419
420
421
422
423
424
425
426
427
428
429
430
431
432
433
434
435
436
437
438
439
440
441
442
443
444
445
446
447
448
449
450
451
452
453
454
455
456
457
458
459
460
461
462
463
464
465
466
467
468
469
470
471
472
473
474
475
476
477
478
479
480
481
482
483
484
485
486
487
488
489
490
491
492
493
494
495
496
497
498
499
500
501
502
503
504
505
506
507
508
509
510
511
512
513
514
515
516
517
518
519
520
521
522
523
524
525
526
527
528
529
530
531
532
533
534
535
536
537
538
539
540
541
542
543
544
545
546
547
548
549
550
551
552
553
554
555
556
557
558
559
560
561
562
563
564
565
566
567
568
569
570
571
572
573
574
575
576
577
578
579
580
581
582
583
584
585
586
587
588
589
590
591
592
593
594
595
596
597
598
599
600
601
602
603
604
605
606
607
608
609
610
611
612
613
614
615
616
617
618
619
620
621
622
623
624
625
626
627
628
629
630
631
632
633
634
635
636
637
638
639
640
641
642
643
644
645
646
647
648
649
650
651
652
653
654
655
656
657
658
659
660
661
662
663
664
665
666
667
668
669
670
671
672
673
674
675
676
677
678
679
680
681
682
683
684
685
686
687
688
689
690
691
692
693
694
695
696
697
698
699
700
701
702
703
704
705
706
707
708
709
710
711
712
713
714
715
716
717
718
719
720
721
722
723
724
725
726
727
728
729
730
731
732
733
734
735
736
737
738
739
740
741
742
743
744
745
746
747
748
749
750
751
752
753
754
755
756
757
758
759
760
761
762
763
764
765
766
767
768
769
770
771
772
773
774
775
776
777