<?xml version='1.0' encoding='UTF-8'?>
<VTKFile xmlns='VTK' byte_order='LittleEndian' version='0.1' type='UnstructuredGrid'>
<UnstructuredGrid>
<Piece NumberOfCells='1488' NumberOfPoints='1488'>
<Points>
<DataArray NumberOfComponents='3' type='Float32' Name='Position' format='ascii'>
-0.075000 -0.075000 0.000000
-0.075000 -0.050000 0.000000
-0.075000 -0.025000 0.000000
-0.075000 0.000000 0.000000
-0.075000 0.025000 0.000000
-0.075000 0.050000 0.000000
-0.075000 0.075000 0.000000
-0.075000 0.100000 0.000000
-0.075000 0.125000 0.000000
-0.075000 0.150000 0.000000
-0.075000 0.175000 0.000000
-0.075000 0.200000 0.000000
-0.075000 0.225000 0.000000
-0.075000 0.250000 0.000000
-0.075000 0.275000 0.000000
-0.075000 0.300000 0.000000
-0.075000 0.325000 0.000000
-0.075000 0.350000 0.000000
-0.075000 0.375000 0.000000
-0.075000 0.400000 0.000000
-0.075000 0.425000 0.000000
-0.075000 0.450000 0.000000
-0.075000 0.475000 0.000000
-0.075000 0.500000 0.000000
-0.075000 0.525000 0.000000
-0.075000 0.550000 0.000000
-0.075000 0.575000 0.000000
-0.075000 0.600000 0.000000
-0.075000 0.625000 0.000000
-0.075000 0.650000 0.000000
-0.075000 0.675000 0.000000
-0.050000 -0.075000 0.000000
-0.050000 -0.050000 0.000000
-0.050000 -0.025000 0.000000
-0.050000 0.000000 0.000000
-0.050000 0.025000 0.000000
-0.050000 0.050000 0.000000
-0.050000 0.075000 0.000000
-0.050000 0.100000 0.000000
-0.050000 0.125000 0.000000
-0.050000 0.150000 0.000000
-0.050000 0.175000 0.000000
-0.050000 0.200000 0.000000
-0.050000 0.225000 0.000000
-0.050000 0.250000 0.000000
-0.050000 0.275000 0.000000
-0.050000 0.300000 0.000000
-0.050000 0.325000 0.000000
-0.050000 0.350000 0.000000
-0.050000 0.375000 0.000000
-0.050000 0.400000 0.000000
-0.050000 0.425000 0.000000
-0.050000 0.450000 0.000000
-0.050000 0.475000 0.000000
-0.050000 0.500000 0.000000
-0.050000 0.525000 0.000000
-0.050000 0.550000 0.000000
-0.050000 0.575000 0.000000
-0.050000 0.600000 0.000000
-0.050000 0.625000 0.000000
-0.050000 0.650000 0.000000
-0.050000 0.675000 0.000000
-0.025000 -0.075000 0.000000
-0.025000 -0.050000 0.000000
-0.025000 -0.025000 0.000000
-0.025000 0.000000 0.000000
-0.025000 0.025000 0.000000
-0.025000 0.050000 0.000000
-0.025000 0.075000 0.000000
-0.025000 0.100000 0.000000
-0.025000 0.125000 0.000000
-0.025000 0.150000 0.000000
-0.025000 0.175000 0.000000
-0.025000 0.200000 0.000000
-0.025000 0.225000 0.000000
-0.025000 0.250000 0.000000
-0.025000 0.275000 0.000000
-0.025000 0.300000 0.000000
-0.025000 0.325000 0.000000
-0.025000 0.350000 0.000000
-0.025000 0.375000 0.000000
-0.025000 0.400000 0.000000
-0.025000 0.425000 0.000000
-0.025000 0.450000 0.000000
-0.025000 0.475000 0.000000
-0.025000 0.500000 0.000000
-0.025000 0.525000 0.000000
-0.025000 0.550000 0.000000
-0.025000 0.575000 0.000000
-0.025000 0.600000 0.000000
-0.025000 0.625000 0.000000
-0.025000 0.650000 0.000000
-0.025000 0.675000 0.000000
0.000000 -0.075000 0.000000
0.000000 -0.050000 0.000000
0.000000 -0.025000 0.000000
0.000000 0.000000 0.000000
0.000000 0.025000 0.000000
0.000000 0.050000 0.000000
0.000000 0.075000 0.000000
0.000000 0.100000 0.000000
0.000000 0.125000 0.000000
0.000000 0.150000 0.000000
0.000000 0.175000 0.000000
0.000000 0.200000 0.000000
0.000000 0.225000 0.000000
0.000000 0.250000 0.000000
0.000000 0.275000 0.000000
0.000000 0.300000 0.000000
0.000000 0.325000 0.000000
0.000000 0.350000 0.000000
0.000000 0.375000 0.000000
0.000000 0.400000 0.000000
0.000000 0.425000 0.000000
0.000000 0.450000 0.000000
0.000000 0.475000 0.000000
0.000000 0.500000 0.000000
0.000000 0.525000 0.000000
0.000000 0.550000 0.000000
0.000000 0.575000 0.000000
0.000000 0.600000 0.000000
0.000000 0.625000 0.000000
0.000000 0.650000 0.000000
0.000000 0.675000 0.000000
0.025000 -0.075000 0.000000
0.025000 -0.050000 0.000000
0.025000 -0.025000 0.000000
0.025000 0.000000 0.000000
0.025000 0.025000 0.000000
0.025000 0.050000 0.000000
0.025000 0.075000 0.000000
0.025000 0.100000 0.000000
0.025000 0.125000 0.000000
0.025000 0.150000 0.000000
0.025000 0.175000 0.000000
0.025000 0.200000 0.000000
0.025000 0.225000 0.000000
0.025000 0.250000 0.000000
0.025000 0.275000 0.000000
0.025000 0.300000 0.000000
0.025000 0.325000 0.000000
0.025000 0.350000 0.000000
0.025000 0.375000 0.000000
0.025000 0.400000 0.000000
0.025000 0.425000 0.000000
0.025000 0.450000 0.000000
0.025000 0.475000 0.000000
0.025000 0.500000 0.000000
0.025000 0.525000 0.000000
0.025000 0.550000 0.000000
0.025000 0.575000 0.000000
0.025000 0.600000 0.000000
0.025000 0.625000 0.000000
0.025000 0.650000 0.000000
0.025000 0.675000 0.000000
0.050000 -0.075000 0.000000
0.050000 -0.050000 0.000000
0.050000 -0.025000 0.000000
0.050000 0.000000 0.000000
0.050000 0.025000 0.000000
0.050000 0.050000 0.000000
0.050000 0.075000 0.000000
0.050000 0.100000 0.000000
0.050000 0.125000 0.000000
0.050000 0.150000 0.000000
0.050000 0.175000 0.000000
0.050000 0.200000 0.000000
0.050000 0.225000 0.000000
0.050000 0.250000 0.000000
0.050000 0.275000 0.000000
0.050000 0.300000 0.000000
0.050000 0.325000 0.000000
0.050000 0.350000 0.000000
0.050000 0.375000 0.000000
0.050000 0.400000 0.000000
0.050000 0.425000 0.000000
0.050000 0.450000 0.000000
0.050000 0.475000 0.000000
0.050000 0.500000 0.000000
0.050000 0.525000 0.000000
0.050000 0.550000 0.000000
0.050000 0.575000 0.000000
0.050000 0.600000 0.000000
0.050000 0.625000 0.000000
0.050000 0.650000 0.000000
0.050000 0.675000 0.000000
0.075000 -0.075000 0.000000
0.075000 -0.050000 0.000000
0.075000 -0.025000 0.000000
0.075000 0.000000 0.000000
0.075000 0.025000 0.000000
0.075000 0.050000 0.000000
0.075000 0.075000 0.000000
0.075000 0.100000 0.000000
0.075000 0.125000 0.000000
0.075000 0.150000 0.000000
0.075000 0.175000 0.000000
0.075000 0.200000 0.000000
0.075000 0.225000 0.000000
0.075000 0.250000 0.000000
0.075000 0.275000 0.000000
0.075000 0.300000 0.000000
0.075000 0.325000 0.000000
0.075000 0.350000 0.000000
0.075000 0.375000 0.000000
0.075000 0.400000 0.000000
0.075000 0.425000 0.000000
0.075000 0.450000 0.000000
0.075000 0.475000 0.000000
0.075000 0.500000 0.000000
0.075000 0.525000 0.000000
0.075000 0.550000 0.000000
0.075000 0.575000 0.000000
0.075000 0.600000 0.000000
0.075000 0.625000 0.000000
0.075000 0.650000 0.000000
0.075000 0.675000 0.000000
0.100000 -0.075000 0.000000
0.100000 -0.050000 0.000000
0.100000 -0.025000 0.000000
0.100000 0.000000 0.000000
0.100000 0.025000 0.000000
0.100000 0.050000 0.000000
0.100000 0.075000 0.000000
0.100000 0.100000 0.000000
0.100000 0.125000 0.000000
0.100000 0.150000 0.000000
0.100000 0.175000 0.000000
0.100000 0.200000 0.000000
0.100000 0.225000 0.000000
0.100000 0.250000 0.000000
0.100000 0.275000 0.000000
0.100000 0.300000 0.000000
0.100000 0.325000 0.000000
0.100000 0.350000 0.000000
0.100000 0.375000 0.000000
0.100000 0.400000 0.000000
0.100000 0.425000 0.000000
0.100000 0.450000 0.000000
0.100000 0.475000 0.000000
0.100000 0.500000 0.000000
0.100000 0.525000 0.000000
0.100000 0.550000 0.000000
0.100000 0.575000 0.000000
0.100000 0.600000 0.000000
0.100000 0.625000 0.000000
0.100000 0.650000 0.000000
0.100000 0.675000 0.000000
0.125000 -0.075000 0.000000
0.125000 -0.050000 0.000000
0.125000 -0.025000 0.000000
0.125000 0.000000 0.000000
0.125000 0.025000 0.000000
0.125000 0.050000 0.000000
0.125000 0.075000 0.000000
0.125000 0.100000 0.000000
0.125000 0.125000 0.000000
0.125000 0.150000 0.000000
0.125000 0.175000 0.000000
0.125000 0.200000 0.000000
0.125000 0.225000 0.000000
0.125000 0.250000 0.000000
0.125000 0.275000 0.000000
0.125000 0.300000 0.000000
0.125000 0.325000 0.000000
0.125000 0.350000 0.000000
0.125000 0.375000 0.000000
0.125000 0.400000 0.000000
0.125000 0.425000 0.000000
0.125000 0.450000 0.000000
0.125000 0.475000 0.000000
0.125000 0.500000 0.000000
0.125000 0.525000 0.000000
0.125000 0.550000 0.000000
0.125000 0.575000 0.000000
0.125000 0.600000 0.000000
0.125000 0.625000 0.000000
0.125000 0.650000 0.000000
0.125000 0.675000 0.000000
0.150000 -0.075000 0.000000
0.150000 -0.050000 0.000000
0.150000 -0.025000 0.000000
0.150000 0.000000 0.000000
0.150000 0.025000 0.000000
0.150000 0.050000 0.000000
0.150000 0.075000 0.000000
0.150000 0.100000 0.000000
0.150000 0.125000 0.000000
0.150000 0.150000 0.000000
0.150000 0.175000 0.000000
0.150000 0.200000 0.000000
0.150000 0.225000 0.000000
0.150000 0.250000 0.000000
0.150000 0.275000 0.000000
0.150000 0.300000 0.000000
0.150000 0.325000 0.000000
0.150000 0.350000 0.000000
0.150000 0.375000 0.000000
0.150000 0.400000 0.000000
0.150000 0.425000 0.000000
0.150000 0.450000 0.000000
0.150000 0.475000 0.000000
0.150000 0.500000 0.000000
0.150000 0.525000 0.000000
0.150000 0.550000 0.000000
0.150000 0.575000 0.000000
0.150000 0.600000 0.000000
0.150000 0.625000 0.000000
0.150000 0.650000 0.000000
0.150000 0.675000 0.000000
0.175000 -0.075000 0.000000
0.175000 -0.050000 0.000000
0.175000 -0.025000 0.000000
0.175000 0.000000 0.000000
0.175000 0.025000 0.000000
0.175000 0.050000 0.000000
0.175000 0.075000 0.000000
0.175000 0.100000 0.000000
0.175000 0.125000 0.000000
0.175000 0.150000 0.000000
0.175000 0.175000 0.000000
0.175000 0.200000 0.000000
0.175000 0.225000 0.000000
0.175000 0.250000 0.000000
0.175000 0.275000 0.000000
0.175000 0.300000 0.000000
0.175000 0.325000 0.000000
0.175000 0.350000 0.000000
0.175000 0.375000 0.000000
0.175000 0.400000 0.000000
0.175000 0.425000 0.000000
0.175000 0.450000 0.000000
0.175000 0.475000 0.000000
0.175000 0.500000 0.000000
0.175000 0.525000 0.000000
0.175000 0.550000 0.000000
0.175000 0.575000 0.000000
0.175000 0.600000 0.000000
0.175000 0.625000 0.000000
0.175000 0.650000 0.000000
0.175000 0.675000 0.000000
0.200000 -0.075000 0.000000
0.200000 -0.050000 0.000000
0.200000 -0.025000 0.000000
0.200000 0.000000 0.000000
0.200000 0.025000 0.000000
0.200000 0.050000 0.000000
0.200000 0.075000 0.000000
0.200000 0.100000 0.000000
0.200000 0.125000 0.000000
0.200000 0.150000 0.000000
0.200000 0.175000 0.000000
0.200000 0.200000 0.000000
0.200000 0.225000 0.000000
0.200000 0.250000 0.000000
[...]
<PointData>
<DataArray NumberOfComponents='1' type='Int32' Name='ParticleType' format='ascii'>
4
4
4
4
4
4
4
4
4
4
4
4
4
4
4
4
4
4
4
4
4
4
4
4
4
4
4
4
2
2
2
4
4
4
4
4
4
4
4
4
4
4
4
4
4
4
4
4
4
4
4
4
4
4
4
4
4
4
4
2
2
2
4
4
3
3
3
3
3
3
3
3
3
3
3
3
3
3
3
3
3
3
3
3
3
3
3
3
3
3
2
2
2
4
4
3
3
3
3
3
3
3
3
3
3
3
3
3
3
3
3
3
3
3
3
3
3
3
3
3
3
2
2
2
4
4
3
3
0
0
0
0
0
0
0
0
0
0
0
0
0
0
0
0
0
0
0
0
0
1
1
2
2
2
2
4
4
3
3
0
0
0
0
0
0
0
0
0
0
0
0
0
0
0
0
0
0
0
0
0
0
1
2
2
2
2
4
4
3
3
0
0
0
0
0
0
0
0
0
0
0
0
0
0
0
0
0
0
0
0
0
0
1
2
2
2
2
4
4
3
3
0
0
0
0
0
0
0
0
0
0
0
0
0
0
0
0
0
0
0
0
0
0
1
2
2
2
2
4
4
3
3
0
0
0
0
0
0
0
0
0
0
0
0
0
0
0
0
0
0
0
0
0
0
1
2
2
2
2
4
4
3
3
0
0
0
0
0
0
0
0
0
0
0
0
0
0
0
0
0
0
0
0
0
0
1
2
2
2
2
4
4
3
3
0
0
0
0
0
0
0
0
0
0
0
0
0
0
0
0
0
0
0
0
0
0
1
2
2
2
2
4
4
3
3
0
0
0
0
0
0
0
0
0
0
0
0
0
0
0
0
0
0
0
0
0
0
1
2
2
2
2
4
4
3
3
0
0
0
0
0
0
0
0
0
0
0
0
0
0
0
0
0
0
0
0
0
0
1
2
2
2
2
4
4
3
3
0
0
0
0
0
0
0
0
0
0
0
0
0
0
0
0
0
0
0
0
0
0
1
2
2
2
2
4
4
3
3
0
0
0
0
0
0
0
0
0
0
0
0
0
0
0
0
0
0
0
0
0
0
1
2
2
2
2
4
4
3
3
0
0
0
0
0
0
0
0
0
0
0
0
0
0
0
0
0
0
0
0
0
0
0
2
2
2
2
4
4
3
3
0
0
0
0
0
0
0
0
0
0
0
0
0
0
0
0
0
0
0
0
0
0
0
2
2
2
2
4
4
3
3
0
0
0
0
0
0
0
0
0
0
0
0
0
0
0
0
0
0
0
0
0
0
0
2
2
2
2
4
4
3
3
0
0
0
0
0
0
0
0
0
0
0
0
0
0
0
0
0
0
0
0
0
0
0
1
2
2
2
4
4
3
3
0
0
0
0
0
0
0
0
0
0
0
0
0
0
0
0
0
0
0
0
0
0
0
1
2
2
2
4
4
3
3
0
0
0
0
0
0
0
0
0
0
0
0
0
0
0
0
0
0
0
0
0
0
0
1
2
2
2
4
4
3
3
0
0
0
0
0
0
0
0
0
0
0
0
0
0
0
0
0
0
0
0
0
0
0
1
2
2
2
4
4
3
3
0
0
0
0
0
0
0
0
0
0
0
0
0
0
0
0
0
0
0
0
0
0
0
1
2
2
2
4
4
3
3
0
0
0
0
0
0
0
0
0
0
0
0
0
0
0
0
0
0
0
0
0
0
0
1
2
2
2
4
4
3
3
0
0
0
0
0
0
0
0
0
0
0
0
0
0
0
0
0
0
0
0
0
0
0
1
2
2
2
4
4
3
3
0
0
0
0
0
0
0
0
0
0
0
0
0
0
0
0
0
0
0
0
0
0
0
1
2
2
2
4
4
3
3
0
0
0
0
0
0
0
0
0
0
0
0
0
0
0
0
0
0
0
0
0
0
0
1
2
2
2
4
4
3
3
0
0
0
0
0
0
0
0
0
0
0
0
0
0
0
0
0
0
0
0
0
0
0
1
2
2
2
4
4
3
3
0
0
0
0
0
0
0
0
0
0
0
0
0
0
0
0
0
0
0
0
0
0
0
1
2
2
2
4
4
3
3
0
0
0
0
0
0
0
0
0
0
0
0
0
0
0
0
0
0
0
0
0
0
0
2
2
2
2
4
4
3
3
0
0
0
0
0
0
0
0
0
0
0
0
0
0
0
0
0
0
0
0
0
0
0
2
2
2
2
4
4
3
3
0
0
0
0
0
0
0
0
0
0
0
0
0
0
0
0
0
0
0
0
0
0
0
2
2
2
2
4
4
3
3
0
0
0
0
0
0
0
0
0
0
0
0
0
0
0
0
0
0
0
0
0
0
0
2
2
2
2
4
4
3
3
0
0
0
0
0
0
0
0
0
0
0
0
0
0
0
0
0
0
0
0
0
0
1
2
2
2
2
4
4
3
3
0
0
0
0
0
0
0
0
0
0
0
0
0
0
0
0
0
0
0
0
0
0
1
2
2
2
2
4
4
3
3
0
0
0
0
0
0
0
0
0
0
0
0
0
0
0
0
0
0
0
0
0
0
1
2
2
2
2
4
4
3
3
0
0
0
0
0
0
0
0
0
0
0
0
0
0
0
0
0
0
0
0
0
0
1
2
2
2
2
4
4
3
3
0
0
0
0
0
0
0
0
0
0
0
0
0
0
0
0
0
0
0
0
0
0
1
2
2
2
2
4
4
3
3
0
0
0
0
0
0
0
0
0
0
0
0
0
0
0
0
0
0
0
0
0
0
1
2
2
2
2
4
4
3
3
0
0
0
0
0
0
0
0
0
0
0
0
0
0
0
0
0
0
0
0
0
0
1
2
2
2
2
4
4
3
3
0
0
0
0
0
0
0
0
0
0
0
0
0
0
0
0
0
0
0
0
0
0
1
2
2
2
2
4
4
3
3
0
0
0
0
0
0
0
0
0
0
0
0
0
0
0
0
0
0
0
0
0
0
1
2
2
2
2
4
4
3
3
0
0
0
0
0
0
0
0
0
0
0
0
0
0
0
0
0
0
0
0
0
0
1
2
2
2
2
4
4
3
3
0
0
0
0
0
0
0
0
0
0
0
0
0
0
0
0
0
0
0
0
0
1
1
2
2
2
2
4
4
3
3
3
3
3
3
3
3
3
3
3
3
3
3
3
3
3
3
3
3
3
3
3
3
3
3
2
2
2
4
4
3
3
3
3
3
3
3
3
3
3
3
3
3
3
3
3
3
3
3
3
3
3
3
3
3
3
2
2
2
4
4
4
4
4
4
4
4
4
4
4
4
4
4
4
4
4
4
4
4
4
4
4
4
4
4
4
4
2
2
2
4
4
4
4
4
4
4
4
4
4
4
4
4
4
4
4
4
4
4
4
4
4
4
4
4
4
4
4
2
2
2
</DataArray>
<DataArray NumberOfComponents='1' type='Float32' Name='Temperature' format='ascii'>
0.000000
0.000000
0.000000
0.000000
0.000000
0.000000
0.000000
0.000000
0.000000
0.000000
0.000000
0.000000
0.000000
0.000000
0.000000
0.000000
0.000000
0.000000
0.000000
0.000000
0.000000
0.000000
0.000000
0.000000
0.000000
0.000000
0.000000
0.000000
-5.000000
-5.000000
-5.000000
0.000000
0.000000
0.000000
0.000000
0.000000
0.000000
0.000000
0.000000
0.000000
0.000000
0.000000
0.000000
0.000000
0.000000
0.000000
0.000000
0.000000
0.000000
0.000000
0.000000
0.000000
0.000000
0.000000
0.000000
0.000000
0.000000
0.000000
0.000000
-5.000000
-5.000000
-5.000000
0.000000
0.000000
0.000000
0.000000
0.000000
0.000000
0.000000
0.000000
0.000000
0.000000
0.000000
0.000000
0.000000
0.000000
0.000000
0.000000
0.000000
0.000000
0.000000
0.000000
0.000000
0.000000
0.000000
0.000000
0.000000
0.000000
0.000000
0.000000
-5.000000
-5.000000
-5.000000
0.000000
0.000000
0.000000
0.000000
0.000000
0.000000
0.000000
0.000000
0.000000
0.000000
0.000000
0.000000
0.000000
0.000000
0.000000
0.000000
0.000000
0.000000
0.000000
0.000000
0.000000
0.000000
0.000000
0.000000
0.000000
0.000000
0.000000
0.000000
-5.000000
-5.000000
-5.000000
0.000000
0.000000
0.000000
0.000000
0.157412
0.282110
0.408172
0.527613
0.639636
0.742192
0.833453
0.911600
0.974918
1.021839
1.051000
1.061286
1.051858
1.022157
0.971880
0.900941
0.809417
0.697429
0.565279
0.411488
0.241952
0.009946
0.003259
-2.127062
-5.000000
-5.000000
-5.000000
0.000000
0.000000
0.000000
0.000000
0.285403
0.511192
0.739785
0.956459
1.159824
1.346150
1.512096
1.654328
1.769689
1.855291
1.908627
1.927653
1.910850
1.857228
1.766298
1.637992
1.472588
1.270539
1.032769
0.757723
0.457226
0.042594
0.002969
-2.366575
-5.000000
-5.000000
-5.000000
0.000000
0.000000
0.000000
0.000000
0.420442
0.753233
1.090318
1.410109
1.710569
1.986177
2.231953
2.442894
2.614244
2.741646
2.821320
2.850206
2.826060
2.747481
2.613863
2.425291
2.182436
1.886385
1.539147
1.140379
0.707127
0.153633
0.004300
-2.446369
-5.000000
-5.000000
-5.000000
0.000000
0.000000
0.000000
0.000000
0.557183
0.998417
1.445695
1.870504
2.270176
2.637351
2.965323
3.247307
3.476818
3.647901
3.755395
3.795156
3.764203
3.660766
3.484230
3.234995
2.914337
2.524241
2.068068
1.547643
0.983515
0.300978
0.005417
-2.451890
-5.000000
-5.000000
-5.000000
0.000000
0.000000
0.000000
0.000000
0.697246
1.249725
1.810287
2.343405
2.845778
3.308138
3.721934
4.078442
4.369275
4.586709
4.724061
4.776007
4.738797
4.610341
4.390132
4.079057
3.679185
3.193572
2.626965
1.983414
1.285533
0.469743
0.006180
-2.438230
-5.000000
-5.000000
-5.000000
0.000000
0.000000
0.000000
0.000000
0.840809
1.507485
2.184615
2.829555
3.438383
3.999839
4.503399
4.938227
5.293837
5.560549
5.729995
5.795563
5.752705
5.599052
5.334333
4.960100
4.479394
3.896435
3.217223
2.447592
1.610939
0.654847
0.006858
-2.418058
-5.000000
-5.000000
-5.000000
0.000000
0.000000
0.000000
0.000000
0.987939
1.771830
2.568888
3.329261
4.048412
4.713005
5.310406
5.827487
6.251460
6.570486
6.774344
6.855021
6.807128
6.628071
6.317944
5.879155
5.315912
4.633685
3.839528
2.940459
1.959396
0.855014
0.007953
-2.394676
-5.000000
-5.000000
-5.000000
0.000000
0.000000
0.000000
0.000000
1.138269
2.042098
2.962146
3.841274
4.674337
5.445849
6.140931
6.743988
7.239733
7.613970
7.854457
7.951668
7.899335
7.694688
7.338328
6.833732
6.186514
5.403550
4.492816
3.461870
2.331555
1.071031
0.008563
-2.368510
-5.000000
-5.000000
-5.000000
0.000000
0.000000
0.000000
0.000000
1.290969
2.316789
3.362185
4.362693
5.312569
6.194113
6.990086
7.682269
8.252697
8.684640
8.963683
9.078683
9.022462
8.792123
8.388915
7.817627
7.085578
6.201356
5.173944
4.010958
2.728944
1.305799
0.009190
-2.338214
-5.000000
-5.000000
-5.000000
0.000000
0.000000
0.000000
0.000000
1.444698
2.593473
3.765436
4.888808
5.957267
6.950849
7.849875
8.633376
9.280566
9.772038
10.091083
10.224855
10.165238
9.909257
9.458947
8.820645
8.003749
7.019031
5.876958
4.585274
3.154195
1.567440
0.009472
-2.297865
-5.000000
-5.000000
-5.000000
0.000000
0.000000
0.000000
0.000000
1.597601
2.868793
4.166957
5.413103
6.600341
7.706440
8.709225
9.584906
10.309785
10.861682
11.221510
11.374666
11.312081
11.030737
10.533567
9.828673
8.927900
7.844813
6.592270
5.179119
3.609939
1.870075
0.009928
-2.232501
-5.000000
-5.000000
-5.000000
0.000000
0.000000
0.000000
0.000000
1.747350
3.138532
4.560554
5.927406
7.231657
8.448832
9.554266
10.521330
11.323385
11.935448
12.336022
12.508727
12.443535
12.137413
11.594257
10.824081
9.841470
8.663357
7.306113
5.781697
4.092922
2.226532
0.130900
-2.116899
-5.000000
-5.000000
-5.000000
0.000000
0.000000
0.000000
0.000000
1.891229
3.397776
4.939006
6.422196
7.839408
9.163997
10.368863
11.424594
12.301654
12.972294
13.412639
13.604552
13.537061
13.207125
12.619617
11.786502
10.725233
9.456462
8.000982
6.375981
4.588022
2.631280
0.450854
-1.911101
-5.000000
-5.000000
-5.000000
0.000000
0.000000
0.000000
0.000000
2.026261
3.641136
5.294393
6.887041
8.410669
9.836583
11.135373
12.274964
13.223055
13.949244
14.427373
14.637619
14.568100
14.215760
13.586405
12.693876
11.558416
10.204403
8.657389
6.941018
5.069676
3.060603
0.840948
-1.580618
-5.000000
-5.000000
-5.000000
0.000000
0.000000
0.000000
0.000000
2.149352
3.863019
5.618506
7.311128
8.932047
10.450697
11.835535
13.052034
14.065328
14.842561
15.355456
15.582623
15.511328
15.138489
14.470752
13.523655
12.319973
10.887473
9.256138
7.456027
5.511708
3.465078
1.251607
-0.009550
-5.000000
-5.000000
-5.000000
0.000000
0.000000
0.000000
0.000000
2.257463
4.057926
5.903275
7.683834
9.390398
10.990744
12.451448
13.735805
14.806671
15.629008
16.172653
16.414816
16.341998
15.951077
15.249415
14.254005
12.989768
11.487296
9.780189
7.903501
5.888028
3.793734
1.539594
-0.009299
-5.000000
-5.000000
-5.000000
0.000000
0.000000
0.000000
0.000000
2.347771
4.220754
6.141211
7.995306
9.773529
11.442272
12.966526
14.307757
15.426902
16.287082
16.856543
17.111313
17.037239
16.631152
15.900991
14.864922
13.549573
11.987721
10.215602
8.271508
6.189615
4.031114
1.712571
-0.008739
-5.000000
-5.000000
-5.000000
0.000000
0.000000
0.000000
0.000000
2.417819
4.347062
6.325802
8.236981
10.070850
11.792728
13.366374
14.751823
15.908518
16.798142
17.387698
17.652288
17.577246
17.159355
16.406988
15.339188
13.983848
12.375308
10.551579
8.552774
6.414582
4.195709
1.811570
-0.006216
-5.000000
-5.000000
-5.000000
0.000000
0.000000
0.000000
0.000000
2.465648
4.433310
6.451856
8.402030
10.273922
12.032117
13.639527
15.055212
16.237589
17.147355
17.750662
18.021975
17.946274
17.520305
16.752727
15.663171
14.280358
12.639632
10.780087
8.742816
6.564174
4.302060
1.873104
-0.005847
-5.000000
-5.000000
-5.000000
0.000000
0.000000
0.000000
0.000000
2.489897
4.477036
6.515764
8.485711
10.376883
12.153492
13.778026
15.209045
16.404446
17.324429
17.934712
18.209436
18.133401
17.703335
16.928040
15.827437
14.430661
12.773544
10.895691
8.838633
6.639024
4.354565
1.902990
-0.005263
-5.000000
-5.000000
-5.000000
0.000000
0.000000
0.000000
0.000000
2.489867
4.476981
6.515680
8.485594
10.376730
12.153302
13.777797
15.208779
16.404147
17.324102
17.934365
18.209079
18.133047
17.702996
16.927732
15.827176
14.430463
12.773420
10.895636
8.838617
6.638994
4.354487
1.902885
-0.005260
-5.000000
-5.000000
-5.000000
0.000000
0.000000
0.000000
0.000000
2.465560
4.433146
6.451606
8.401685
10.273472
12.031555
13.638852
15.054426
16.236703
17.146387
17.749636
18.020921
17.945228
17.519308
16.751826
15.662417
14.279804
12.639315
10.779986
8.742784
6.563900
4.301325
1.872197
-0.005837
-5.000000
-5.000000
-5.000000
0.000000
0.000000
0.000000
0.000000
2.417677
4.346798
6.325398
8.236423
10.070122
11.791820
13.365281
14.750551
15.907084
16.796575
17.386037
17.650584
17.575558
17.157755
16.405558
15.338027
13.983065
12.374982
10.551649
8.552776
6.413329
4.192376
1.807341
-0.006195
-5.000000
-5.000000
-5.000000
0.000000
0.000000
0.000000
0.000000
2.347582
4.220402
6.140672
7.994561
9.772556
11.441057
12.965065
14.306055
15.424982
16.284983
16.854320
17.109034
17.034990
16.629035
15.899137
14.863496
13.548773
11.987709
10.216275
8.271756
6.186262
4.016423
1.679467
-0.008760
-5.000000
-5.000000
-5.000000
0.000000
0.000000
0.000000
0.000000
2.257237
4.057503
5.902627
7.682937
9.389226
10.989279
12.449683
13.733748
14.804350
15.626470
16.169965
16.412065
16.339295
15.948560
15.247273
14.252496
12.989232
11.488064
9.782195
7.904907
5.882873
3.755495
1.450102
-0.009479
-5.000000
-5.000000
-5.000000
0.000000
0.000000
0.000000
0.000000
2.149099
3.862546
5.617780
7.310121
8.930731
10.449048
11.833546
13.049714
14.062708
14.839696
15.352424
15.579526
15.508300
15.135708
14.468473
13.522257
12.319998
10.889548
9.260496
7.460601
5.507163
3.414896
1.102953
-1.462521
-5.000000
-5.000000
-5.000000
0.000000
0.000000
0.000000
0.000000
2.025993
3.640636
5.293625
6.885973
8.409269
9.834827
11.133250
12.272486
13.220253
13.946179
14.424130
14.634314
14.564887
14.212855
13.584134
12.692749
11.559220
10.208182
8.665007
6.951316
5.075829
3.029502
0.744411
-1.772521
-5.000000
-5.000000
-5.000000
0.000000
0.000000
0.000000
0.000000
1.890961
3.397273
4.938231
6.421117
7.837989
9.162213
10.366703
11.422066
12.298793
12.969162
13.409326
13.601183
13.533807
13.204230
12.617466
11.785724
10.726842
9.461932
8.011958
6.392842
4.606903
2.636094
0.421735
-1.985395
-5.000000
-5.000000
-5.000000
0.000000
0.000000
0.000000
0.000000
1.747092
3.138049
4.559808
5.926363
7.230281
8.447096
9.552158
10.518859
11.320583
11.932378
12.332776
12.505432
12.440370
12.134639
11.592294
10.823627
9.843674
8.669958
7.319286
5.803068
4.120907
2.253662
0.147815
-2.132411
-5.000000
-5.000000
-5.000000
0.000000
0.000000
0.000000
0.000000
1.597366
2.868350
4.166271
5.412139
6.599064
7.704822
8.707253
9.582587
10.307150
10.858791
11.218452
11.371567
11.309117
11.028171
10.531818
9.828436
8.930311
7.851593
6.605585
5.200738
3.638600
1.899582
0.009875
-2.233336
-5.000000
-5.000000
-5.000000
0.000000
0.000000
0.000000
0.000000
1.444493
2.593087
3.764832
4.887956
5.956131
6.949403
7.848104
8.631286
9.278185
9.769420
10.088311
10.222048
10.162562
9.906958
9.457409
8.820491
8.005965
7.025050
5.888466
4.603416
3.177097
1.589380
0.009744
-2.295971
-5.000000
-5.000000
-5.000000
0.000000
0.000000
0.000000
0.000000
1.290800
2.316467
3.361680
4.361973
5.311603
6.192874
6.988561
7.680461
8.250629
8.682360
8.961266
9.076235
9.020131
8.790124
8.387576
7.817452
7.087326
6.206048
5.182629
4.024029
2.744378
1.319177
0.009053
-2.336633
-5.000000
-5.000000
-5.000000
0.000000
0.000000
0.000000
0.000000
1.138136
2.041844
2.961744
3.840696
4.673553
5.444835
6.139673
6.742488
7.238010
7.612063
7.852430
7.949612
7.897375
7.693003
7.337175
6.833490
6.187707
5.406813
4.498676
3.470258
2.340884
1.078544
0.008554
-2.367441
-5.000000
-5.000000
-5.000000
0.000000
0.000000
0.000000
0.000000
0.987841
1.771641
2.568586
3.328820
4.047806
4.712213
5.309414
5.826295
6.250083
6.568955
6.772711
6.853360
6.805539
6.626694
6.316972
5.878850
5.316608
4.635736
3.843144
2.945422
1.964670
0.859085
0.007952
-2.394017
-5.000000
-5.000000
-5.000000
0.000000
0.000000
0.000000
0.000000
0.840742
1.507354
2.184400
2.829236
3.437938
3.999250
4.502653
4.937322
5.292784
5.559370
5.728731
5.794272
5.751462
5.597962
5.333532
4.959761
4.479718
3.897605
3.219298
2.450368
1.613804
0.657026
0.007248
-2.417641
-5.000000
-5.000000
-5.000000
0.000000
0.000000
0.000000
0.000000
0.697203
1.249639
1.810145
2.343188
2.845469
3.307721
3.721398
4.077786
4.368504
4.585840
4.723123
4.775041
4.737860
4.609505
4.389490
4.078719
3.679268
3.194165
2.628074
1.984893
1.287043
0.470890
0.006424
-2.437977
-5.000000
-5.000000
-5.000000
0.000000
0.000000
0.000000
0.000000
0.557158
0.998365
1.445605
1.870364
2.269972
2.637070
2.964957
3.246853
3.476279
3.647288
3.754728
3.794464
3.763523
3.660146
3.483731
3.234686
2.914283
2.524487
2.068607
1.548385
0.984276
0.301560
0.005491
-2.451749
-5.000000
-5.000000
-5.000000
0.000000
0.000000
0.000000
0.000000
0.420428
0.753203
1.090265
1.410023
1.710441
1.985998
2.231715
2.442595
2.613885
2.741235
2.820868
2.849732
2.825588
2.747041
2.613493
2.425030
2.182322
1.886442
1.539368
1.140714
0.707484
0.153910
0.004229
-2.446297
-5.000000
-5.000000
-5.000000
0.000000
0.000000
0.000000
0.000000
0.285395
0.511176
0.739755
0.956409
1.159748
1.346042
1.511952
1.654146
1.769468
1.855036
1.908344
1.927353
1.910546
1.856939
1.766044
1.637796
1.472470
1.270513
1.032830
0.757850
0.457373
0.042719
0.003248
-2.366532
-5.000000
-5.000000
-5.000000
0.000000
0.000000
0.000000
0.000000
0.157408
0.282101
0.408156
0.527586
0.639595
0.742135
0.833376
0.911503
0.974801
1.021703
1.050848
1.061124
1.051692
1.021996
0.971734
0.900821
0.809332
0.697386
0.565278
0.411519
0.241997
0.009962
0.003100
-2.127053
-5.000000
-5.000000
-5.000000
0.000000
0.000000
0.000000
0.000000
0.000000
0.000000
0.000000
0.000000
0.000000
0.000000
0.000000
0.000000
0.000000
0.000000
0.000000
0.000000
0.000000
0.000000
0.000000
0.000000
0.000000
0.000000
0.000000
0.000000
0.000000
0.000000
0.000000
0.000000
-5.000000
-5.000000
-5.000000
0.000000
0.000000
0.000000
0.000000
0.000000
0.000000
0.000000
0.000000
0.000000
0.000000
0.000000
0.000000
0.000000
0.000000
0.000000
0.000000
0.000000
0.000000
0.000000
0.000000
0.000000
0.000000
0.000000
0.000000
0.000000
0.000000
0.000000
0.000000
-5.000000
-5.000000
-5.000000
0.000000
0.000000
0.000000
0.000000
0.000000
0.000000
0.000000
0.000000
0.000000
0.000000
0.000000
0.000000
0.000000
0.000000
0.000000
0.000000
0.000000
0.000000
0.000000
0.000000
0.000000
0.000000
0.000000
0.000000
0.000000
0.000000
0.000000
0.000000
-5.000000
-5.000000
-5.000000
0.000000
0.000000
0.000000
0.000000
0.000000
0.000000
0.000000
0.000000
0.000000
0.000000
0.000000
0.000000
0.000000
0.000000
0.000000
0.000000
0.000000
0.000000
0.000000
0.000000
0.000000
0.000000
0.000000
0.000000
0.000000
0.000000
0.000000
0.000000
-5.000000
-5.000000
-5.000000
</DataArray>
</PointData>
<Cells>
<DataArray type='Int32' Name='connectivity' format='ascii'>
0
1
2
3
4
5
6
7
8
9
10
11
12
13
14
15
16
17
18
19
20
21
22
23
24
25
26
27
28
29
30
31
32
33
34
35
36
37
38
39
40
41
42
43
44
45
46
47
48
49
50
51
52
53
54
55
56
57
58
59
60
61
62
63
64
65
66
67
68
69
70
71
72
73
74
75
76
77
78
79
80
81
82
83
84
85
86
87
88
89
90
91
92
93
94
95
96
97
98
99
100
101
102
103
104
105
106
107
108
109
110
111
112
113
114
115
116
117
118
119
120
121
122
123
124
125
126
127
128
129
130
131
132
133
134
135
136
137
138
139
140
141
142
143
144
145
146
147
148
149
150
151
152
153
154
155
156
157
158
159
160
161
162
163
164
165
166
167
168
169
170
171
172
173
174
175
176
177
178
179
180
181
182
183
184
185
186
187
188
189
190
191
192
193
194
195
196
197
198
199
200
201
202
203
204
205
206
207
208
209
210
211
212
213
214
215
216
217
218
219
220
221
222
223
224
225
226
227
228
229
230
231
232
233
234
235
236
237
238
239
240
241
242
243
244
245
246
247
248
249
250
251
252
253
254
255
256
257
258
259
260
261
262
263
264
265
266
267
268
269
270
271
272
273
274
275
276
277
278
279
280
281
282
283
284
285
286
287
288
289
290
291
292
293
294
295
296
297
298
299
300
301
302
303
304
305
306
307
308
309
310
311
312
313
314
315
316
317
318
319
320
321
322
323
324
325
326
327
328
329
330
331
332
333
334
335
336
337
338
339
340
341
342
343
344
345
346
347
348
349
350
351
352
353
354
355
356
357
358
359
360
361
362
363
364
365
366
367
368
369
370
371
372
373
374
375
376
377
378
379
380
381
382
383
384
385
386
387
388
389
390
391
392
393
394
395
396
397
398
399
400
401
402
403
404
405
406
407
408
409
410
411
412
413
414
415
416
417
418
419
420
421
422
423
424
425
426
427
428
429
430
431
432
433
434
435
436
437
438
439
440
441
442
443
444
445
446
447
448
449
450
451
452
453
454
455
456
457
458
459
460
461
462
463
464
465
466
467
468
469
470
471
472
473
474
475
476
477
478
479
480
481
482
483
484
485
486
487
488
489
490
491
492
493
494
495
496
497
498
499
500
501
502
503
504
505
506
507
508
509
510
511
512
513
514
515
516
517
518
519
520
521
522
523
524
525
526
527
528
529
530
531
532
533
534
535
536
537
538
539
540
541
542
543
544
545
546
547
548
549
550
551
552
553
554
555
556
557
558
559
560
561
562
563
564
565
566
567
568
569
570
571
572
573
574
575
576
577
578
579
580
581
582
583
584
585
586
587
588
589
590
591
592
593
594
595
596
597
598
599
600
601
602
603
604
605
606
607
608
609
610
611
612
613
614
615
616
617
618
619
620
621
622
623
624
625
626
627
628
629
630
631
632
633
634
635
636
637
638
639
640
641
642
643
644
645
646
647
648
649
650
651
652
653
654
655
656
657
658
659
660
661
662
663
664
665
666
667
668
669
670
671
672
673
674
675
676
677
678
679
680
681
682
683
684
685
686
687
688
689
690
691
692
693
694
695
696
697
698
699
700
701
702
703
704
705
706
707
708
709
710
711
712
713
714
715
716
717
718
719
720
721
722
723
724
725
726
727
728
729
730
731
732
733
734
735
736
737
738
739
740
741
742
743
744
745
746
747
748
749
750
751
752
753