<?xml version='1.0' encoding='UTF-8'?>
<VTKFile xmlns='VTK' byte_order='LittleEndian' version='0.1' type='UnstructuredGrid'>
<UnstructuredGrid>
<Piece NumberOfCells='1488' NumberOfPoints='1488'>
<Points>
<DataArray NumberOfComponents='3' type='Float32' Name='Position' format='ascii'>
-0.075000 -0.075000 0.000000
-0.075000 -0.050000 0.000000
-0.075000 -0.025000 0.000000
-0.075000 0.000000 0.000000
-0.075000 0.025000 0.000000
-0.075000 0.050000 0.000000
-0.075000 0.075000 0.000000
-0.075000 0.100000 0.000000
-0.075000 0.125000 0.000000
-0.075000 0.150000 0.000000
-0.075000 0.175000 0.000000
-0.075000 0.200000 0.000000
-0.075000 0.225000 0.000000
-0.075000 0.250000 0.000000
-0.075000 0.275000 0.000000
-0.075000 0.300000 0.000000
-0.075000 0.325000 0.000000
-0.075000 0.350000 0.000000
-0.075000 0.375000 0.000000
-0.075000 0.400000 0.000000
-0.075000 0.425000 0.000000
-0.075000 0.450000 0.000000
-0.075000 0.475000 0.000000
-0.075000 0.500000 0.000000
-0.075000 0.525000 0.000000
-0.075000 0.550000 0.000000
-0.075000 0.575000 0.000000
-0.075000 0.600000 0.000000
-0.075000 0.625000 0.000000
-0.075000 0.650000 0.000000
-0.075000 0.675000 0.000000
-0.050000 -0.075000 0.000000
-0.050000 -0.050000 0.000000
-0.050000 -0.025000 0.000000
-0.050000 0.000000 0.000000
-0.050000 0.025000 0.000000
-0.050000 0.050000 0.000000
-0.050000 0.075000 0.000000
-0.050000 0.100000 0.000000
-0.050000 0.125000 0.000000
-0.050000 0.150000 0.000000
-0.050000 0.175000 0.000000
-0.050000 0.200000 0.000000
-0.050000 0.225000 0.000000
-0.050000 0.250000 0.000000
-0.050000 0.275000 0.000000
-0.050000 0.300000 0.000000
-0.050000 0.325000 0.000000
-0.050000 0.350000 0.000000
-0.050000 0.375000 0.000000
-0.050000 0.400000 0.000000
-0.050000 0.425000 0.000000
-0.050000 0.450000 0.000000
-0.050000 0.475000 0.000000
-0.050000 0.500000 0.000000
-0.050000 0.525000 0.000000
-0.050000 0.550000 0.000000
-0.050000 0.575000 0.000000
-0.050000 0.600000 0.000000
-0.050000 0.625000 0.000000
-0.050000 0.650000 0.000000
-0.050000 0.675000 0.000000
-0.025000 -0.075000 0.000000
-0.025000 -0.050000 0.000000
-0.025000 -0.025000 0.000000
-0.025000 0.000000 0.000000
-0.025000 0.025000 0.000000
-0.025000 0.050000 0.000000
-0.025000 0.075000 0.000000
-0.025000 0.100000 0.000000
-0.025000 0.125000 0.000000
-0.025000 0.150000 0.000000
-0.025000 0.175000 0.000000
-0.025000 0.200000 0.000000
-0.025000 0.225000 0.000000
-0.025000 0.250000 0.000000
-0.025000 0.275000 0.000000
-0.025000 0.300000 0.000000
-0.025000 0.325000 0.000000
-0.025000 0.350000 0.000000
-0.025000 0.375000 0.000000
-0.025000 0.400000 0.000000
-0.025000 0.425000 0.000000
-0.025000 0.450000 0.000000
-0.025000 0.475000 0.000000
-0.025000 0.500000 0.000000
-0.025000 0.525000 0.000000
-0.025000 0.550000 0.000000
-0.025000 0.575000 0.000000
-0.025000 0.600000 0.000000
-0.025000 0.625000 0.000000
-0.025000 0.650000 0.000000
-0.025000 0.675000 0.000000
0.000000 -0.075000 0.000000
0.000000 -0.050000 0.000000
0.000000 -0.025000 0.000000
0.000000 0.000000 0.000000
0.000000 0.025000 0.000000
0.000000 0.050000 0.000000
0.000000 0.075000 0.000000
0.000000 0.100000 0.000000
0.000000 0.125000 0.000000
0.000000 0.150000 0.000000
0.000000 0.175000 0.000000
0.000000 0.200000 0.000000
0.000000 0.225000 0.000000
0.000000 0.250000 0.000000
0.000000 0.275000 0.000000
0.000000 0.300000 0.000000
0.000000 0.325000 0.000000
0.000000 0.350000 0.000000
0.000000 0.375000 0.000000
0.000000 0.400000 0.000000
0.000000 0.425000 0.000000
0.000000 0.450000 0.000000
0.000000 0.475000 0.000000
0.000000 0.500000 0.000000
0.000000 0.525000 0.000000
0.000000 0.550000 0.000000
0.000000 0.575000 0.000000
0.000000 0.600000 0.000000
0.000000 0.625000 0.000000
0.000000 0.650000 0.000000
0.000000 0.675000 0.000000
0.025000 -0.075000 0.000000
0.025000 -0.050000 0.000000
0.025000 -0.025000 0.000000
0.025000 0.000000 0.000000
0.025000 0.025000 0.000000
0.025000 0.050000 0.000000
0.025000 0.075000 0.000000
0.025000 0.100000 0.000000
0.025000 0.125000 0.000000
0.025000 0.150000 0.000000
0.025000 0.175000 0.000000
0.025000 0.200000 0.000000
0.025000 0.225000 0.000000
0.025000 0.250000 0.000000
0.025000 0.275000 0.000000
0.025000 0.300000 0.000000
0.025000 0.325000 0.000000
0.025000 0.350000 0.000000
0.025000 0.375000 0.000000
0.025000 0.400000 0.000000
0.025000 0.425000 0.000000
0.025000 0.450000 0.000000
0.025000 0.475000 0.000000
0.025000 0.500000 0.000000
0.025000 0.525000 0.000000
0.025000 0.550000 0.000000
0.025000 0.575000 0.000000
0.025000 0.600000 0.000000
0.025000 0.625000 0.000000
0.025000 0.650000 0.000000
0.025000 0.675000 0.000000
0.050000 -0.075000 0.000000
0.050000 -0.050000 0.000000
0.050000 -0.025000 0.000000
0.050000 0.000000 0.000000
0.050000 0.025000 0.000000
0.050000 0.050000 0.000000
0.050000 0.075000 0.000000
0.050000 0.100000 0.000000
0.050000 0.125000 0.000000
0.050000 0.150000 0.000000
0.050000 0.175000 0.000000
0.050000 0.200000 0.000000
0.050000 0.225000 0.000000
0.050000 0.250000 0.000000
0.050000 0.275000 0.000000
0.050000 0.300000 0.000000
0.050000 0.325000 0.000000
0.050000 0.350000 0.000000
0.050000 0.375000 0.000000
0.050000 0.400000 0.000000
0.050000 0.425000 0.000000
0.050000 0.450000 0.000000
0.050000 0.475000 0.000000
0.050000 0.500000 0.000000
0.050000 0.525000 0.000000
0.050000 0.550000 0.000000
0.050000 0.575000 0.000000
0.050000 0.600000 0.000000
0.050000 0.625000 0.000000
0.050000 0.650000 0.000000
0.050000 0.675000 0.000000
0.075000 -0.075000 0.000000
0.075000 -0.050000 0.000000
0.075000 -0.025000 0.000000
0.075000 0.000000 0.000000
0.075000 0.025000 0.000000
0.075000 0.050000 0.000000
0.075000 0.075000 0.000000
0.075000 0.100000 0.000000
0.075000 0.125000 0.000000
0.075000 0.150000 0.000000
0.075000 0.175000 0.000000
0.075000 0.200000 0.000000
0.075000 0.225000 0.000000
0.075000 0.250000 0.000000
0.075000 0.275000 0.000000
0.075000 0.300000 0.000000
0.075000 0.325000 0.000000
0.075000 0.350000 0.000000
0.075000 0.375000 0.000000
0.075000 0.400000 0.000000
0.075000 0.425000 0.000000
0.075000 0.450000 0.000000
0.075000 0.475000 0.000000
0.075000 0.500000 0.000000
0.075000 0.525000 0.000000
0.075000 0.550000 0.000000
0.075000 0.575000 0.000000
0.075000 0.600000 0.000000
0.075000 0.625000 0.000000
0.075000 0.650000 0.000000
0.075000 0.675000 0.000000
0.100000 -0.075000 0.000000
0.100000 -0.050000 0.000000
0.100000 -0.025000 0.000000
0.100000 0.000000 0.000000
0.100000 0.025000 0.000000
0.100000 0.050000 0.000000
0.100000 0.075000 0.000000
0.100000 0.100000 0.000000
0.100000 0.125000 0.000000
0.100000 0.150000 0.000000
0.100000 0.175000 0.000000
0.100000 0.200000 0.000000
0.100000 0.225000 0.000000
0.100000 0.250000 0.000000
0.100000 0.275000 0.000000
0.100000 0.300000 0.000000
0.100000 0.325000 0.000000
0.100000 0.350000 0.000000
0.100000 0.375000 0.000000
0.100000 0.400000 0.000000
0.100000 0.425000 0.000000
0.100000 0.450000 0.000000
0.100000 0.475000 0.000000
0.100000 0.500000 0.000000
0.100000 0.525000 0.000000
0.100000 0.550000 0.000000
0.100000 0.575000 0.000000
0.100000 0.600000 0.000000
0.100000 0.625000 0.000000
0.100000 0.650000 0.000000
0.100000 0.675000 0.000000
0.125000 -0.075000 0.000000
0.125000 -0.050000 0.000000
0.125000 -0.025000 0.000000
0.125000 0.000000 0.000000
0.125000 0.025000 0.000000
0.125000 0.050000 0.000000
0.125000 0.075000 0.000000
0.125000 0.100000 0.000000
0.125000 0.125000 0.000000
0.125000 0.150000 0.000000
0.125000 0.175000 0.000000
0.125000 0.200000 0.000000
0.125000 0.225000 0.000000
0.125000 0.250000 0.000000
0.125000 0.275000 0.000000
0.125000 0.300000 0.000000
0.125000 0.325000 0.000000
0.125000 0.350000 0.000000
0.125000 0.375000 0.000000
0.125000 0.400000 0.000000
0.125000 0.425000 0.000000
0.125000 0.450000 0.000000
0.125000 0.475000 0.000000
0.125000 0.500000 0.000000
0.125000 0.525000 0.000000
0.125000 0.550000 0.000000
0.125000 0.575000 0.000000
0.125000 0.600000 0.000000
0.125000 0.625000 0.000000
0.125000 0.650000 0.000000
0.125000 0.675000 0.000000
0.150000 -0.075000 0.000000
0.150000 -0.050000 0.000000
0.150000 -0.025000 0.000000
0.150000 0.000000 0.000000
0.150000 0.025000 0.000000
0.150000 0.050000 0.000000
0.150000 0.075000 0.000000
0.150000 0.100000 0.000000
0.150000 0.125000 0.000000
0.150000 0.150000 0.000000
0.150000 0.175000 0.000000
0.150000 0.200000 0.000000
0.150000 0.225000 0.000000
0.150000 0.250000 0.000000
0.150000 0.275000 0.000000
0.150000 0.300000 0.000000
0.150000 0.325000 0.000000
0.150000 0.350000 0.000000
0.150000 0.375000 0.000000
0.150000 0.400000 0.000000
0.150000 0.425000 0.000000
0.150000 0.450000 0.000000
0.150000 0.475000 0.000000
0.150000 0.500000 0.000000
0.150000 0.525000 0.000000
0.150000 0.550000 0.000000
0.150000 0.575000 0.000000
0.150000 0.600000 0.000000
0.150000 0.625000 0.000000
0.150000 0.650000 0.000000
0.150000 0.675000 0.000000
0.175000 -0.075000 0.000000
0.175000 -0.050000 0.000000
0.175000 -0.025000 0.000000
0.175000 0.000000 0.000000
0.175000 0.025000 0.000000
0.175000 0.050000 0.000000
0.175000 0.075000 0.000000
0.175000 0.100000 0.000000
0.175000 0.125000 0.000000
0.175000 0.150000 0.000000
0.175000 0.175000 0.000000
0.175000 0.200000 0.000000
0.175000 0.225000 0.000000
0.175000 0.250000 0.000000
0.175000 0.275000 0.000000
0.175000 0.300000 0.000000
0.175000 0.325000 0.000000
0.175000 0.350000 0.000000
0.175000 0.375000 0.000000
0.175000 0.400000 0.000000
0.175000 0.425000 0.000000
0.175000 0.450000 0.000000
0.175000 0.475000 0.000000
0.175000 0.500000 0.000000
0.175000 0.525000 0.000000
0.175000 0.550000 0.000000
0.175000 0.575000 0.000000
0.175000 0.600000 0.000000
0.175000 0.625000 0.000000
0.175000 0.650000 0.000000
0.175000 0.675000 0.000000
0.200000 -0.075000 0.000000
0.200000 -0.050000 0.000000
0.200000 -0.025000 0.000000
0.200000 0.000000 0.000000
0.200000 0.025000 0.000000
0.200000 0.050000 0.000000
0.200000 0.075000 0.000000
0.200000 0.100000 0.000000
0.200000 0.125000 0.000000
0.200000 0.150000 0.000000
0.200000 0.175000 0.000000
0.200000 0.200000 0.000000
0.200000 0.225000 0.000000
0.200000 0.250000 0.000000
[...]
<PointData>
<DataArray NumberOfComponents='1' type='Int32' Name='ParticleType' format='ascii'>
4
4
4
4
4
4
4
4
4
4
4
4
4
4
4
4
4
4
4
4
4
4
4
4
4
4
4
4
2
2
2
4
4
4
4
4
4
4
4
4
4
4
4
4
4
4
4
4
4
4
4
4
4
4
4
4
4
4
4
2
2
2
4
4
3
3
3
3
3
3
3
3
3
3
3
3
3
3
3
3
3
3
3
3
3
3
3
3
3
3
2
2
2
4
4
3
3
3
3
3
3
3
3
3
3
3
3
3
3
3
3
3
3
3
3
3
3
3
3
3
3
2
2
2
4
4
3
3
0
0
0
0
0
0
0
0
0
0
0
0
0
0
0
0
0
0
0
0
0
1
1
2
2
2
2
4
4
3
3
0
0
0
0
0
0
0
0
0
0
0
0
0
0
0
0
0
0
0
0
0
1
2
2
2
2
2
4
4
3
3
0
0
0
0
0
0
0
0
0
0
0
0
0
0
0
0
0
0
0
0
0
1
2
2
2
2
2
4
4
3
3
0
0
0
0
0
0
0
0
0
0
0
0
0
0
0
0
0
0
0
0
0
0
1
2
2
2
2
4
4
3
3
0
0
0
0
0
0
0
0
0
0
0
0
0
0
0
0
0
0
0
0
0
0
1
2
2
2
2
4
4
3
3
0
0
0
0
0
0
0
0
0
0
0
0
0
0
0
0
0
0
0
0
0
0
1
2
2
2
2
4
4
3
3
0
0
0
0
0
0
0
0
0
0
0
0
0
0
0
0
0
0
0
0
0
0
1
2
2
2
2
4
4
3
3
0
0
0
0
0
0
0
0
0
0
0
0
0
0
0
0
0
0
0
0
0
0
1
2
2
2
2
4
4
3
3
0
0
0
0
0
0
0
0
0
0
0
0
0
0
0
0
0
0
0
0
0
0
1
2
2
2
2
4
4
3
3
0
0
0
0
0
0
0
0
0
0
0
0
0
0
0
0
0
0
0
0
0
0
1
2
2
2
2
4
4
3
3
0
0
0
0
0
0
0
0
0
0
0
0
0
0
0
0
0
0
0
0
0
0
1
2
2
2
2
4
4
3
3
0
0
0
0
0
0
0
0
0
0
0
0
0
0
0
0
0
0
0
0
0
0
1
2
2
2
2
4
4
3
3
0
0
0
0
0
0
0
0
0
0
0
0
0
0
0
0
0
0
0
0
0
0
1
2
2
2
2
4
4
3
3
0
0
0
0
0
0
0
0
0
0
0
0
0
0
0
0
0
0
0
0
0
0
1
2
2
2
2
4
4
3
3
0
0
0
0
0
0
0
0
0
0
0
0
0
0
0
0
0
0
0
0
0
0
1
2
2
2
2
4
4
3
3
0
0
0
0
0
0
0
0
0
0
0
0
0
0
0
0
0
0
0
0
0
0
1
2
2
2
2
4
4
3
3
0
0
0
0
0
0
0
0
0
0
0
0
0
0
0
0
0
0
0
0
0
0
1
2
2
2
2
4
4
3
3
0
0
0
0
0
0
0
0
0
0
0
0
0
0
0
0
0
0
0
0
0
0
1
2
2
2
2
4
4
3
3
0
0
0
0
0
0
0
0
0
0
0
0
0
0
0
0
0
0
0
0
0
0
1
2
2
2
2
4
4
3
3
0
0
0
0
0
0
0
0
0
0
0
0
0
0
0
0
0
0
0
0
0
0
1
2
2
2
2
4
4
3
3
0
0
0
0
0
0
0
0
0
0
0
0
0
0
0
0
0
0
0
0
0
0
1
2
2
2
2
4
4
3
3
0
0
0
0
0
0
0
0
0
0
0
0
0
0
0
0
0
0
0
0
0
0
1
2
2
2
2
4
4
3
3
0
0
0
0
0
0
0
0
0
0
0
0
0
0
0
0
0
0
0
0
0
0
1
2
2
2
2
4
4
3
3
0
0
0
0
0
0
0
0
0
0
0
0
0
0
0
0
0
0
0
0
0
0
1
2
2
2
2
4
4
3
3
0
0
0
0
0
0
0
0
0
0
0
0
0
0
0
0
0
0
0
0
0
0
1
2
2
2
2
4
4
3
3
0
0
0
0
0
0
0
0
0
0
0
0
0
0
0
0
0
0
0
0
0
0
1
2
2
2
2
4
4
3
3
0
0
0
0
0
0
0
0
0
0
0
0
0
0
0
0
0
0
0
0
0
0
1
2
2
2
2
4
4
3
3
0
0
0
0
0
0
0
0
0
0
0
0
0
0
0
0
0
0
0
0
0
0
1
2
2
2
2
4
4
3
3
0
0
0
0
0
0
0
0
0
0
0
0
0
0
0
0
0
0
0
0
0
0
1
2
2
2
2
4
4
3
3
0
0
0
0
0
0
0
0
0
0
0
0
0
0
0
0
0
0
0
0
0
0
1
2
2
2
2
4
4
3
3
0
0
0
0
0
0
0
0
0
0
0
0
0
0
0
0
0
0
0
0
0
0
1
2
2
2
2
4
4
3
3
0
0
0
0
0
0
0
0
0
0
0
0
0
0
0
0
0
0
0
0
0
0
1
2
2
2
2
4
4
3
3
0
0
0
0
0
0
0
0
0
0
0
0
0
0
0
0
0
0
0
0
0
0
1
2
2
2
2
4
4
3
3
0
0
0
0
0
0
0
0
0
0
0
0
0
0
0
0
0
0
0
0
0
0
1
2
2
2
2
4
4
3
3
0
0
0
0
0
0
0
0
0
0
0
0
0
0
0
0
0
0
0
0
0
0
1
2
2
2
2
4
4
3
3
0
0
0
0
0
0
0
0
0
0
0
0
0
0
0
0
0
0
0
0
0
0
1
2
2
2
2
4
4
3
3
0
0
0
0
0
0
0
0
0
0
0
0
0
0
0
0
0
0
0
0
0
0
1
2
2
2
2
4
4
3
3
0
0
0
0
0
0
0
0
0
0
0
0
0
0
0
0
0
0
0
0
0
1
2
2
2
2
2
4
4
3
3
0
0
0
0
0
0
0
0
0
0
0
0
0
0
0
0
0
0
0
0
0
1
2
2
2
2
2
4
4
3
3
0
0
0
0
0
0
0
0
0
0
0
0
0
0
0
0
0
0
0
0
0
1
1
2
2
2
2
4
4
3
3
3
3
3
3
3
3
3
3
3
3
3
3
3
3
3
3
3
3
3
3
3
3
3
3
2
2
2
4
4
3
3
3
3
3
3
3
3
3
3
3
3
3
3
3
3
3
3
3
3
3
3
3
3
3
3
2
2
2
4
4
4
4
4
4
4
4
4
4
4
4
4
4
4
4
4
4
4
4
4
4
4
4
4
4
4
4
2
2
2
4
4
4
4
4
4
4
4
4
4
4
4
4
4
4
4
4
4
4
4
4
4
4
4
4
4
4
4
2
2
2
</DataArray>
<DataArray NumberOfComponents='1' type='Float32' Name='Temperature' format='ascii'>
0.000000
0.000000
0.000000
0.000000
0.000000
0.000000
0.000000
0.000000
0.000000
0.000000
0.000000
0.000000
0.000000
0.000000
0.000000
0.000000
0.000000
0.000000
0.000000
0.000000
0.000000
0.000000
0.000000
0.000000
0.000000
0.000000
0.000000
0.000000
-5.000000
-5.000000
-5.000000
0.000000
0.000000
0.000000
0.000000
0.000000
0.000000
0.000000
0.000000
0.000000
0.000000
0.000000
0.000000
0.000000
0.000000
0.000000
0.000000
0.000000
0.000000
0.000000
0.000000
0.000000
0.000000
0.000000
0.000000
0.000000
0.000000
0.000000
0.000000
-5.000000
-5.000000
-5.000000
0.000000
0.000000
0.000000
0.000000
0.000000
0.000000
0.000000
0.000000
0.000000
0.000000
0.000000
0.000000
0.000000
0.000000
0.000000
0.000000
0.000000
0.000000
0.000000
0.000000
0.000000
0.000000
0.000000
0.000000
0.000000
0.000000
0.000000
0.000000
-5.000000
-5.000000
-5.000000
0.000000
0.000000
0.000000
0.000000
0.000000
0.000000
0.000000
0.000000
0.000000
0.000000
0.000000
0.000000
0.000000
0.000000
0.000000
0.000000
0.000000
0.000000
0.000000
0.000000
0.000000
0.000000
0.000000
0.000000
0.000000
0.000000
0.000000
0.000000
-5.000000
-5.000000
-5.000000
0.000000
0.000000
0.000000
0.000000
0.139903
0.250493
0.361911
0.466922
0.564733
0.653488
0.731586
0.797482
0.849759
0.887158
0.908609
0.913264
0.900524
0.870057
0.821807
0.755974
0.672968
0.573216
0.456784
0.323058
0.161835
0.009670
-0.009067
-2.247355
-5.000000
-5.000000
-5.000000
0.000000
0.000000
0.000000
0.000000
0.253072
0.452811
0.654271
0.844128
1.020994
1.181511
1.322780
1.442011
1.536642
1.604395
1.643338
1.651941
1.629131
1.574319
1.487428
1.368871
1.219475
1.040207
0.831664
0.591225
0.308339
0.009869
-1.129012
-2.593684
-5.000000
-5.000000
-5.000000
0.000000
0.000000
0.000000
0.000000
0.371481
0.664726
0.960489
1.239262
1.499005
1.734790
1.942366
2.117633
2.256829
2.356610
2.414143
2.427189
2.394184
2.314295
2.187455
2.014357
1.796398
1.535376
1.233157
0.888417
0.496545
0.009920
-1.140520
-2.676645
-5.000000
-5.000000
-5.000000
0.000000
0.000000
0.000000
0.000000
0.489859
0.876567
1.266643
1.634374
1.977081
2.288272
2.562342
2.793881
2.977927
3.110069
3.186571
3.204495
3.161799
3.057423
2.891346
2.664608
2.379293
2.038302
1.645413
1.201690
0.719073
0.109368
-0.007007
-2.588346
-5.000000
-5.000000
-5.000000
0.000000
0.000000
0.000000
0.000000
0.609140
1.090051
1.575214
2.032681
2.459134
2.846510
3.187839
3.476392
3.705993
3.871155
3.967235
3.990592
3.938713
3.810323
3.605474
3.325596
2.973530
2.553403
2.071047
1.530483
0.954023
0.265638
-0.004259
-2.502880
-5.000000
-5.000000
-5.000000
0.000000
0.000000
0.000000
0.000000
0.728999
1.304588
1.885355
2.433097
2.943865
3.408019
3.817220
4.163410
4.439193
4.637995
4.754265
4.783656
4.723187
4.571377
4.328360
3.995964
3.577797
3.079203
2.507837
1.870541
1.192571
0.407461
-0.001838
-2.457648
-5.000000
-5.000000
-5.000000
0.000000
0.000000
0.000000
0.000000
0.849087
1.519559
2.196174
2.834477
3.429893
3.971209
4.448714
4.853017
5.175497
5.408490
5.545533
5.581573
5.513163
5.338614
5.058134
4.673933
4.190341
3.613822
2.953591
2.218764
1.435872
0.546736
0.001162
-2.436252
-5.000000
-5.000000
-5.000000
0.000000
0.000000
0.000000
0.000000
0.968805
1.733888
2.506115
3.234809
3.914784
4.533260
5.079162
5.541767
5.911229
6.178798
6.337100
6.380380
6.304724
6.108231
5.791166
5.356076
4.807936
4.154203
3.405423
2.572655
1.683462
0.688146
0.003095
-2.418028
-5.000000
-5.000000
-5.000000
0.000000
0.000000
0.000000
0.000000
1.087327
1.946099
2.813039
3.631330
4.395185
5.090280
5.704187
6.224867
6.641259
6.943536
7.123422
7.174471
7.092304
6.874804
6.522266
6.037522
5.426096
4.696286
3.859778
2.929359
1.933451
0.830936
0.004907
-2.400701
-5.000000
-5.000000
-5.000000
0.000000
0.000000
0.000000
0.000000
1.203607
2.154314
3.114231
4.020523
4.866824
5.637299
6.318197
6.896185
7.359008
7.695786
7.897359
7.956606
7.868698
7.631295
7.244700
6.711971
6.039073
5.234992
4.312349
3.285457
2.183455
0.973819
0.006078
-2.383687
-5.000000
-5.000000
-5.000000
0.000000
0.000000
0.000000
0.000000
1.316397
2.356298
3.406448
4.398189
5.324598
6.168380
6.914502
7.548374
8.056589
8.427241
8.650323
8.718065
8.625205
8.369189
7.950308
7.371790
6.639932
5.764238
4.758053
3.636987
2.430728
1.115288
0.007439
-2.366985
-5.000000
-5.000000
-5.000000
0.000000
0.000000
0.000000
0.000000
1.424282
2.549512
3.686011
4.759559
5.762711
6.676776
7.485494
8.173079
8.725019
9.128434
9.372514
9.448877
9.351860
9.078711
8.629697
8.008167
7.220649
6.276994
5.191033
3.979405
2.672143
1.253582
0.008150
-2.350781
-5.000000
-5.000000
-5.000000
0.000000
0.000000
0.000000
0.000000
1.525722
2.731197
3.948921
5.099454
6.174862
7.155146
8.022897
8.761204
9.354517
9.789049
10.053239
10.138148
10.037751
9.749121
9.272504
8.611336
7.772283
6.765377
5.604689
4.307577
2.904158
1.386735
0.008839
-2.335278
-5.000000
-5.000000
-5.000000
0.000000
0.000000
0.000000
0.000000
1.619113
2.898475
4.191005
5.412465
6.554472
7.595831
8.518071
9.303247
9.934861
10.398293
10.681304
10.774455
10.671406
10.369090
9.867745
9.170870
8.285198
7.220800
5.991748
4.615783
3.122801
1.512517
0.009234
-2.320730
-5.000000
-5.000000
-5.000000
0.000000
0.000000
0.000000
0.000000
1.702845
3.048461
4.408081
5.693171
6.894950
7.991148
8.962348
9.789680
10.455795
10.945334
11.245460
11.346298
11.241250
10.927143
10.404225
9.676051
8.749378
7.634201
6.344397
4.897763
3.323654
1.628434
0.009418
-2.307402
-5.000000
-5.000000
-5.000000
0.000000
0.000000
0.000000
0.000000
1.775375
3.178384
4.596132
5.936364
7.189960
8.333718
9.347404
10.211345
10.907461
11.419754
11.734879
11.842598
11.736101
11.412148
10.871015
10.116317
9.154812
7.996358
6.654502
5.146837
3.501890
1.731715
0.009584
-2.295591
-5.000000
-5.000000
-5.000000
0.000000
0.000000
0.000000
0.000000
1.835286
3.285707
4.751481
6.137280
7.433705
8.616787
9.665617
10.559860
11.280832
11.812012
12.139638
12.253181
12.145672
11.813826
11.257964
10.481763
9.491980
8.298326
6.913972
5.356149
3.652396
1.819334
0.009743
-2.285619
-5.000000
-5.000000
-5.000000
0.000000
0.000000
0.000000
0.000000
1.881360
3.368245
4.870957
6.291809
7.621187
8.834533
9.910417
10.827997
11.568123
12.113876
12.451172
12.569263
12.461060
12.123256
11.556214
10.763672
9.752396
8.531980
7.115262
5.519097
3.770060
1.888152
0.009824
-2.277827
-5.000000
-5.000000
-5.000000
0.000000
0.000000
0.000000
0.000000
1.912628
3.424260
4.952043
6.396688
7.748435
8.982329
10.076584
11.010015
11.763154
12.318809
12.662677
12.783859
12.675184
12.333328
11.758683
10.955038
9.929176
8.690626
7.252023
5.629957
3.850287
1.935220
0.009864
-2.272520
-5.000000
-5.000000
-5.000000
0.000000
0.000000
0.000000
0.000000
1.928418
3.452547
4.992991
6.449652
7.812697
9.056967
10.160500
11.101933
11.861637
12.422277
12.769438
12.892132
12.783141
12.439120
11.860471
11.051007
10.017534
8.769590
7.319765
5.684598
3.889665
1.958261
0.009882
-2.269923
-5.000000
-5.000000
-5.000000
0.000000
0.000000
0.000000
0.000000
1.928386
3.452491
4.992908
6.449544
7.812563
9.056808
10.160314
11.101717
11.861383
12.421971
12.769052
12.891625
12.782449
12.438159
11.859137
11.049192
10.015157
8.766645
7.316383
5.681100
3.886600
1.956193
0.009840
-2.270140
-5.000000
-5.000000
-5.000000
0.000000
0.000000
0.000000
0.000000
1.912535
3.424092
4.951798
6.396368
7.748040
8.981858
10.076035
11.009377
11.762407
12.317907
12.661547
12.782379
12.673174
12.330544
11.754831
10.949814
9.922354
8.682201
7.242382
5.620026
3.841625
1.929407
0.009853
-2.273132
-5.000000
-5.000000
-5.000000
0.000000
0.000000
0.000000
0.000000
1.881209
3.367973
4.870560
6.291290
7.620546
8.833770
9.909529
10.826969
11.566922
12.112435
12.449378
12.566929
12.457914
12.118930
11.550265
10.755652
9.741987
8.519203
7.100739
5.504249
3.757213
1.879609
0.009817
-2.278739
-5.000000
-5.000000
-5.000000
0.000000
0.000000
0.000000
0.000000
1.835083
3.285342
4.750947
6.136582
7.432844
8.615765
9.664429
10.558489
11.279238
11.810117
12.137301
12.250175
12.141663
11.808369
11.250529
10.471827
9.479193
8.282769
6.896454
5.338418
3.637215
1.809347
0.009719
-2.286708
-5.000000
-5.000000
-5.000000
0.000000
0.000000
0.000000
0.000000
1.775127
3.177938
4.595482
5.935514
7.188912
8.332476
9.345965
10.209692
10.905554
11.417509
11.732145
11.839132
11.731547
11.406032
10.862784
10.105442
9.140968
7.979698
6.635953
5.128281
3.486185
1.721490
0.009529
-2.296735
-5.000000
-5.000000
-5.000000
0.000000
0.000000
0.000000
0.000000
1.702562
3.047951
4.407338
5.692199
6.893755
7.989734
8.960715
9.787815
10.453662
10.942853
11.242485
11.342594
11.236470
10.920831
10.395859
9.665149
8.735678
7.617921
6.326497
4.880080
3.308858
1.618891
0.009397
-2.308504
-5.000000
-5.000000
-5.000000
0.000000
0.000000
0.000000
0.000000
1.618804
2.897919
4.190194
5.411406
6.553172
7.594296
8.516305
9.301243
9.932590
10.395688
10.678237
10.770714
10.666681
10.362979
9.859793
9.160673
8.272573
7.206004
5.975695
4.600122
3.109839
1.504218
0.009062
-2.321721
-5.000000
-5.000000
-5.000000
0.000000
0.000000
0.000000
0.000000
1.525398
2.730613
3.948070
5.098344
6.173500
7.153543
8.021060
8.759132
9.352193
9.786422
10.050207
10.134537
10.033304
9.743506
9.265354
8.602338
7.761324
6.752723
5.591147
4.294530
2.893470
1.379941
0.008698
-2.336112
-5.000000
-5.000000
-5.000000
0.000000
0.000000
0.000000
0.000000
1.423952
2.548918
3.685146
4.758432
5.761329
6.675153
7.483641
8.171005
8.722716
9.125872
9.369619
9.445518
9.347840
9.073775
8.623568
8.000619
7.211624
6.266739
5.180211
3.969105
2.663791
1.248318
0.008104
-2.351431
-5.000000
-5.000000
-5.000000
0.000000
0.000000
0.000000
0.000000
1.316071
2.355711
3.405593
4.397075
5.323235
6.166783
6.912686
7.546354
8.054369
8.424809
8.647635
8.715032
8.621689
8.365009
7.945267
7.365736
6.632843
5.756322
4.749821
3.629249
2.424521
1.111414
0.007334
-2.367457
-5.000000
-5.000000
-5.000000
0.000000
0.000000
0.000000
0.000000
1.203293
2.153749
3.113408
4.019451
4.865514
5.635767
6.316461
6.894265
7.356920
7.693532
7.894922
7.953935
7.865705
7.627863
7.240700
6.707307
6.033744
5.229157
4.306377
3.279917
2.179057
0.971110
0.006463
-2.384005
-5.000000
-5.000000
-5.000000
0.000000
0.000000
0.000000
0.000000
1.087031
1.945567
2.812265
3.630323
4.393955
5.088844
5.702566
6.223084
6.639337
6.941490
7.121255
7.172163
7.089810
6.872055
6.519185
6.034055
5.422248
4.692171
3.855646
2.925583
1.930490
0.829118
0.004694
-2.400932
-5.000000
-5.000000
-5.000000
0.000000
0.000000
0.000000
0.000000
0.968533
1.733399
2.505404
3.233884
3.913656
4.531945
5.077681
5.540146
5.909495
6.176975
6.335205
6.378417
6.302677
6.106069
5.788848
5.353575
4.805260
4.151428
3.402710
2.570237
1.681612
0.687046
0.003084
-2.418180
-5.000000
-5.000000
-5.000000
0.000000
0.000000
0.000000
0.000000
0.848844
1.519121
2.195536
2.833647
3.428882
3.970031
4.447391
4.851574
5.173963
5.406895
5.543902
5.579924
5.511501
5.336932
5.056418
4.672171
4.188544
3.612042
2.951934
2.217376
1.434906
0.546252
0.001165
-2.436401
-5.000000
-5.000000
-5.000000
0.000000
0.000000
0.000000
0.000000
0.728785
1.304204
1.884797
2.432372
2.942981
3.406990
3.816066
4.162154
4.437864
4.636625
4.752883
4.782287
4.721849
4.570077
4.327099
3.994742
3.576630
3.078137
2.506967
1.869991
1.192419
0.407614
-0.001093
-2.458094
-5.000000
-5.000000
-5.000000
0.000000
0.000000
0.000000
0.000000
0.608959
1.089724
1.574739
2.032063
2.458382
2.845635
3.186859
3.475328
3.704872
3.870005
3.966087
3.989473
3.937645
3.809322
3.604549
3.324756
2.972798
2.552844
2.070796
1.530729
0.954586
0.265772
-0.003761
-2.505129
-5.000000
-5.000000
-5.000000
0.000000
0.000000
0.000000
0.000000
0.489710
0.876299
1.266254
1.633868
1.976465
2.287555
2.561539
2.793010
2.977011
3.109133
3.185643
3.203600
3.160961
3.056659
2.890669
2.664033
2.378855
2.038095
1.645668
1.202708
0.720274
0.109643
-0.006832
-2.594063
-5.000000
-5.000000
-5.000000
0.000000
0.000000
0.000000
0.000000
0.371365
0.664518
0.960187
1.238869
1.498526
1.734233
1.941742
2.116956
2.256118
2.355886
2.413426
2.426502
2.393548
2.313726
2.186966
2.013966
1.796149
1.535392
1.233755
0.889900
0.498655
0.009946
-1.160321
-2.686187
-5.000000
-5.000000
-5.000000
0.000000
0.000000
0.000000
0.000000
0.252991
0.452665
0.654058
0.843852
1.020658
1.181119
1.322342
1.441536
1.536142
1.603885
1.642834
1.651460
1.628687
1.573925
1.487096
1.368616
1.219341
1.040313
0.832336
0.592870
0.310907
0.009887
-1.138403
-2.601619
-5.000000
-5.000000
-5.000000
0.000000
0.000000
0.000000
0.000000
0.139856
0.250409
0.361788
0.466763
0.564538
0.653262
0.731332
0.797206
0.849470
0.886862
0.908316
0.912984
0.900266
0.869828
0.821614
0.755829
0.672900
0.573307
0.457260
0.324113
0.163895
0.009694
-0.009324
-2.251326
-5.000000
-5.000000
-5.000000
0.000000
0.000000
0.000000
0.000000
0.000000
0.000000
0.000000
0.000000
0.000000
0.000000
0.000000
0.000000
0.000000
0.000000
0.000000
0.000000
0.000000
0.000000
0.000000
0.000000
0.000000
0.000000
0.000000
0.000000
0.000000
0.000000
0.000000
0.000000
-5.000000
-5.000000
-5.000000
0.000000
0.000000
0.000000
0.000000
0.000000
0.000000
0.000000
0.000000
0.000000
0.000000
0.000000
0.000000
0.000000
0.000000
0.000000
0.000000
0.000000
0.000000
0.000000
0.000000
0.000000
0.000000
0.000000
0.000000
0.000000
0.000000
0.000000
0.000000
-5.000000
-5.000000
-5.000000
0.000000
0.000000
0.000000
0.000000
0.000000
0.000000
0.000000
0.000000
0.000000
0.000000
0.000000
0.000000
0.000000
0.000000
0.000000
0.000000
0.000000
0.000000
0.000000
0.000000
0.000000
0.000000
0.000000
0.000000
0.000000
0.000000
0.000000
0.000000
-5.000000
-5.000000
-5.000000
0.000000
0.000000
0.000000
0.000000
0.000000
0.000000
0.000000
0.000000
0.000000
0.000000
0.000000
0.000000
0.000000
0.000000
0.000000
0.000000
0.000000
0.000000
0.000000
0.000000
0.000000
0.000000
0.000000
0.000000
0.000000
0.000000
0.000000
0.000000
-5.000000
-5.000000
-5.000000
</DataArray>
</PointData>
<Cells>
<DataArray type='Int32' Name='connectivity' format='ascii'>
0
1
2
3
4
5
6
7
8
9
10
11
12
13
14
15
16
17
18
19
20
21
22
23
24
25
26
27
28
29
30
31
32
33
34
35
36
37
38
39
40
41
42
43
44
45
46
47
48
49
50
51
52
53
54
55
56
57
58
59
60
61
62
63
64
65
66
67
68
69
70
71
72
73
74
75
76
77
78
79
80
81
82
83
84
85
86
87
88
89
90
91
92
93
94
95
96
97
98
99
100
101
102
103
104
105
106
107
108
109
110
111
112
113
114
115
116
117
118
119
120
121
122
123
124
125
126
127
128
129
130
131
132
133
134
135
136
137
138
139
140
141
142
143
144
145
146
147
148
149
150
151
152
153
154
155
156
157
158
159
160
161
162
163
164
165
166
167
168
169
170
171
172
173
174
175
176
177
178
179
180
181
182
183
184
185
186
187
188
189
190
191
192
193
194
195
196
197
198
199
200
201
202
203
204
205
206
207
208
209
210
211
212
213
214
215
216
217
218
219
220
221
222
223
224
225
226
227
228
229
230
231
232
233
234
235
236
237
238
239
240
241
242
243
244
245
246
247
248
249
250
251
252
253
254
255
256
257
258
259
260
261
262
263
264
265
266
267
268
269
270
271
272
273
274
275
276
277
278
279
280
281
282
283
284
285
286
287
288
289
290
291
292
293
294
295
296
297
298
299
300
301
302
303
304
305
306
307
308
309
310
311
312
313
314
315
316
317
318
319
320
321
322
323
324
325
326
327
328
329
330
331
332
333
334
335
336
337
338
339
340
341
342
343
344
345
346
347
348
349
350
351
352
353
354
355
356
357
358
359
360
361
362
363
364
365
366
367
368
369
370
371
372
373
374
375
376
377
378
379
380
381
382
383
384
385
386
387
388
389
390
391
392
393
394
395
396
397
398
399
400
401
402
403
404
405
406
407
408
409
410
411
412
413
414
415
416
417
418
419
420
421
422
423
424
425
426
427
428
429
430
431
432
433
434
435
436
437
438
439
440
441
442
443
444
445
446
447
448
449
450
451
452
453
454
455
456
457
458
459
460
461
462
463
464
465
466
467
468
469
470
471
472
473
474
475
476
477
478
479
480
481
482
483
484
485
486
487
488
489
490
491
492
493
494
495
496
497
498
499
500
501
502
503
504
505
506
507
508
509
510
511
512
513
514
515
516
517
518
519
520
521
522
523
524
525
526
527
528
529
530
531
532
533
534
535
536
537
538
539
540
541
542
543
544
545
546
547
548
549
550
551
552
553
554
555
556
557
558
559
560
561
562
563
564
565
566
567
568
569
570
571
572
573
574
575
576
577
578
579
580
581
582
583
584
585
586
587
588
589
590
591
592
593
594
595
596
597
598
599
600
601
602
603
604
605
606
607
608
609
610
611
612
613
614
615
616
617
618
619
620
621
622
623
624
625
626
627
628
629
630
631
632
633
634
635
636
637
638
639
640
641
642
643
644
645
646
647
648
649
650
651
652
653
654
655
656
657
658
659
660
661
662
663
664
665
666
667
668
669
670
671
672
673
674
675
676
677
678
679
680
681
682
683
684
685
686
687
688
689
690
691
692
693
694
695
696
697
698
699
700
701
702
703
704
705
706
707
708
709
710
711
712
713
714
715
716
717
718
719
720
721
722
723
724
725
726
727
728
729
730
731
732
733
734
735
736
737
738
739
740
741
742
743
744
745
746
747
748
749
750
751
752
753
754
755
756
757
758
759
760
761
762
763
764
765
766
767
768
769
770
771
772
773
774
775
776
777
778
779
780
781
782