<?xml version='1.0' encoding='UTF-8'?>
<VTKFile xmlns='VTK' byte_order='LittleEndian' version='0.1' type='UnstructuredGrid'>
<UnstructuredGrid>
<Piece NumberOfCells='1488' NumberOfPoints='1488'>
<Points>
<DataArray NumberOfComponents='3' type='Float32' Name='Position' format='ascii'>
-0.075000 -0.075000 0.000000
-0.075000 -0.050000 0.000000
-0.075000 -0.025000 0.000000
-0.075000 0.000000 0.000000
-0.075000 0.025000 0.000000
-0.075000 0.050000 0.000000
-0.075000 0.075000 0.000000
-0.075000 0.100000 0.000000
-0.075000 0.125000 0.000000
-0.075000 0.150000 0.000000
-0.075000 0.175000 0.000000
-0.075000 0.200000 0.000000
-0.075000 0.225000 0.000000
-0.075000 0.250000 0.000000
-0.075000 0.275000 0.000000
-0.075000 0.300000 0.000000
-0.075000 0.325000 0.000000
-0.075000 0.350000 0.000000
-0.075000 0.375000 0.000000
-0.075000 0.400000 0.000000
-0.075000 0.425000 0.000000
-0.075000 0.450000 0.000000
-0.075000 0.475000 0.000000
-0.075000 0.500000 0.000000
-0.075000 0.525000 0.000000
-0.075000 0.550000 0.000000
-0.075000 0.575000 0.000000
-0.075000 0.600000 0.000000
-0.075000 0.625000 0.000000
-0.075000 0.650000 0.000000
-0.075000 0.675000 0.000000
-0.050000 -0.075000 0.000000
-0.050000 -0.050000 0.000000
-0.050000 -0.025000 0.000000
-0.050000 0.000000 0.000000
-0.050000 0.025000 0.000000
-0.050000 0.050000 0.000000
-0.050000 0.075000 0.000000
-0.050000 0.100000 0.000000
-0.050000 0.125000 0.000000
-0.050000 0.150000 0.000000
-0.050000 0.175000 0.000000
-0.050000 0.200000 0.000000
-0.050000 0.225000 0.000000
-0.050000 0.250000 0.000000
-0.050000 0.275000 0.000000
-0.050000 0.300000 0.000000
-0.050000 0.325000 0.000000
-0.050000 0.350000 0.000000
-0.050000 0.375000 0.000000
-0.050000 0.400000 0.000000
-0.050000 0.425000 0.000000
-0.050000 0.450000 0.000000
-0.050000 0.475000 0.000000
-0.050000 0.500000 0.000000
-0.050000 0.525000 0.000000
-0.050000 0.550000 0.000000
-0.050000 0.575000 0.000000
-0.050000 0.600000 0.000000
-0.050000 0.625000 0.000000
-0.050000 0.650000 0.000000
-0.050000 0.675000 0.000000
-0.025000 -0.075000 0.000000
-0.025000 -0.050000 0.000000
-0.025000 -0.025000 0.000000
-0.025000 0.000000 0.000000
-0.025000 0.025000 0.000000
-0.025000 0.050000 0.000000
-0.025000 0.075000 0.000000
-0.025000 0.100000 0.000000
-0.025000 0.125000 0.000000
-0.025000 0.150000 0.000000
-0.025000 0.175000 0.000000
-0.025000 0.200000 0.000000
-0.025000 0.225000 0.000000
-0.025000 0.250000 0.000000
-0.025000 0.275000 0.000000
-0.025000 0.300000 0.000000
-0.025000 0.325000 0.000000
-0.025000 0.350000 0.000000
-0.025000 0.375000 0.000000
-0.025000 0.400000 0.000000
-0.025000 0.425000 0.000000
-0.025000 0.450000 0.000000
-0.025000 0.475000 0.000000
-0.025000 0.500000 0.000000
-0.025000 0.525000 0.000000
-0.025000 0.550000 0.000000
-0.025000 0.575000 0.000000
-0.025000 0.600000 0.000000
-0.025000 0.625000 0.000000
-0.025000 0.650000 0.000000
-0.025000 0.675000 0.000000
0.000000 -0.075000 0.000000
0.000000 -0.050000 0.000000
0.000000 -0.025000 0.000000
0.000000 0.000000 0.000000
0.000000 0.025000 0.000000
0.000000 0.050000 0.000000
0.000000 0.075000 0.000000
0.000000 0.100000 0.000000
0.000000 0.125000 0.000000
0.000000 0.150000 0.000000
0.000000 0.175000 0.000000
0.000000 0.200000 0.000000
0.000000 0.225000 0.000000
0.000000 0.250000 0.000000
0.000000 0.275000 0.000000
0.000000 0.300000 0.000000
0.000000 0.325000 0.000000
0.000000 0.350000 0.000000
0.000000 0.375000 0.000000
0.000000 0.400000 0.000000
0.000000 0.425000 0.000000
0.000000 0.450000 0.000000
0.000000 0.475000 0.000000
0.000000 0.500000 0.000000
0.000000 0.525000 0.000000
0.000000 0.550000 0.000000
0.000000 0.575000 0.000000
0.000000 0.600000 0.000000
0.000000 0.625000 0.000000
0.000000 0.650000 0.000000
0.000000 0.675000 0.000000
0.025000 -0.075000 0.000000
0.025000 -0.050000 0.000000
0.025000 -0.025000 0.000000
0.025000 0.000000 0.000000
0.025000 0.025000 0.000000
0.025000 0.050000 0.000000
0.025000 0.075000 0.000000
0.025000 0.100000 0.000000
0.025000 0.125000 0.000000
0.025000 0.150000 0.000000
0.025000 0.175000 0.000000
0.025000 0.200000 0.000000
0.025000 0.225000 0.000000
0.025000 0.250000 0.000000
0.025000 0.275000 0.000000
0.025000 0.300000 0.000000
0.025000 0.325000 0.000000
0.025000 0.350000 0.000000
0.025000 0.375000 0.000000
0.025000 0.400000 0.000000
0.025000 0.425000 0.000000
0.025000 0.450000 0.000000
0.025000 0.475000 0.000000
0.025000 0.500000 0.000000
0.025000 0.525000 0.000000
0.025000 0.550000 0.000000
0.025000 0.575000 0.000000
0.025000 0.600000 0.000000
0.025000 0.625000 0.000000
0.025000 0.650000 0.000000
0.025000 0.675000 0.000000
0.050000 -0.075000 0.000000
0.050000 -0.050000 0.000000
0.050000 -0.025000 0.000000
0.050000 0.000000 0.000000
0.050000 0.025000 0.000000
0.050000 0.050000 0.000000
0.050000 0.075000 0.000000
0.050000 0.100000 0.000000
0.050000 0.125000 0.000000
0.050000 0.150000 0.000000
0.050000 0.175000 0.000000
0.050000 0.200000 0.000000
0.050000 0.225000 0.000000
0.050000 0.250000 0.000000
0.050000 0.275000 0.000000
0.050000 0.300000 0.000000
0.050000 0.325000 0.000000
0.050000 0.350000 0.000000
0.050000 0.375000 0.000000
0.050000 0.400000 0.000000
0.050000 0.425000 0.000000
0.050000 0.450000 0.000000
0.050000 0.475000 0.000000
0.050000 0.500000 0.000000
0.050000 0.525000 0.000000
0.050000 0.550000 0.000000
0.050000 0.575000 0.000000
0.050000 0.600000 0.000000
0.050000 0.625000 0.000000
0.050000 0.650000 0.000000
0.050000 0.675000 0.000000
0.075000 -0.075000 0.000000
0.075000 -0.050000 0.000000
0.075000 -0.025000 0.000000
0.075000 0.000000 0.000000
0.075000 0.025000 0.000000
0.075000 0.050000 0.000000
0.075000 0.075000 0.000000
0.075000 0.100000 0.000000
0.075000 0.125000 0.000000
0.075000 0.150000 0.000000
0.075000 0.175000 0.000000
0.075000 0.200000 0.000000
0.075000 0.225000 0.000000
0.075000 0.250000 0.000000
0.075000 0.275000 0.000000
0.075000 0.300000 0.000000
0.075000 0.325000 0.000000
0.075000 0.350000 0.000000
0.075000 0.375000 0.000000
0.075000 0.400000 0.000000
0.075000 0.425000 0.000000
0.075000 0.450000 0.000000
0.075000 0.475000 0.000000
0.075000 0.500000 0.000000
0.075000 0.525000 0.000000
0.075000 0.550000 0.000000
0.075000 0.575000 0.000000
0.075000 0.600000 0.000000
0.075000 0.625000 0.000000
0.075000 0.650000 0.000000
0.075000 0.675000 0.000000
0.100000 -0.075000 0.000000
0.100000 -0.050000 0.000000
0.100000 -0.025000 0.000000
0.100000 0.000000 0.000000
0.100000 0.025000 0.000000
0.100000 0.050000 0.000000
0.100000 0.075000 0.000000
0.100000 0.100000 0.000000
0.100000 0.125000 0.000000
0.100000 0.150000 0.000000
0.100000 0.175000 0.000000
0.100000 0.200000 0.000000
0.100000 0.225000 0.000000
0.100000 0.250000 0.000000
0.100000 0.275000 0.000000
0.100000 0.300000 0.000000
0.100000 0.325000 0.000000
0.100000 0.350000 0.000000
0.100000 0.375000 0.000000
0.100000 0.400000 0.000000
0.100000 0.425000 0.000000
0.100000 0.450000 0.000000
0.100000 0.475000 0.000000
0.100000 0.500000 0.000000
0.100000 0.525000 0.000000
0.100000 0.550000 0.000000
0.100000 0.575000 0.000000
0.100000 0.600000 0.000000
0.100000 0.625000 0.000000
0.100000 0.650000 0.000000
0.100000 0.675000 0.000000
0.125000 -0.075000 0.000000
0.125000 -0.050000 0.000000
0.125000 -0.025000 0.000000
0.125000 0.000000 0.000000
0.125000 0.025000 0.000000
0.125000 0.050000 0.000000
0.125000 0.075000 0.000000
0.125000 0.100000 0.000000
0.125000 0.125000 0.000000
0.125000 0.150000 0.000000
0.125000 0.175000 0.000000
0.125000 0.200000 0.000000
0.125000 0.225000 0.000000
0.125000 0.250000 0.000000
0.125000 0.275000 0.000000
0.125000 0.300000 0.000000
0.125000 0.325000 0.000000
0.125000 0.350000 0.000000
0.125000 0.375000 0.000000
0.125000 0.400000 0.000000
0.125000 0.425000 0.000000
0.125000 0.450000 0.000000
0.125000 0.475000 0.000000
0.125000 0.500000 0.000000
0.125000 0.525000 0.000000
0.125000 0.550000 0.000000
0.125000 0.575000 0.000000
0.125000 0.600000 0.000000
0.125000 0.625000 0.000000
0.125000 0.650000 0.000000
0.125000 0.675000 0.000000
0.150000 -0.075000 0.000000
0.150000 -0.050000 0.000000
0.150000 -0.025000 0.000000
0.150000 0.000000 0.000000
0.150000 0.025000 0.000000
0.150000 0.050000 0.000000
0.150000 0.075000 0.000000
0.150000 0.100000 0.000000
0.150000 0.125000 0.000000
0.150000 0.150000 0.000000
0.150000 0.175000 0.000000
0.150000 0.200000 0.000000
0.150000 0.225000 0.000000
0.150000 0.250000 0.000000
0.150000 0.275000 0.000000
0.150000 0.300000 0.000000
0.150000 0.325000 0.000000
0.150000 0.350000 0.000000
0.150000 0.375000 0.000000
0.150000 0.400000 0.000000
0.150000 0.425000 0.000000
0.150000 0.450000 0.000000
0.150000 0.475000 0.000000
0.150000 0.500000 0.000000
0.150000 0.525000 0.000000
0.150000 0.550000 0.000000
0.150000 0.575000 0.000000
0.150000 0.600000 0.000000
0.150000 0.625000 0.000000
0.150000 0.650000 0.000000
0.150000 0.675000 0.000000
0.175000 -0.075000 0.000000
0.175000 -0.050000 0.000000
0.175000 -0.025000 0.000000
0.175000 0.000000 0.000000
0.175000 0.025000 0.000000
0.175000 0.050000 0.000000
0.175000 0.075000 0.000000
0.175000 0.100000 0.000000
0.175000 0.125000 0.000000
0.175000 0.150000 0.000000
0.175000 0.175000 0.000000
0.175000 0.200000 0.000000
0.175000 0.225000 0.000000
0.175000 0.250000 0.000000
0.175000 0.275000 0.000000
0.175000 0.300000 0.000000
0.175000 0.325000 0.000000
0.175000 0.350000 0.000000
0.175000 0.375000 0.000000
0.175000 0.400000 0.000000
0.175000 0.425000 0.000000
0.175000 0.450000 0.000000
0.175000 0.475000 0.000000
0.175000 0.500000 0.000000
0.175000 0.525000 0.000000
0.175000 0.550000 0.000000
0.175000 0.575000 0.000000
0.175000 0.600000 0.000000
0.175000 0.625000 0.000000
0.175000 0.650000 0.000000
0.175000 0.675000 0.000000
0.200000 -0.075000 0.000000
0.200000 -0.050000 0.000000
0.200000 -0.025000 0.000000
0.200000 0.000000 0.000000
0.200000 0.025000 0.000000
0.200000 0.050000 0.000000
0.200000 0.075000 0.000000
0.200000 0.100000 0.000000
0.200000 0.125000 0.000000
0.200000 0.150000 0.000000
0.200000 0.175000 0.000000
0.200000 0.200000 0.000000
0.200000 0.225000 0.000000
0.200000 0.250000 0.000000
[...]
<PointData>
<DataArray NumberOfComponents='1' type='Int32' Name='ParticleType' format='ascii'>
4
4
4
4
4
4
4
4
4
4
4
4
4
4
4
4
4
4
4
4
4
4
4
4
4
4
4
4
2
2
2
4
4
4
4
4
4
4
4
4
4
4
4
4
4
4
4
4
4
4
4
4
4
4
4
4
4
4
4
2
2
2
4
4
3
3
3
3
3
3
3
3
3
3
3
3
3
3
3
3
3
3
3
3
3
3
3
3
3
3
2
2
2
4
4
3
3
3
3
3
3
3
3
3
3
3
3
3
3
3
3
3
3
3
3
3
3
3
3
3
3
2
2
2
4
4
3
3
0
0
0
0
0
0
0
0
0
0
0
0
0
0
0
0
0
0
0
0
0
1
1
2
2
2
2
4
4
3
3
0
0
0
0
0
0
0
0
0
0
0
0
0
0
0
0
0
0
0
0
0
1
1
2
2
2
2
4
4
3
3
0
0
0
0
0
0
0
0
0
0
0
0
0
0
0
0
0
0
0
0
0
0
1
2
2
2
2
4
4
3
3
0
0
0
0
0
0
0
0
0
0
0
0
0
0
0
0
0
0
0
0
0
0
1
2
2
2
2
4
4
3
3
0
0
0
0
0
0
0
0
0
0
0
0
0
0
0
0
0
0
0
0
0
0
1
2
2
2
2
4
4
3
3
0
0
0
0
0
0
0
0
0
0
0
0
0
0
0
0
0
0
0
0
0
0
1
2
2
2
2
4
4
3
3
0
0
0
0
0
0
0
0
0
0
0
0
0
0
0
0
0
0
0
0
0
0
1
2
2
2
2
4
4
3
3
0
0
0
0
0
0
0
0
0
0
0
0
0
0
0
0
0
0
0
0
0
0
1
2
2
2
2
4
4
3
3
0
0
0
0
0
0
0
0
0
0
0
0
0
0
0
0
0
0
0
0
0
0
1
2
2
2
2
4
4
3
3
0
0
0
0
0
0
0
0
0
0
0
0
0
0
0
0
0
0
0
0
0
0
1
2
2
2
2
4
4
3
3
0
0
0
0
0
0
0
0
0
0
0
0
0
0
0
0
0
0
0
0
0
0
1
2
2
2
2
4
4
3
3
0
0
0
0
0
0
0
0
0
0
0
0
0
0
0
0
0
0
0
0
0
0
1
2
2
2
2
4
4
3
3
0
0
0
0
0
0
0
0
0
0
0
0
0
0
0
0
0
0
0
0
0
0
1
2
2
2
2
4
4
3
3
0
0
0
0
0
0
0
0
0
0
0
0
0
0
0
0
0
0
0
0
0
0
1
2
2
2
2
4
4
3
3
0
0
0
0
0
0
0
0
0
0
0
0
0
0
0
0
0
0
0
0
0
0
1
2
2
2
2
4
4
3
3
0
0
0
0
0
0
0
0
0
0
0
0
0
0
0
0
0
0
0
0
0
0
1
2
2
2
2
4
4
3
3
0
0
0
0
0
0
0
0
0
0
0
0
0
0
0
0
0
0
0
0
0
0
0
2
2
2
2
4
4
3
3
0
0
0
0
0
0
0
0
0
0
0
0
0
0
0
0
0
0
0
0
0
0
0
2
2
2
2
4
4
3
3
0
0
0
0
0
0
0
0
0
0
0
0
0
0
0
0
0
0
0
0
0
0
0
2
2
2
2
4
4
3
3
0
0
0
0
0
0
0
0
0
0
0
0
0
0
0
0
0
0
0
0
0
0
0
2
2
2
2
4
4
3
3
0
0
0
0
0
0
0
0
0
0
0
0
0
0
0
0
0
0
0
0
0
0
0
2
2
2
2
4
4
3
3
0
0
0
0
0
0
0
0
0
0
0
0
0
0
0
0
0
0
0
0
0
0
0
2
2
2
2
4
4
3
3
0
0
0
0
0
0
0
0
0
0
0
0
0
0
0
0
0
0
0
0
0
0
0
2
2
2
2
4
4
3
3
0
0
0
0
0
0
0
0
0
0
0
0
0
0
0
0
0
0
0
0
0
0
0
2
2
2
2
4
4
3
3
0
0
0
0
0
0
0
0
0
0
0
0
0
0
0
0
0
0
0
0
0
0
1
2
2
2
2
4
4
3
3
0
0
0
0
0
0
0
0
0
0
0
0
0
0
0
0
0
0
0
0
0
0
1
2
2
2
2
4
4
3
3
0
0
0
0
0
0
0
0
0
0
0
0
0
0
0
0
0
0
0
0
0
0
1
2
2
2
2
4
4
3
3
0
0
0
0
0
0
0
0
0
0
0
0
0
0
0
0
0
0
0
0
0
0
1
2
2
2
2
4
4
3
3
0
0
0
0
0
0
0
0
0
0
0
0
0
0
0
0
0
0
0
0
0
0
1
2
2
2
2
4
4
3
3
0
0
0
0
0
0
0
0
0
0
0
0
0
0
0
0
0
0
0
0
0
0
1
2
2
2
2
4
4
3
3
0
0
0
0
0
0
0
0
0
0
0
0
0
0
0
0
0
0
0
0
0
0
1
2
2
2
2
4
4
3
3
0
0
0
0
0
0
0
0
0
0
0
0
0
0
0
0
0
0
0
0
0
0
1
2
2
2
2
4
4
3
3
0
0
0
0
0
0
0
0
0
0
0
0
0
0
0
0
0
0
0
0
0
0
1
2
2
2
2
4
4
3
3
0
0
0
0
0
0
0
0
0
0
0
0
0
0
0
0
0
0
0
0
0
0
1
2
2
2
2
4
4
3
3
0
0
0
0
0
0
0
0
0
0
0
0
0
0
0
0
0
0
0
0
0
0
1
2
2
2
2
4
4
3
3
0
0
0
0
0
0
0
0
0
0
0
0
0
0
0
0
0
0
0
0
0
0
1
2
2
2
2
4
4
3
3
0
0
0
0
0
0
0
0
0
0
0
0
0
0
0
0
0
0
0
0
0
0
1
2
2
2
2
4
4
3
3
0
0
0
0
0
0
0
0
0
0
0
0
0
0
0
0
0
0
0
0
0
0
1
2
2
2
2
4
4
3
3
0
0
0
0
0
0
0
0
0
0
0
0
0
0
0
0
0
0
0
0
0
1
1
2
2
2
2
4
4
3
3
0
0
0
0
0
0
0
0
0
0
0
0
0
0
0
0
0
0
0
0
0
1
1
2
2
2
2
4
4
3
3
3
3
3
3
3
3
3
3
3
3
3
3
3
3
3
3
3
3
3
3
3
3
3
3
2
2
2
4
4
3
3
3
3
3
3
3
3
3
3
3
3
3
3
3
3
3
3
3
3
3
3
3
3
3
3
2
2
2
4
4
4
4
4
4
4
4
4
4
4
4
4
4
4
4
4
4
4
4
4
4
4
4
4
4
4
4
2
2
2
4
4
4
4
4
4
4
4
4
4
4
4
4
4
4
4
4
4
4
4
4
4
4
4
4
4
4
4
2
2
2
</DataArray>
<DataArray NumberOfComponents='1' type='Float32' Name='Temperature' format='ascii'>
0.000000
0.000000
0.000000
0.000000
0.000000
0.000000
0.000000
0.000000
0.000000
0.000000
0.000000
0.000000
0.000000
0.000000
0.000000
0.000000
0.000000
0.000000
0.000000
0.000000
0.000000
0.000000
0.000000
0.000000
0.000000
0.000000
0.000000
0.000000
-5.000000
-5.000000
-5.000000
0.000000
0.000000
0.000000
0.000000
0.000000
0.000000
0.000000
0.000000
0.000000
0.000000
0.000000
0.000000
0.000000
0.000000
0.000000
0.000000
0.000000
0.000000
0.000000
0.000000
0.000000
0.000000
0.000000
0.000000
0.000000
0.000000
0.000000
0.000000
-5.000000
-5.000000
-5.000000
0.000000
0.000000
0.000000
0.000000
0.000000
0.000000
0.000000
0.000000
0.000000
0.000000
0.000000
0.000000
0.000000
0.000000
0.000000
0.000000
0.000000
0.000000
0.000000
0.000000
0.000000
0.000000
0.000000
0.000000
0.000000
0.000000
0.000000
0.000000
-5.000000
-5.000000
-5.000000
0.000000
0.000000
0.000000
0.000000
0.000000
0.000000
0.000000
0.000000
0.000000
0.000000
0.000000
0.000000
0.000000
0.000000
0.000000
0.000000
0.000000
0.000000
0.000000
0.000000
0.000000
0.000000
0.000000
0.000000
0.000000
0.000000
0.000000
0.000000
-5.000000
-5.000000
-5.000000
0.000000
0.000000
0.000000
0.000000
0.146382
0.262187
0.379008
0.489328
0.592342
0.686117
0.768961
0.839221
0.895365
0.936012
0.959974
0.966296
0.954278
0.923501
0.873834
0.805427
0.718682
0.614146
0.492611
0.353373
0.202288
0.009803
-0.004142
-2.130906
-5.000000
-5.000000
-5.000000
0.000000
0.000000
0.000000
0.000000
0.265018
0.474360
0.685784
0.885433
1.071901
1.241684
1.391716
1.519004
1.620769
1.694510
1.738077
1.749739
1.728240
1.672838
1.583323
1.460012
1.303725
1.115612
0.897341
0.648204
0.379675
0.009983
-0.006256
-2.373944
-5.000000
-5.000000
-5.000000
0.000000
0.000000
0.000000
0.000000
0.389521
0.697274
1.008096
1.301676
1.575950
1.825764
2.046609
2.234074
2.384064
2.492894
2.557397
2.575034
2.543973
2.463151
2.332314
2.152022
1.923640
1.649169
1.331590
0.971240
0.584991
0.081575
-0.004289
-2.457516
-5.000000
-5.000000
-5.000000
0.000000
0.000000
0.000000
0.000000
0.514541
0.921106
1.331806
1.719831
2.082468
2.412912
2.705193
2.953472
3.152318
3.296844
3.382862
3.407018
3.366915
3.261192
3.089591
2.852981
2.553386
2.193858
1.778989
1.311316
0.811723
0.198998
-0.001922
-2.466682
-5.000000
-5.000000
-5.000000
0.000000
0.000000
0.000000
0.000000
0.641196
1.147907
1.659885
2.143757
2.596163
3.008622
3.373683
3.684042
3.932903
4.114151
4.222549
4.253924
4.205312
4.075073
3.862975
3.570244
3.199627
2.755337
2.243665
1.669755
1.057260
0.334596
-0.000067
-2.456800
-5.000000
-5.000000
-5.000000
0.000000
0.000000
0.000000
0.000000
0.769258
1.377265
1.991744
2.572710
3.116155
3.611907
4.051007
4.424658
4.724667
4.943661
5.075338
5.114690
5.058191
4.903934
4.651728
4.303176
3.861758
3.332838
2.724326
2.043799
1.316779
0.481047
0.001620
-2.441018
-5.000000
-5.000000
-5.000000
0.000000
0.000000
0.000000
0.000000
0.898440
1.608666
2.326646
3.005743
3.641309
4.221464
4.735720
5.173760
5.525966
5.783680
5.939514
5.987621
5.923912
5.746219
5.454405
5.050438
4.538490
3.924985
3.219267
2.431054
1.587163
0.634824
0.003847
-2.423120
-5.000000
-5.000000
-5.000000
0.000000
0.000000
0.000000
0.000000
1.028140
1.841036
2.663036
3.440848
4.169187
4.834464
5.424645
5.927874
6.333083
6.630312
6.811075
6.868680
6.798482
6.598062
6.267337
5.808619
5.226703
4.528925
3.725827
2.828967
1.866078
0.793993
0.005260
-2.404314
-5.000000
-5.000000
-5.000000
0.000000
0.000000
0.000000
0.000000
1.157475
2.072787
2.998611
3.875037
4.696158
5.446676
6.113012
6.681759
7.140390
7.477633
7.683901
7.751662
7.675729
7.453450
7.084798
6.572408
5.921613
5.140493
4.240510
3.234727
2.151442
0.957239
0.006619
-2.385018
-5.000000
-5.000000
-5.000000
0.000000
0.000000
0.000000
0.000000
1.285267
2.301808
3.330309
4.304336
5.217380
6.052453
6.794442
7.428395
7.940331
8.317672
8.549739
8.628179
8.547288
8.304206
7.898985
7.334566
6.616745
5.754164
4.758893
3.645082
2.441146
1.123432
0.007469
-2.365425
-5.000000
-5.000000
-5.000000
0.000000
0.000000
0.000000
0.000000
1.410074
2.525508
3.654364
4.723858
5.726893
6.644836
7.461067
8.159118
8.723573
9.140572
9.398372
9.487829
9.402761
9.140142
8.700140
8.086014
7.303969
6.363040
5.275561
4.056237
2.732943
1.291556
0.008521
-2.345623
-5.000000
-5.000000
-5.000000
0.000000
0.000000
0.000000
0.000000
1.530221
2.740881
3.966413
5.127931
6.217781
7.215747
8.103752
8.863858
9.479263
9.934864
10.217900
10.318483
10.230001
9.949322
9.476783
8.816006
7.973596
6.958857
5.784048
4.463787
3.024434
1.460701
0.009025
-2.325667
-5.000000
-5.000000
-5.000000
0.000000
0.000000
0.000000
0.000000
1.643859
2.944607
4.261631
5.510289
6.682403
7.756258
8.712397
9.531484
10.195397
10.687861
10.995150
11.106697
11.015522
10.718449
10.216062
9.512412
8.614555
7.532024
6.276743
4.862598
3.313066
1.630322
0.009532
-2.305417
-5.000000
-5.000000
-5.000000
0.000000
0.000000
0.000000
0.000000
1.749035
3.133178
4.534926
5.864312
7.112682
8.256934
9.276327
10.150228
10.859290
11.386145
11.716189
11.838240
11.745019
11.433376
10.904215
10.162111
9.214666
8.071710
6.744757
5.246480
3.595987
1.800703
0.009787
-2.284374
-5.000000
-5.000000
-5.000000
0.000000
0.000000
0.000000
0.000000
1.843773
3.303046
4.781140
6.183302
7.500449
8.708227
9.784742
10.708185
11.458100
12.016139
12.366908
12.498693
12.403980
12.079702
11.527147
10.751503
9.761043
8.566050
7.177776
5.607579
3.869473
1.973372
0.009857
-2.259960
-5.000000
-5.000000
-5.000000
0.000000
0.000000
0.000000
0.000000
1.926159
3.450776
4.995286
6.460776
7.837795
9.100901
10.227192
11.193835
11.979407
12.564706
12.933660
13.074101
12.978339
12.643430
12.071082
11.267140
10.240650
9.002537
7.564101
5.935708
4.127120
2.148245
0.009919
-2.227991
-5.000000
-5.000000
-5.000000
0.000000
0.000000
0.000000
0.000000
1.994433
3.573206
5.172770
6.690769
8.117444
9.426455
10.594062
11.596580
12.411785
13.019767
13.403890
13.551621
13.455144
13.111647
12.523242
11.696417
10.641009
9.368698
7.891145
6.218302
4.357324
2.317509
0.095944
-2.186000
-5.000000
-5.000000
-5.000000
0.000000
0.000000
0.000000
0.000000
2.047072
3.667601
5.309619
6.868116
8.333098
9.677532
10.877028
11.907249
12.745346
13.370865
13.766735
13.920146
13.823186
13.473162
12.872521
12.028292
10.951003
9.653050
8.146595
6.441563
4.544070
2.462032
0.193336
-2.142742
-5.000000
-5.000000
-5.000000
0.000000
0.000000
0.000000
0.000000
2.082860
3.731781
5.402666
6.988703
8.479740
9.848270
11.069465
12.118538
12.972220
13.609680
14.013555
14.170838
14.073551
13.719075
13.110077
12.253945
11.161676
9.846171
8.320008
6.593247
4.671700
2.562476
0.262867
-2.109683
-5.000000
-5.000000
-5.000000
0.000000
0.000000
0.000000
0.000000
2.100953
3.764228
5.449709
7.049671
8.553883
9.934597
11.166765
12.225373
13.086936
13.730433
14.138346
14.297564
14.200059
13.843227
13.229806
12.367311
11.266902
9.941656
8.404319
6.665097
4.729970
2.606344
0.291926
-2.094818
-5.000000
-5.000000
-5.000000
0.000000
0.000000
0.000000
0.000000
2.100920
3.764169
5.449621
7.049556
8.553740
9.934429
11.166572
12.225156
13.086697
13.730168
14.138043
14.297196
14.199568
13.842502
13.228656
12.365423
11.263801
9.936696
8.396746
6.654302
4.716013
2.590804
0.278221
-2.100484
-5.000000
-5.000000
-5.000000
0.000000
0.000000
0.000000
0.000000
2.082762
3.731604
5.402407
6.988363
8.479319
9.847772
11.068894
12.117898
12.971513
13.608899
14.012666
14.169762
14.072122
13.716980
13.106771
12.248547
11.152869
9.832187
8.298847
6.563400
4.633583
2.520611
0.226381
-2.124930
-5.000000
-5.000000
-5.000000
0.000000
0.000000
0.000000
0.000000
2.046914
3.667316
5.309200
6.867564
8.332417
9.676725
10.876104
11.906214
12.744206
13.369608
13.765315
13.918443
13.820948
13.469919
12.867460
12.020119
10.937829
9.632425
8.115912
6.399165
4.491291
2.405787
0.145811
-2.162466
-5.000000
-5.000000
-5.000000
0.000000
0.000000
0.000000
0.000000
1.994221
3.572823
5.172208
6.690029
8.116530
9.425374
10.592823
11.595196
12.410265
13.018100
13.402022
13.549412
13.452289
13.107582
12.517003
11.686500
10.625293
9.344567
7.856085
6.171239
4.301078
2.260511
0.050427
-2.203911
-5.000000
-5.000000
-5.000000
0.000000
0.000000
0.000000
0.000000
1.925902
3.450310
4.994602
6.459878
7.836685
9.099589
10.225691
11.192161
11.977575
12.562712
12.931451
13.071532
12.975094
12.638919
12.064308
11.256590
10.224272
8.977974
7.529419
5.890820
4.076346
2.100872
0.009883
-2.239517
-5.000000
-5.000000
-5.000000
0.000000
0.000000
0.000000
0.000000
1.843480
3.302516
4.780364
6.182281
7.499187
8.706736
9.783038
10.706290
11.456035
12.013908
12.364473
12.495922
12.400578
12.075112
11.520444
10.741315
9.745597
8.543479
7.146895
5.569203
3.828725
1.939007
0.009851
-2.266381
-5.000000
-5.000000
-5.000000
0.000000
0.000000
0.000000
0.000000
1.748719
3.132605
4.534085
5.863206
7.111317
8.255320
9.274486
10.148186
10.857075
11.383775
11.713642
11.835413
11.741665
11.429019
10.898066
10.153033
9.201260
8.052646
6.719499
5.216345
3.565812
1.777436
0.009638
-2.287946
-5.000000
-5.000000
-5.000000
0.000000
0.000000
0.000000
0.000000
1.643530
2.944010
4.260756
5.509138
6.680982
7.754580
8.710484
9.529368
10.193115
10.685441
10.992594
11.103939
11.012377
10.714547
10.210786
9.504890
8.603762
7.517094
6.257563
4.840554
3.291977
1.615035
0.009411
-2.307653
-5.000000
-5.000000
-5.000000
0.000000
0.000000
0.000000
0.000000
1.529890
2.740281
3.965533
5.126773
6.216352
7.214060
8.101832
8.861739
9.476988
9.932475
10.215420
10.315886
10.227171
9.945997
9.472522
8.810185
7.965515
6.947990
5.770475
4.448674
3.010454
1.450932
0.008991
-2.327057
-5.000000
-5.000000
-5.000000
0.000000
0.000000
0.000000
0.000000
1.409751
2.524924
3.653506
4.722729
5.725498
6.643191
7.459196
8.157057
8.721371
9.138281
9.396033
9.485454
9.400294
9.137424
8.696881
8.081803
7.298354
6.355710
5.266638
4.046552
2.724207
1.285600
0.008432
-2.346462
-5.000000
-5.000000
-5.000000
0.000000
0.000000
0.000000
0.000000
1.284961
2.301254
3.329495
4.303266
5.216057
6.050892
6.792668
7.426446
7.938256
8.315529
8.547586
8.626054
8.545186
8.302050
7.896609
7.331719
6.613148
5.749629
4.753507
3.639354
2.436073
1.120039
0.007808
-2.365898
-5.000000
-5.000000
-5.000000
0.000000
0.000000
0.000000
0.000000
1.157192
2.072275
2.997860
3.874048
4.694936
5.445235
6.111375
6.679961
7.138482
7.475676
7.681959
7.749793
7.673964
7.451772
7.083129
6.570609
5.919516
5.137978
4.237605
3.231691
2.148785
0.955471
0.006439
-2.385283
-5.000000
-5.000000
-5.000000
0.000000
0.000000
0.000000
0.000000
1.027886
1.840576
2.662360
3.439957
4.168087
4.833165
5.423170
5.926256
6.331369
6.628562
6.809357
6.867059
6.797010
6.596762
6.266186
5.807550
5.225619
4.527740
3.724519
2.827628
1.864921
0.793237
0.005251
-2.404426
-5.000000
-5.000000
-5.000000
0.000000
0.000000
0.000000
0.000000
0.898217
1.608262
2.326053
3.004962
3.640343
4.220323
4.734424
5.172338
5.524462
5.782148
5.938020
5.986231
5.922688
5.745202
5.453606
5.049832
4.538021
3.924585
3.218886
2.430689
1.586872
0.634672
0.003851
-2.423106
-5.000000
-5.000000
-5.000000
0.000000
0.000000
0.000000
0.000000
0.769068
1.376920
1.991237
2.572041
3.115328
3.610931
4.049897
4.423440
4.723379
4.942351
5.074063
5.113514
5.057174
4.903124
4.651152
4.302831
3.861612
3.332836
2.724408
2.043920
1.316926
0.481227
0.002222
-2.440903
-5.000000
-5.000000
-5.000000
0.000000
0.000000
0.000000
0.000000
0.641038
1.147621
1.659464
2.143202
2.595476
3.007810
3.372759
3.683027
3.931829
4.113058
4.221486
4.252946
4.204472
4.074418
3.862536
3.570028
3.199615
2.755487
2.243919
1.670053
1.057560
0.334874
0.000327
-2.456671
-5.000000
-5.000000
-5.000000
0.000000
0.000000
0.000000
0.000000
0.514415
0.920877
1.331469
1.719386
2.081917
2.412260
2.704451
2.952656
3.151452
3.295962
3.382002
3.406225
3.366233
3.260661
3.089240
2.852821
2.553405
2.194025
1.779253
1.311620
0.812014
0.199241
-0.001797
-2.466587
-5.000000
-5.000000
-5.000000
0.000000
0.000000
0.000000
0.000000
0.389424
0.697099
1.007840
1.301337
1.575530
1.825267
2.046042
2.233450
2.383402
2.492217
2.556735
2.574420
2.543441
2.462733
2.332032
2.151887
1.923646
1.649292
1.331792
0.971472
0.585207
0.081737
-0.004410
-2.457458
-5.000000
-5.000000
-5.000000
0.000000
0.000000
0.000000
0.000000
0.264952
0.474240
0.685606
0.885198
1.071611
1.241340
1.391324
1.518571
1.620309
1.694038
1.737613
1.749306
1.727861
1.672535
1.583111
1.459901
1.303711
1.115679
0.897464
0.648347
0.379802
0.009988
-0.005781
-2.373897
-5.000000
-5.000000
-5.000000
0.000000
0.000000
0.000000
0.000000
0.146344
0.262118
0.378907
0.489194
0.592175
0.685920
0.768736
0.838973
0.895100
0.935739
0.959706
0.966043
0.954054
0.923318
0.873702
0.805349
0.718659
0.614169
0.492666
0.353439
0.202345
0.009819
-0.004392
-2.130898
-5.000000
-5.000000
-5.000000
0.000000
0.000000
0.000000
0.000000
0.000000
0.000000
0.000000
0.000000
0.000000
0.000000
0.000000
0.000000
0.000000
0.000000
0.000000
0.000000
0.000000
0.000000
0.000000
0.000000
0.000000
0.000000
0.000000
0.000000
0.000000
0.000000
0.000000
0.000000
-5.000000
-5.000000
-5.000000
0.000000
0.000000
0.000000
0.000000
0.000000
0.000000
0.000000
0.000000
0.000000
0.000000
0.000000
0.000000
0.000000
0.000000
0.000000
0.000000
0.000000
0.000000
0.000000
0.000000
0.000000
0.000000
0.000000
0.000000
0.000000
0.000000
0.000000
0.000000
-5.000000
-5.000000
-5.000000
0.000000
0.000000
0.000000
0.000000
0.000000
0.000000
0.000000
0.000000
0.000000
0.000000
0.000000
0.000000
0.000000
0.000000
0.000000
0.000000
0.000000
0.000000
0.000000
0.000000
0.000000
0.000000
0.000000
0.000000
0.000000
0.000000
0.000000
0.000000
-5.000000
-5.000000
-5.000000
0.000000
0.000000
0.000000
0.000000
0.000000
0.000000
0.000000
0.000000
0.000000
0.000000
0.000000
0.000000
0.000000
0.000000
0.000000
0.000000
0.000000
0.000000
0.000000
0.000000
0.000000
0.000000
0.000000
0.000000
0.000000
0.000000
0.000000
0.000000
-5.000000
-5.000000
-5.000000
</DataArray>
</PointData>
<Cells>
<DataArray type='Int32' Name='connectivity' format='ascii'>
0
1
2
3
4
5
6
7
8
9
10
11
12
13
14
15
16
17
18
19
20
21
22
23
24
25
26
27
28
29
30
31
32
33
34
35
36
37
38
39
40
41
42
43
44
45
46
47
48
49
50
51
52
53
54
55
56
57
58
59
60
61
62
63
64
65
66
67
68
69
70
71
72
73
74
75
76
77
78
79
80
81
82
83
84
85
86
87
88
89
90
91
92
93
94
95
96
97
98
99
100
101
102
103
104
105
106
107
108
109
110
111
112
113
114
115
116
117
118
119
120
121
122
123
124
125
126
127
128
129
130
131
132
133
134
135
136
137
138
139
140
141
142
143
144
145
146
147
148
149
150
151
152
153
154
155
156
157
158
159
160
161
162
163
164
165
166
167
168
169
170
171
172
173
174
175
176
177
178
179
180
181
182
183
184
185
186
187
188
189
190
191
192
193
194
195
196
197
198
199
200
201
202
203
204
205
206
207
208
209
210
211
212
213
214
215
216
217
218
219
220
221
222
223
224
225
226
227
228
229
230
231
232
233
234
235
236
237
238
239
240
241
242
243
244
245
246
247
248
249
250
251
252
253
254
255
256
257
258
259
260
261
262
263
264
265
266
267
268
269
270
271
272
273
274
275
276
277
278
279
280
281
282
283
284
285
286
287
288
289
290
291
292
293
294
295
296
297
298
299
300
301
302
303
304
305
306
307
308
309
310
311
312
313
314
315
316
317
318
319
320
321
322
323
324
325
326
327
328
329
330
331
332
333
334
335
336
337
338
339
340
341
342
343
344
345
346
347
348
349
350
351
352
353
354
355
356
357
358
359
360
361
362
363
364
365
366
367
368
369
370
371
372
373
374
375
376
377
378
379
380
381
382
383
384
385
386
387
388
389
390
391
392
393
394
395
396
397
398
399
400
401
402
403
404
405
406
407
408
409
410
411
412
413
414
415
416
417
418
419
420
421
422
423
424
425
426
427
428
429
430
431
432
433
434
435
436
437
438
439
440
441
442
443
444
445
446
447
448
449
450
451
452
453
454
455
456
457
458
459
460
461
462
463
464
465
466
467
468
469
470
471
472
473
474
475
476
477
478
479
480
481
482
483
484
485
486
487
488
489
490
491
492
493
494
495
496
497
498
499
500
501
502
503
504
505
506
507
508
509
510
511
512
513
514
515
516
517
518
519
520
521
522
523
524
525
526
527
528
529
530
531
532
533
534
535
536
537
538
539
540
541
542
543
544
545
546
547
548
549
550
551
552
553
554
555
556
557
558
559
560
561
562
563
564
565
566
567
568
569
570
571
572
573
574
575
576
577
578
579
580
581
582
583
584
585
586
587
588
589
590
591
592
593
594
595
596
597
598
599
600
601
602
603
604
605
606
607
608
609
610
611
612
613
614
615
616
617
618
619
620
621
622
623
624
625
626
627
628
629
630
631
632
633
634
635
636
637
638
639
640
641
642
643
644
645
646
647
648
649
650
651
652
653
654
655
656
657
658
659
660
661
662
663
664
665
666
667
668
669
670
671
672
673
674
675
676
677
678
679
680
681
682
683
684
685
686
687
688
689
690
691
692
693
694
695
696
697
698
699
700
701
702
703
704
705
706
707
708
709
710
711
712
713
714
715
716
717
718
719
720
721
722
723
724
725
726
727
728
729
730
731
732
733
734
735
736
737
738
739
740
741
742
743
744
745
746
747
748
749
750
751
752
753
754
755
756
757
758
759
760
761
762
763
764
765
766
767
768
769
770
771
772
773