<?xml version='1.0' encoding='UTF-8'?>
<VTKFile xmlns='VTK' byte_order='LittleEndian' version='0.1' type='UnstructuredGrid'>
<UnstructuredGrid>
<Piece NumberOfCells='1488' NumberOfPoints='1488'>
<Points>
<DataArray NumberOfComponents='3' type='Float32' Name='Position' format='ascii'>
-0.075000 -0.075000 0.000000
-0.075000 -0.050000 0.000000
-0.075000 -0.025000 0.000000
-0.075000 0.000000 0.000000
-0.075000 0.025000 0.000000
-0.075000 0.050000 0.000000
-0.075000 0.075000 0.000000
-0.075000 0.100000 0.000000
-0.075000 0.125000 0.000000
-0.075000 0.150000 0.000000
-0.075000 0.175000 0.000000
-0.075000 0.200000 0.000000
-0.075000 0.225000 0.000000
-0.075000 0.250000 0.000000
-0.075000 0.275000 0.000000
-0.075000 0.300000 0.000000
-0.075000 0.325000 0.000000
-0.075000 0.350000 0.000000
-0.075000 0.375000 0.000000
-0.075000 0.400000 0.000000
-0.075000 0.425000 0.000000
-0.075000 0.450000 0.000000
-0.075000 0.475000 0.000000
-0.075000 0.500000 0.000000
-0.075000 0.525000 0.000000
-0.075000 0.550000 0.000000
-0.075000 0.575000 0.000000
-0.075000 0.600000 0.000000
-0.075000 0.625000 0.000000
-0.075000 0.650000 0.000000
-0.075000 0.675000 0.000000
-0.050000 -0.075000 0.000000
-0.050000 -0.050000 0.000000
-0.050000 -0.025000 0.000000
-0.050000 0.000000 0.000000
-0.050000 0.025000 0.000000
-0.050000 0.050000 0.000000
-0.050000 0.075000 0.000000
-0.050000 0.100000 0.000000
-0.050000 0.125000 0.000000
-0.050000 0.150000 0.000000
-0.050000 0.175000 0.000000
-0.050000 0.200000 0.000000
-0.050000 0.225000 0.000000
-0.050000 0.250000 0.000000
-0.050000 0.275000 0.000000
-0.050000 0.300000 0.000000
-0.050000 0.325000 0.000000
-0.050000 0.350000 0.000000
-0.050000 0.375000 0.000000
-0.050000 0.400000 0.000000
-0.050000 0.425000 0.000000
-0.050000 0.450000 0.000000
-0.050000 0.475000 0.000000
-0.050000 0.500000 0.000000
-0.050000 0.525000 0.000000
-0.050000 0.550000 0.000000
-0.050000 0.575000 0.000000
-0.050000 0.600000 0.000000
-0.050000 0.625000 0.000000
-0.050000 0.650000 0.000000
-0.050000 0.675000 0.000000
-0.025000 -0.075000 0.000000
-0.025000 -0.050000 0.000000
-0.025000 -0.025000 0.000000
-0.025000 0.000000 0.000000
-0.025000 0.025000 0.000000
-0.025000 0.050000 0.000000
-0.025000 0.075000 0.000000
-0.025000 0.100000 0.000000
-0.025000 0.125000 0.000000
-0.025000 0.150000 0.000000
-0.025000 0.175000 0.000000
-0.025000 0.200000 0.000000
-0.025000 0.225000 0.000000
-0.025000 0.250000 0.000000
-0.025000 0.275000 0.000000
-0.025000 0.300000 0.000000
-0.025000 0.325000 0.000000
-0.025000 0.350000 0.000000
-0.025000 0.375000 0.000000
-0.025000 0.400000 0.000000
-0.025000 0.425000 0.000000
-0.025000 0.450000 0.000000
-0.025000 0.475000 0.000000
-0.025000 0.500000 0.000000
-0.025000 0.525000 0.000000
-0.025000 0.550000 0.000000
-0.025000 0.575000 0.000000
-0.025000 0.600000 0.000000
-0.025000 0.625000 0.000000
-0.025000 0.650000 0.000000
-0.025000 0.675000 0.000000
0.000000 -0.075000 0.000000
0.000000 -0.050000 0.000000
0.000000 -0.025000 0.000000
0.000000 0.000000 0.000000
0.000000 0.025000 0.000000
0.000000 0.050000 0.000000
0.000000 0.075000 0.000000
0.000000 0.100000 0.000000
0.000000 0.125000 0.000000
0.000000 0.150000 0.000000
0.000000 0.175000 0.000000
0.000000 0.200000 0.000000
0.000000 0.225000 0.000000
0.000000 0.250000 0.000000
0.000000 0.275000 0.000000
0.000000 0.300000 0.000000
0.000000 0.325000 0.000000
0.000000 0.350000 0.000000
0.000000 0.375000 0.000000
0.000000 0.400000 0.000000
0.000000 0.425000 0.000000
0.000000 0.450000 0.000000
0.000000 0.475000 0.000000
0.000000 0.500000 0.000000
0.000000 0.525000 0.000000
0.000000 0.550000 0.000000
0.000000 0.575000 0.000000
0.000000 0.600000 0.000000
0.000000 0.625000 0.000000
0.000000 0.650000 0.000000
0.000000 0.675000 0.000000
0.025000 -0.075000 0.000000
0.025000 -0.050000 0.000000
0.025000 -0.025000 0.000000
0.025000 0.000000 0.000000
0.025000 0.025000 0.000000
0.025000 0.050000 0.000000
0.025000 0.075000 0.000000
0.025000 0.100000 0.000000
0.025000 0.125000 0.000000
0.025000 0.150000 0.000000
0.025000 0.175000 0.000000
0.025000 0.200000 0.000000
0.025000 0.225000 0.000000
0.025000 0.250000 0.000000
0.025000 0.275000 0.000000
0.025000 0.300000 0.000000
0.025000 0.325000 0.000000
0.025000 0.350000 0.000000
0.025000 0.375000 0.000000
0.025000 0.400000 0.000000
0.025000 0.425000 0.000000
0.025000 0.450000 0.000000
0.025000 0.475000 0.000000
0.025000 0.500000 0.000000
0.025000 0.525000 0.000000
0.025000 0.550000 0.000000
0.025000 0.575000 0.000000
0.025000 0.600000 0.000000
0.025000 0.625000 0.000000
0.025000 0.650000 0.000000
0.025000 0.675000 0.000000
0.050000 -0.075000 0.000000
0.050000 -0.050000 0.000000
0.050000 -0.025000 0.000000
0.050000 0.000000 0.000000
0.050000 0.025000 0.000000
0.050000 0.050000 0.000000
0.050000 0.075000 0.000000
0.050000 0.100000 0.000000
0.050000 0.125000 0.000000
0.050000 0.150000 0.000000
0.050000 0.175000 0.000000
0.050000 0.200000 0.000000
0.050000 0.225000 0.000000
0.050000 0.250000 0.000000
0.050000 0.275000 0.000000
0.050000 0.300000 0.000000
0.050000 0.325000 0.000000
0.050000 0.350000 0.000000
0.050000 0.375000 0.000000
0.050000 0.400000 0.000000
0.050000 0.425000 0.000000
0.050000 0.450000 0.000000
0.050000 0.475000 0.000000
0.050000 0.500000 0.000000
0.050000 0.525000 0.000000
0.050000 0.550000 0.000000
0.050000 0.575000 0.000000
0.050000 0.600000 0.000000
0.050000 0.625000 0.000000
0.050000 0.650000 0.000000
0.050000 0.675000 0.000000
0.075000 -0.075000 0.000000
0.075000 -0.050000 0.000000
0.075000 -0.025000 0.000000
0.075000 0.000000 0.000000
0.075000 0.025000 0.000000
0.075000 0.050000 0.000000
0.075000 0.075000 0.000000
0.075000 0.100000 0.000000
0.075000 0.125000 0.000000
0.075000 0.150000 0.000000
0.075000 0.175000 0.000000
0.075000 0.200000 0.000000
0.075000 0.225000 0.000000
0.075000 0.250000 0.000000
0.075000 0.275000 0.000000
0.075000 0.300000 0.000000
0.075000 0.325000 0.000000
0.075000 0.350000 0.000000
0.075000 0.375000 0.000000
0.075000 0.400000 0.000000
0.075000 0.425000 0.000000
0.075000 0.450000 0.000000
0.075000 0.475000 0.000000
0.075000 0.500000 0.000000
0.075000 0.525000 0.000000
0.075000 0.550000 0.000000
0.075000 0.575000 0.000000
0.075000 0.600000 0.000000
0.075000 0.625000 0.000000
0.075000 0.650000 0.000000
0.075000 0.675000 0.000000
0.100000 -0.075000 0.000000
0.100000 -0.050000 0.000000
0.100000 -0.025000 0.000000
0.100000 0.000000 0.000000
0.100000 0.025000 0.000000
0.100000 0.050000 0.000000
0.100000 0.075000 0.000000
0.100000 0.100000 0.000000
0.100000 0.125000 0.000000
0.100000 0.150000 0.000000
0.100000 0.175000 0.000000
0.100000 0.200000 0.000000
0.100000 0.225000 0.000000
0.100000 0.250000 0.000000
0.100000 0.275000 0.000000
0.100000 0.300000 0.000000
0.100000 0.325000 0.000000
0.100000 0.350000 0.000000
0.100000 0.375000 0.000000
0.100000 0.400000 0.000000
0.100000 0.425000 0.000000
0.100000 0.450000 0.000000
0.100000 0.475000 0.000000
0.100000 0.500000 0.000000
0.100000 0.525000 0.000000
0.100000 0.550000 0.000000
0.100000 0.575000 0.000000
0.100000 0.600000 0.000000
0.100000 0.625000 0.000000
0.100000 0.650000 0.000000
0.100000 0.675000 0.000000
0.125000 -0.075000 0.000000
0.125000 -0.050000 0.000000
0.125000 -0.025000 0.000000
0.125000 0.000000 0.000000
0.125000 0.025000 0.000000
0.125000 0.050000 0.000000
0.125000 0.075000 0.000000
0.125000 0.100000 0.000000
0.125000 0.125000 0.000000
0.125000 0.150000 0.000000
0.125000 0.175000 0.000000
0.125000 0.200000 0.000000
0.125000 0.225000 0.000000
0.125000 0.250000 0.000000
0.125000 0.275000 0.000000
0.125000 0.300000 0.000000
0.125000 0.325000 0.000000
0.125000 0.350000 0.000000
0.125000 0.375000 0.000000
0.125000 0.400000 0.000000
0.125000 0.425000 0.000000
0.125000 0.450000 0.000000
0.125000 0.475000 0.000000
0.125000 0.500000 0.000000
0.125000 0.525000 0.000000
0.125000 0.550000 0.000000
0.125000 0.575000 0.000000
0.125000 0.600000 0.000000
0.125000 0.625000 0.000000
0.125000 0.650000 0.000000
0.125000 0.675000 0.000000
0.150000 -0.075000 0.000000
0.150000 -0.050000 0.000000
0.150000 -0.025000 0.000000
0.150000 0.000000 0.000000
0.150000 0.025000 0.000000
0.150000 0.050000 0.000000
0.150000 0.075000 0.000000
0.150000 0.100000 0.000000
0.150000 0.125000 0.000000
0.150000 0.150000 0.000000
0.150000 0.175000 0.000000
0.150000 0.200000 0.000000
0.150000 0.225000 0.000000
0.150000 0.250000 0.000000
0.150000 0.275000 0.000000
0.150000 0.300000 0.000000
0.150000 0.325000 0.000000
0.150000 0.350000 0.000000
0.150000 0.375000 0.000000
0.150000 0.400000 0.000000
0.150000 0.425000 0.000000
0.150000 0.450000 0.000000
0.150000 0.475000 0.000000
0.150000 0.500000 0.000000
0.150000 0.525000 0.000000
0.150000 0.550000 0.000000
0.150000 0.575000 0.000000
0.150000 0.600000 0.000000
0.150000 0.625000 0.000000
0.150000 0.650000 0.000000
0.150000 0.675000 0.000000
0.175000 -0.075000 0.000000
0.175000 -0.050000 0.000000
0.175000 -0.025000 0.000000
0.175000 0.000000 0.000000
0.175000 0.025000 0.000000
0.175000 0.050000 0.000000
0.175000 0.075000 0.000000
0.175000 0.100000 0.000000
0.175000 0.125000 0.000000
0.175000 0.150000 0.000000
0.175000 0.175000 0.000000
0.175000 0.200000 0.000000
0.175000 0.225000 0.000000
0.175000 0.250000 0.000000
0.175000 0.275000 0.000000
0.175000 0.300000 0.000000
0.175000 0.325000 0.000000
0.175000 0.350000 0.000000
0.175000 0.375000 0.000000
0.175000 0.400000 0.000000
0.175000 0.425000 0.000000
0.175000 0.450000 0.000000
0.175000 0.475000 0.000000
0.175000 0.500000 0.000000
0.175000 0.525000 0.000000
0.175000 0.550000 0.000000
0.175000 0.575000 0.000000
0.175000 0.600000 0.000000
0.175000 0.625000 0.000000
0.175000 0.650000 0.000000
0.175000 0.675000 0.000000
0.200000 -0.075000 0.000000
0.200000 -0.050000 0.000000
0.200000 -0.025000 0.000000
0.200000 0.000000 0.000000
0.200000 0.025000 0.000000
0.200000 0.050000 0.000000
0.200000 0.075000 0.000000
0.200000 0.100000 0.000000
0.200000 0.125000 0.000000
0.200000 0.150000 0.000000
0.200000 0.175000 0.000000
0.200000 0.200000 0.000000
0.200000 0.225000 0.000000
0.200000 0.250000 0.000000
[...]
<PointData>
<DataArray NumberOfComponents='1' type='Int32' Name='ParticleType' format='ascii'>
4
4
4
4
4
4
4
4
4
4
4
4
4
4
4
4
4
4
4
4
4
4
4
4
4
4
4
4
2
2
2
4
4
4
4
4
4
4
4
4
4
4
4
4
4
4
4
4
4
4
4
4
4
4
4
4
4
4
4
2
2
2
4
4
3
3
3
3
3
3
3
3
3
3
3
3
3
3
3
3
3
3
3
3
3
3
3
3
3
3
2
2
2
4
4
3
3
3
3
3
3
3
3
3
3
3
3
3
3
3
3
3
3
3
3
3
3
3
3
3
3
2
2
2
4
4
3
3
0
0
0
0
0
0
0
0
0
0
0
0
0
0
0
0
0
0
0
0
0
0
0
1
2
2
2
4
4
3
3
0
0
0
0
0
0
0
0
0
0
0
0
0
0
0
0
0
0
0
0
0
0
0
1
2
2
2
4
4
3
3
0
0
0
0
0
0
0
0
0
0
0
0
0
0
0
0
0
0
0
0
0
0
0
1
2
2
2
4
4
3
3
0
0
0
0
0
0
0
0
0
0
0
0
0
0
0
0
0
0
0
0
0
0
0
1
2
2
2
4
4
3
3
0
0
0
0
0
0
0
0
0
0
0
0
0
0
0
0
0
0
0
0
0
0
0
1
2
2
2
4
4
3
3
0
0
0
0
0
0
0
0
0
0
0
0
0
0
0
0
0
0
0
0
0
0
0
1
2
2
2
4
4
3
3
0
0
0
0
0
0
0
0
0
0
0
0
0
0
0
0
0
0
0
0
0
0
0
1
2
2
2
4
4
3
3
0
0
0
0
0
0
0
0
0
0
0
0
0
0
0
0
0
0
0
0
0
0
0
1
2
2
2
4
4
3
3
0
0
0
0
0
0
0
0
0
0
0
0
0
0
0
0
0
0
0
0
0
0
0
1
2
2
2
4
4
3
3
0
0
0
0
0
0
0
0
0
0
0
0
0
0
0
0
0
0
0
0
0
0
0
1
2
2
2
4
4
3
3
0
0
0
0
0
0
0
0
0
0
0
0
0
0
0
0
0
0
0
0
0
0
0
1
2
2
2
4
4
3
3
0
0
0
0
0
0
0
0
0
0
0
0
0
0
0
0
0
0
0
0
0
0
0
1
2
2
2
4
4
3
3
0
0
0
0
0
0
0
0
0
0
0
0
0
0
0
0
0
0
0
0
0
0
0
1
2
2
2
4
4
3
3
0
0
0
0
0
0
0
0
0
0
0
0
0
0
0
0
0
0
0
0
0
0
0
1
2
2
2
4
4
3
3
0
0
0
0
0
0
0
0
0
0
0
0
0
0
0
0
0
0
0
0
0
0
0
1
2
2
2
4
4
3
3
0
0
0
0
0
0
0
0
0
0
0
0
0
0
0
0
0
0
0
0
0
0
0
1
2
2
2
4
4
3
3
0
0
0
0
0
0
0
0
0
0
0
0
0
0
0
0
0
0
0
0
0
0
0
1
2
2
2
4
4
3
3
0
0
0
0
0
0
0
0
0
0
0
0
0
0
0
0
0
0
0
0
0
0
0
1
2
2
2
4
4
3
3
0
0
0
0
0
0
0
0
0
0
0
0
0
0
0
0
0
0
0
0
0
0
0
1
2
2
2
4
4
3
3
0
0
0
0
0
0
0
0
0
0
0
0
0
0
0
0
0
0
0
0
0
0
0
1
2
2
2
4
4
3
3
0
0
0
0
0
0
0
0
0
0
0
0
0
0
0
0
0
0
0
0
0
0
0
1
2
2
2
4
4
3
3
0
0
0
0
0
0
0
0
0
0
0
0
0
0
0
0
0
0
0
0
0
0
0
1
2
2
2
4
4
3
3
0
0
0
0
0
0
0
0
0
0
0
0
0
0
0
0
0
0
0
0
0
0
0
1
2
2
2
4
4
3
3
0
0
0
0
0
0
0
0
0
0
0
0
0
0
0
0
0
0
0
0
0
0
0
1
2
2
2
4
4
3
3
0
0
0
0
0
0
0
0
0
0
0
0
0
0
0
0
0
0
0
0
0
0
0
1
2
2
2
4
4
3
3
0
0
0
0
0
0
0
0
0
0
0
0
0
0
0
0
0
0
0
0
0
0
0
1
2
2
2
4
4
3
3
0
0
0
0
0
0
0
0
0
0
0
0
0
0
0
0
0
0
0
0
0
0
0
1
2
2
2
4
4
3
3
0
0
0
0
0
0
0
0
0
0
0
0
0
0
0
0
0
0
0
0
0
0
0
1
2
2
2
4
4
3
3
0
0
0
0
0
0
0
0
0
0
0
0
0
0
0
0
0
0
0
0
0
0
0
1
2
2
2
4
4
3
3
0
0
0
0
0
0
0
0
0
0
0
0
0
0
0
0
0
0
0
0
0
0
0
1
2
2
2
4
4
3
3
0
0
0
0
0
0
0
0
0
0
0
0
0
0
0
0
0
0
0
0
0
0
0
1
2
2
2
4
4
3
3
0
0
0
0
0
0
0
0
0
0
0
0
0
0
0
0
0
0
0
0
0
0
0
1
2
2
2
4
4
3
3
0
0
0
0
0
0
0
0
0
0
0
0
0
0
0
0
0
0
0
0
0
0
0
1
2
2
2
4
4
3
3
0
0
0
0
0
0
0
0
0
0
0
0
0
0
0
0
0
0
0
0
0
0
0
1
2
2
2
4
4
3
3
0
0
0
0
0
0
0
0
0
0
0
0
0
0
0
0
0
0
0
0
0
0
0
1
2
2
2
4
4
3
3
0
0
0
0
0
0
0
0
0
0
0
0
0
0
0
0
0
0
0
0
0
0
0
1
2
2
2
4
4
3
3
0
0
0
0
0
0
0
0
0
0
0
0
0
0
0
0
0
0
0
0
0
0
0
1
2
2
2
4
4
3
3
0
0
0
0
0
0
0
0
0
0
0
0
0
0
0
0
0
0
0
0
0
0
0
1
2
2
2
4
4
3
3
0
0
0
0
0
0
0
0
0
0
0
0
0
0
0
0
0
0
0
0
0
0
0
1
2
2
2
4
4
3
3
0
0
0
0
0
0
0
0
0
0
0
0
0
0
0
0
0
0
0
0
0
0
0
1
2
2
2
4
4
3
3
3
3
3
3
3
3
3
3
3
3
3
3
3
3
3
3
3
3
3
3
3
3
3
3
2
2
2
4
4
3
3
3
3
3
3
3
3
3
3
3
3
3
3
3
3
3
3
3
3
3
3
3
3
3
3
2
2
2
4
4
4
4
4
4
4
4
4
4
4
4
4
4
4
4
4
4
4
4
4
4
4
4
4
4
4
4
2
2
2
4
4
4
4
4
4
4
4
4
4
4
4
4
4
4
4
4
4
4
4
4
4
4
4
4
4
4
4
2
2
2
</DataArray>
<DataArray NumberOfComponents='1' type='Float32' Name='Temperature' format='ascii'>
0.000000
0.000000
0.000000
0.000000
0.000000
0.000000
0.000000
0.000000
0.000000
0.000000
0.000000
0.000000
0.000000
0.000000
0.000000
0.000000
0.000000
0.000000
0.000000
0.000000
0.000000
0.000000
0.000000
0.000000
0.000000
0.000000
0.000000
0.000000
-5.000000
-5.000000
-5.000000
0.000000
0.000000
0.000000
0.000000
0.000000
0.000000
0.000000
0.000000
0.000000
0.000000
0.000000
0.000000
0.000000
0.000000
0.000000
0.000000
0.000000
0.000000
0.000000
0.000000
0.000000
0.000000
0.000000
0.000000
0.000000
0.000000
0.000000
0.000000
-5.000000
-5.000000
-5.000000
0.000000
0.000000
0.000000
0.000000
0.000000
0.000000
0.000000
0.000000
0.000000
0.000000
0.000000
0.000000
0.000000
0.000000
0.000000
0.000000
0.000000
0.000000
0.000000
0.000000
0.000000
0.000000
0.000000
0.000000
0.000000
0.000000
0.000000
0.000000
-5.000000
-5.000000
-5.000000
0.000000
0.000000
0.000000
0.000000
0.000000
0.000000
0.000000
0.000000
0.000000
0.000000
0.000000
0.000000
0.000000
0.000000
0.000000
0.000000
0.000000
0.000000
0.000000
0.000000
0.000000
0.000000
0.000000
0.000000
0.000000
0.000000
0.000000
0.000000
-5.000000
-5.000000
-5.000000
0.000000
0.000000
0.000000
0.000000
0.920606
1.434703
1.771688
1.945553
2.028062
2.063252
2.077165
2.082303
2.084112
2.084735
2.084950
2.085016
2.085001
2.084875
2.084468
2.083217
2.079447
2.068526
2.038542
1.962040
1.779496
1.403580
0.526466
0.009117
-5.000000
-5.000000
-5.000000
0.000000
0.000000
0.000000
0.000000
1.434556
2.253301
2.798283
3.082791
3.219190
3.277890
3.301330
3.310118
3.313310
3.314482
3.314933
3.315091
3.315065
3.314806
3.314031
3.311806
3.305357
3.287051
3.237498
3.112859
2.820960
2.232709
1.041762
0.009212
-5.000000
-5.000000
-5.000000
0.000000
0.000000
0.000000
0.000000
1.771485
2.798237
3.488784
3.854013
4.031017
4.108103
4.139402
4.151535
4.156283
4.158295
4.159233
4.159622
4.159588
4.159064
4.157697
4.154303
4.145312
4.120917
4.056431
3.896846
3.530470
2.800129
1.401068
0.009371
-5.000000
-5.000000
-5.000000
0.000000
0.000000
0.000000
0.000000
1.945424
3.082903
3.854268
4.266685
4.468801
4.558294
4.595851
4.611595
4.618841
4.622732
4.624981
4.626052
4.626012
4.624787
4.622041
4.616559
4.604467
4.574857
4.500215
4.319649
3.912135
3.106638
1.596839
0.009305
-5.000000
-5.000000
-5.000000
0.000000
0.000000
0.000000
0.000000
2.028151
3.219778
4.032161
4.470177
4.687626
4.786730
4.831493
4.853670
4.866921
4.876014
4.882099
4.885197
4.885157
4.881897
4.875279
4.864476
4.846050
4.809171
4.725406
4.531252
4.101259
3.257611
1.693143
0.009307
-5.000000
-5.000000
-5.000000
0.000000
0.000000
0.000000
0.000000
2.063792
3.279586
4.111598
4.564056
4.793471
4.904641
4.963278
5.001264
5.030870
5.054646
5.071643
5.080499
5.080466
5.071454
5.053916
5.028376
4.993436
4.940361
4.841889
4.634024
4.189202
3.325982
1.736103
0.009547
-5.000000
-5.000000
-5.000000
0.000000
0.000000
0.000000
0.000000
2.078609
3.305418
4.148437
4.613101
4.859073
4.994336
5.086288
5.165303
5.238606
5.301828
5.347976
5.372100
5.372083
5.347833
5.301157
5.236158
5.157455
5.063186
4.931058
4.698459
4.235985
3.358538
1.755276
0.009570
-5.000000
-5.000000
-5.000000
0.000000
0.000000
0.000000
0.000000
2.085448
3.318949
4.172220
4.654755
4.932850
5.121784
5.293078
5.473185
5.655594
5.817123
5.935086
5.996353
5.996366
5.935029
5.816577
5.653284
5.465453
5.270021
5.058408
4.771883
4.276859
3.380711
1.766155
0.009361
-5.000000
-5.000000
-5.000000
0.000000
0.000000
0.000000
0.000000
2.090179
3.330592
4.198674
4.712905
5.054282
5.356033
5.701996
6.111363
6.544380
6.930284
7.209302
7.352255
7.352312
7.209366
6.929909
6.542260
6.103821
5.679104
5.292761
4.893300
4.334789
3.406506
1.776523
0.009617
-5.000000
-5.000000
-5.000000
0.000000
0.000000
0.000000
0.000000
2.095303
3.345156
4.236315
4.803906
5.258070
5.771602
6.460683
7.335530
8.285959
9.129512
9.729261
10.030907
10.031006
9.729426
9.129245
8.283931
7.328089
6.437932
5.708490
5.097205
4.425777
3.443772
1.790133
0.009430
-5.000000
-5.000000
-5.000000
0.000000
0.000000
0.000000
0.000000
2.101685
3.364341
4.288434
4.935329
5.564311
6.421153
7.697847
9.411516
11.310381
12.981553
14.136411
14.702155
14.702262
14.136528
12.981055
11.307943
9.403681
7.674921
6.358092
5.403581
4.557253
3.495560
1.808323
0.009571
-5.000000
-5.000000
-5.000000
0.000000
0.000000
0.000000
0.000000
2.109230
3.387512
4.352757
5.101118
5.960014
7.283191
9.399507
12.358043
15.715867
18.617812
20.571290
21.501805
21.501858
20.571106
18.616516
15.712143
12.348942
9.375849
7.219951
5.799374
4.723109
3.559533
1.830380
0.009485
-5.000000
-5.000000
-5.000000
0.000000
0.000000
0.000000
0.000000
2.117231
3.412241
4.421876
5.280557
6.392061
8.235506
11.303726
15.724357
21.114951
25.463067
28.323840
29.664085
29.664049
28.323194
25.460425
21.108565
15.712617
11.278792
8.171931
6.231476
4.902613
3.628293
1.853949
0.009185
-5.000000
-5.000000
-5.000000
0.000000
0.000000
0.000000
0.000000
2.124739
3.435354
4.486134
5.446278
6.787636
9.097152
13.004194
18.668145
25.515636
31.092970
34.751547
36.456290
36.456201
34.750601
31.089530
25.507966
18.655141
12.978530
9.033399
6.627145
5.068408
3.692221
1.875993
0.009539
-5.000000
-5.000000
-5.000000
0.000000
0.000000
0.000000
0.000000
2.130962
3.454281
4.537930
5.577346
7.093452
9.745994
14.239884
20.741264
28.535487
34.939035
39.151933
41.120478
41.120396
39.150939
34.935365
28.527407
20.727868
14.214048
9.682300
6.933110
5.199557
3.743743
1.894013
0.009457
-5.000000
-5.000000
-5.000000
0.000000
0.000000
0.000000
0.000000
2.135534
3.467919
4.574362
5.666971
7.295754
10.159903
14.996515
21.962692
30.273497
37.134006
41.667236
43.794321
43.794281
41.666342
37.130444
30.265510
21.949401
14.970831
10.096394
7.135577
5.289256
3.779964
1.906960
0.009575
-5.000000
-5.000000
-5.000000
0.000000
0.000000
0.000000
0.000000
2.138524
3.476624
4.596923
5.720610
7.412322
10.389089
15.400199
22.595426
31.156606
38.241310
42.935503
45.144249
45.144253
42.934730
38.237920
31.148816
22.582341
15.374717
10.325760
7.252278
5.342950
3.802381
1.915185
0.009204
-5.000000
-5.000000
-5.000000
0.000000
0.000000
0.000000
0.000000
2.140271
3.481573
4.609328
5.749034
7.471757
10.501590
15.591722
22.887854
31.558016
38.740948
43.506917
45.752793
45.752828
43.506233
38.737689
31.550381
22.874930
15.566389
10.438384
7.311800
5.371408
3.814699
1.919857
0.009593
-5.000000
-5.000000
-5.000000
0.000000
0.000000
0.000000
0.000000
2.141173
3.484059
4.615359
5.762373
7.498675
10.550879
15.673288
23.009737
31.723044
38.944989
43.739805
46.000791
46.000843
43.739169
38.941803
31.715496
22.996904
15.648038
10.487741
7.338764
5.384765
3.820684
1.922193
0.009470
-5.000000
-5.000000
-5.000000
0.000000
0.000000
0.000000
0.000000
2.141543
3.485058
4.617718
5.767445
7.508632
10.568655
15.702082
23.052076
31.779775
39.014755
43.819279
46.085390
46.085449
43.818663
39.011600
31.772264
23.039280
15.676867
10.505544
7.348740
5.389844
3.823022
1.923130
0.009539
-5.000000
-5.000000
-5.000000
0.000000
0.000000
0.000000
0.000000
2.141547
3.485066
4.617735
5.767478
7.508689
10.568746
15.702216
23.052259
31.780009
39.015035
43.819593
46.085723
46.085782
43.818978
39.011879
31.772498
23.039464
15.677001
10.505635
7.348797
5.389877
3.823040
1.923138
0.009540
-5.000000
-5.000000
-5.000000
0.000000
0.000000
0.000000
0.000000
2.141185
3.484088
4.615418
5.762484
7.498867
10.551184
15.673736
23.010348
31.723823
38.945919
43.740850
46.001898
46.001950
43.740214
38.942733
31.716276
22.997515
15.648487
10.488046
7.338956
5.384876
3.820742
1.922220
0.009473
-5.000000
-5.000000
-5.000000
0.000000
0.000000
0.000000
0.000000
2.140294
3.481629
4.609445
5.749254
7.472136
10.502188
15.592593
22.889030
31.559502
38.742714
43.508898
45.754891
45.754926
43.508214
38.739455
31.551867
22.876106
15.567260
10.438982
7.312179
5.371628
3.814815
1.919910
0.009601
-5.000000
-5.000000
-5.000000
0.000000
0.000000
0.000000
0.000000
2.138563
3.476719
4.597121
5.720979
7.412948
10.390054
15.401560
22.597206
31.158798
38.243878
42.938370
45.147285
45.147289
42.937598
38.240488
31.151007
22.584121
15.376079
10.326725
7.252905
5.343319
3.802577
1.915275
0.009219
-5.000000
-5.000000
-5.000000
0.000000
0.000000
0.000000
0.000000
2.135592
3.468062
4.574657
5.667516
7.296649
10.161208
14.998208
21.964697
30.275753
37.136511
41.669984
43.797232
43.797191
41.669090
37.132948
30.267765
21.951406
14.972524
10.097699
7.136472
5.289801
3.780257
1.907096
0.009600
-5.000000
-5.000000
-5.000000
0.000000
0.000000
0.000000
0.000000
2.131041
3.454473
4.538327
5.578062
7.094564
9.747436
14.241375
20.742419
28.536085
34.939210
39.151962
41.120522
41.120439
39.150967
34.935538
28.528003
20.729020
14.215537
9.683741
6.934222
5.200271
3.744137
1.894197
0.009488
-5.000000
-5.000000
-5.000000
0.000000
0.000000
0.000000
0.000000
2.124835
3.435590
4.486614
5.447122
6.788856
9.098450
13.004793
18.667027
25.512264
31.087775
34.745421
36.449883
36.449794
34.744473
31.084333
25.504591
18.654020
12.979127
9.034695
6.628363
5.069250
3.692698
1.876219
0.009586
-5.000000
-5.000000
-5.000000
0.000000
0.000000
0.000000
0.000000
2.117339
3.412502
4.422404
5.281466
6.393301
8.236570
11.303296
15.720667
21.106947
25.451686
28.310713
29.650405
29.650368
28.310065
25.449041
21.100559
15.708925
11.278360
8.172992
6.232715
4.903520
3.628816
1.854199
0.009239
-5.000000
-5.000000
-5.000000
0.000000
0.000000
0.000000
0.000000
2.109338
3.387774
4.353287
5.102028
5.961256
7.284255
9.399079
12.354354
15.707865
18.606432
20.558165
21.488126
21.488178
20.557979
18.605134
15.704139
12.345252
9.375419
7.221014
5.800614
4.724017
3.560057
1.830629
0.009531
-5.000000
-5.000000
-5.000000
0.000000
0.000000
0.000000
0.000000
2.101784
3.364580
4.288920
4.936178
5.565537
6.422457
7.698453
9.410405
11.307016
12.976365
14.130293
14.695755
14.695861
14.130407
12.975865
11.304575
9.402567
7.675524
6.359395
5.404805
4.558100
3.496040
1.808550
0.009612
-5.000000
-5.000000
-5.000000
0.000000
0.000000
0.000000
0.000000
2.095387
3.345358
4.236725
4.804637
5.259199
5.773062
6.462192
7.336704
8.286577
9.129706
9.729310
10.030970
10.031070
9.729474
9.129437
8.284546
7.329260
6.439439
5.709949
5.098332
4.426506
3.444176
1.790324
0.009468
-5.000000
-5.000000
-5.000000
0.000000
0.000000
0.000000
0.000000
2.090251
3.330758
4.199002
4.713488
5.055220
5.357384
5.703737
6.113418
6.546687
6.932840
7.212102
7.355217
7.355274
7.212165
6.932464
6.544566
6.105875
5.680844
5.294110
4.894236
4.335370
3.406827
1.776677
0.009640
-5.000000
-5.000000
-5.000000
0.000000
0.000000
0.000000
0.000000
2.085519
3.319100
4.172494
4.655216
4.933578
5.122858
5.294554
5.475084
5.657907
5.819815
5.938078
5.999514
5.999528
5.938021
5.819269
5.655597
5.467351
5.271496
5.059480
4.772607
4.277312
3.380973
1.766289
0.009389
-5.000000
-5.000000
-5.000000
0.000000
0.000000
0.000000
0.000000
2.078703
3.305596
4.148720
4.613520
4.859674
4.995173
5.087409
5.166738
5.240358
5.303867
5.350234
5.374478
5.374461
5.350091
5.303196
5.237911
5.158889
5.064304
4.931889
4.699049
4.236386
3.358795
1.755424
0.009609
-5.000000
-5.000000
-5.000000
0.000000
0.000000
0.000000
0.000000
2.063939
3.279846
4.111974
4.564549
4.794093
4.905411
4.964218
5.002389
5.032181
5.056124
5.073246
5.082170
5.082136
5.073057
5.055393
5.029686
4.994558
4.941295
4.842646
4.634622
4.189656
3.326305
1.736305
0.009622
-5.000000
-5.000000
-5.000000
0.000000
0.000000
0.000000
0.000000
2.028372
3.220164
4.032700
4.470847
4.688408
4.787614
4.832478
4.854754
4.868099
4.877275
4.883422
4.886552
4.886512
4.883220
4.876539
4.865652
4.847128
4.810142
4.726264
4.531985
4.101850
3.258044
1.693417
0.009486
-5.000000
-5.000000
-5.000000
0.000000
0.000000
0.000000
0.000000
1.945694
3.083382
3.854945
4.267523
4.469763
4.559347
4.596973
4.612772
4.620065
4.623994
4.626271
4.627356
4.627316
4.626076
4.623302
4.617779
4.605634
4.575955
4.501221
4.320524
3.912832
3.107123
1.597119
0.009609
-5.000000
-5.000000
-5.000000
0.000000
0.000000
0.000000
0.000000
1.771679
2.798618
3.489373
3.854789
4.031935
4.109117
4.140476
4.152647
4.157421
4.159451
4.160401
4.160796
4.160761
4.160231
4.158851
4.155435
4.146410
4.121958
4.057375
3.897633
3.531031
2.800429
1.401149
0.009235
-5.000000
-5.000000
-5.000000
0.000000
0.000000
0.000000
0.000000
1.434474
2.253275
2.798405
3.083090
3.219635
3.278434
3.301930
3.310749
3.313957
3.315139
3.315596
3.315756
3.315730
3.315467
3.314685
3.312447
3.305971
3.287611
3.237956
3.113144
2.820998
2.232489
1.041409
0.009253
-5.000000
-5.000000
-5.000000
0.000000
0.000000
0.000000
0.000000
0.920145
1.434111
1.771138
1.945130
2.027757
2.063027
2.076987
2.082148
2.083968
2.084596
2.084814
2.084881
2.084865
2.084738
2.084326
2.083067
2.079277
2.068311
2.038240
1.961586
1.778832
1.402736
0.525625
0.007951
-5.000000
-5.000000
-5.000000
0.000000
0.000000
0.000000
0.000000
0.000000
0.000000
0.000000
0.000000
0.000000
0.000000
0.000000
0.000000
0.000000
0.000000
0.000000
0.000000
0.000000
0.000000
0.000000
0.000000
0.000000
0.000000
0.000000
0.000000
0.000000
0.000000
0.000000
0.000000
-5.000000
-5.000000
-5.000000
0.000000
0.000000
0.000000
0.000000
0.000000
0.000000
0.000000
0.000000
0.000000
0.000000
0.000000
0.000000
0.000000
0.000000
0.000000
0.000000
0.000000
0.000000
0.000000
0.000000
0.000000
0.000000
0.000000
0.000000
0.000000
0.000000
0.000000
0.000000
-5.000000
-5.000000
-5.000000
0.000000
0.000000
0.000000
0.000000
0.000000
0.000000
0.000000
0.000000
0.000000
0.000000
0.000000
0.000000
0.000000
0.000000
0.000000
0.000000
0.000000
0.000000
0.000000
0.000000
0.000000
0.000000
0.000000
0.000000
0.000000
0.000000
0.000000
0.000000
-5.000000
-5.000000
-5.000000
0.000000
0.000000
0.000000
0.000000
0.000000
0.000000
0.000000
0.000000
0.000000
0.000000
0.000000
0.000000
0.000000
0.000000
0.000000
0.000000
0.000000
0.000000
0.000000
0.000000
0.000000
0.000000
0.000000
0.000000
0.000000
0.000000
0.000000
0.000000
-5.000000
-5.000000
-5.000000
</DataArray>
</PointData>
<Cells>
<DataArray type='Int32' Name='connectivity' format='ascii'>
0
1
2
3
4
5
6
7
8
9
10
11
12
13
14
15
16
17
18
19
20
21
22
23
24
25
26
27
28
29
30
31
32
33
34
35
36
37
38
39
40
41
42
43
44
45
46
47
48
49
50
51
52
53
54
55
56
57
58
59
60
61
62
63
64
65
66
67
68
69
70
71
72
73
74
75
76
77
78
79
80
81
82
83
84
85
86
87
88
89
90
91
92
93
94
95
96
97
98
99
100
101
102
103
104
105
106
107
108
109
110
111
112
113
114
115
116
117
118
119
120
121
122
123
124
125
126
127
128
129
130
131
132
133
134
135
136
137
138
139
140
141
142
143
144
145
146
147
148
149
150
151
152
153
154
155
156
157
158
159
160
161
162
163
164
165
166
167
168
169
170
171
172
173
174
175
176
177
178
179
180
181
182
183
184
185
186
187
188
189
190
191
192
193
194
195
196
197
198
199
200
201
202
203
204
205
206
207
208
209
210
211
212
213
214
215
216
217
218
219
220
221
222
223
224
225
226
227
228
229
230
231
232
233
234
235
236
237
238
239
240
241
242
243
244
245
246
247
248
249
250
251
252
253
254
255
256
257
258
259
260
261
262
263
264
265
266
267
268
269
270
271
272
273
274
275
276
277
278
279
280
281
282
283
284
285
286
287
288
289
290
291
292
293
294
295
296
297
298
299
300
301
302
303
304
305
306
307
308
309
310
311
312
313
314
315
316
317
318
319
320
321
322
323
324
325
326
327
328
329
330
331
332
333
334
335
336
337
338
339
340
341
342
343
344
345
346
347
348
349
350
351
352
353
354
355
356
357
358
359
360
361
362
363
364
365
366
367
368
369
370
371
372
373
374
375
376
377
378
379
380
381
382
383
384
385
386
387
388
389
390
391
392
393
394
395
396
397
398
399
400
401
402
403
404
405
406
407
408
409
410
411
412
413
414
415
416
417
418
419
420
421
422
423
424
425
426
427
428
429
430
431
432
433
434
435
436
437
438
439
440
441
442
443
444
445
446
447
448
449
450
451
452
453
454
455
456
457
458
459
460
461
462
463
464
465
466
467
468
469
470
471
472
473
474
475
476
477
478
479
480
481
482
483
484
485
486
487
488
489
490
491
492
493
494
495
496
497
498
499
500
501
502
503
504
505
506
507
508
509
510
511
512
513
514
515
516
517
518
519
520
521
522
523
524
525
526
527
528
529
530
531
532
533
534
535
536
537
538
539
540
541
542
543
544
545
546
547
548
549
550
551
552
553
554
555
556
557
558
559
560
561
562
563
564
565
566
567
568
569
570
571
572
573
574
575
576
577
578
579
580
581
582
583
584
585
586
587
588
589
590
591
592
593
594
595
596
597
598
599
600
601
602
603
604
605
606
607
608
609
610
611
612
613
614
615
616
617
618
619
620
621
622
623
624
625
626
627
628
629
630
631
632
633
634
635
636
637
638
639
640
641
642
643
644
645
646
647
648
649
650
651
652
653
654
655
656
657
658
659
660
661
662
663
664
665
666
667
668
669
670
671
672
673
674
675
676
677
678
679
680
681
682
683
684
685
686
687
688
689
690
691
692
693
694
695
696
697
698
699
700
701
702
703
704
705
706
707
708
709
710
711
712
713
714
715
716
717
718
719
720
721
722
723
724
725
726
727
728
729
730
731
732
733
734
735
736
737
738
739
740
741
742
743
744
745
746
747
748
749
750
751
752
753
754
755
756
757
758
759
760
761
762
763
764