<?xml version='1.0' encoding='UTF-8'?>
<VTKFile xmlns='VTK' byte_order='LittleEndian' version='0.1' type='UnstructuredGrid'>
<UnstructuredGrid>
<Piece NumberOfCells='1488' NumberOfPoints='1488'>
<Points>
<DataArray NumberOfComponents='3' type='Float32' Name='Position' format='ascii'>
-0.075000 -0.075000 0.000000
-0.075000 -0.050000 0.000000
-0.075000 -0.025000 0.000000
-0.075000 0.000000 0.000000
-0.075000 0.025000 0.000000
-0.075000 0.050000 0.000000
-0.075000 0.075000 0.000000
-0.075000 0.100000 0.000000
-0.075000 0.125000 0.000000
-0.075000 0.150000 0.000000
-0.075000 0.175000 0.000000
-0.075000 0.200000 0.000000
-0.075000 0.225000 0.000000
-0.075000 0.250000 0.000000
-0.075000 0.275000 0.000000
-0.075000 0.300000 0.000000
-0.075000 0.325000 0.000000
-0.075000 0.350000 0.000000
-0.075000 0.375000 0.000000
-0.075000 0.400000 0.000000
-0.075000 0.425000 0.000000
-0.075000 0.450000 0.000000
-0.075000 0.475000 0.000000
-0.075000 0.500000 0.000000
-0.075000 0.525000 0.000000
-0.075000 0.550000 0.000000
-0.075000 0.575000 0.000000
-0.075000 0.600000 0.000000
-0.075000 0.625000 0.000000
-0.075000 0.650000 0.000000
-0.075000 0.675000 0.000000
-0.050000 -0.075000 0.000000
-0.050000 -0.050000 0.000000
-0.050000 -0.025000 0.000000
-0.050000 0.000000 0.000000
-0.050000 0.025000 0.000000
-0.050000 0.050000 0.000000
-0.050000 0.075000 0.000000
-0.050000 0.100000 0.000000
-0.050000 0.125000 0.000000
-0.050000 0.150000 0.000000
-0.050000 0.175000 0.000000
-0.050000 0.200000 0.000000
-0.050000 0.225000 0.000000
-0.050000 0.250000 0.000000
-0.050000 0.275000 0.000000
-0.050000 0.300000 0.000000
-0.050000 0.325000 0.000000
-0.050000 0.350000 0.000000
-0.050000 0.375000 0.000000
-0.050000 0.400000 0.000000
-0.050000 0.425000 0.000000
-0.050000 0.450000 0.000000
-0.050000 0.475000 0.000000
-0.050000 0.500000 0.000000
-0.050000 0.525000 0.000000
-0.050000 0.550000 0.000000
-0.050000 0.575000 0.000000
-0.050000 0.600000 0.000000
-0.050000 0.625000 0.000000
-0.050000 0.650000 0.000000
-0.050000 0.675000 0.000000
-0.025000 -0.075000 0.000000
-0.025000 -0.050000 0.000000
-0.025000 -0.025000 0.000000
-0.025000 0.000000 0.000000
-0.025000 0.025000 0.000000
-0.025000 0.050000 0.000000
-0.025000 0.075000 0.000000
-0.025000 0.100000 0.000000
-0.025000 0.125000 0.000000
-0.025000 0.150000 0.000000
-0.025000 0.175000 0.000000
-0.025000 0.200000 0.000000
-0.025000 0.225000 0.000000
-0.025000 0.250000 0.000000
-0.025000 0.275000 0.000000
-0.025000 0.300000 0.000000
-0.025000 0.325000 0.000000
-0.025000 0.350000 0.000000
-0.025000 0.375000 0.000000
-0.025000 0.400000 0.000000
-0.025000 0.425000 0.000000
-0.025000 0.450000 0.000000
-0.025000 0.475000 0.000000
-0.025000 0.500000 0.000000
-0.025000 0.525000 0.000000
-0.025000 0.550000 0.000000
-0.025000 0.575000 0.000000
-0.025000 0.600000 0.000000
-0.025000 0.625000 0.000000
-0.025000 0.650000 0.000000
-0.025000 0.675000 0.000000
0.000000 -0.075000 0.000000
0.000000 -0.050000 0.000000
0.000000 -0.025000 0.000000
0.000000 0.000000 0.000000
0.000000 0.025000 0.000000
0.000000 0.050000 0.000000
0.000000 0.075000 0.000000
0.000000 0.100000 0.000000
0.000000 0.125000 0.000000
0.000000 0.150000 0.000000
0.000000 0.175000 0.000000
0.000000 0.200000 0.000000
0.000000 0.225000 0.000000
0.000000 0.250000 0.000000
0.000000 0.275000 0.000000
0.000000 0.300000 0.000000
0.000000 0.325000 0.000000
0.000000 0.350000 0.000000
0.000000 0.375000 0.000000
0.000000 0.400000 0.000000
0.000000 0.425000 0.000000
0.000000 0.450000 0.000000
0.000000 0.475000 0.000000
0.000000 0.500000 0.000000
0.000000 0.525000 0.000000
0.000000 0.550000 0.000000
0.000000 0.575000 0.000000
0.000000 0.600000 0.000000
0.000000 0.625000 0.000000
0.000000 0.650000 0.000000
0.000000 0.675000 0.000000
0.025000 -0.075000 0.000000
0.025000 -0.050000 0.000000
0.025000 -0.025000 0.000000
0.025000 0.000000 0.000000
0.025000 0.025000 0.000000
0.025000 0.050000 0.000000
0.025000 0.075000 0.000000
0.025000 0.100000 0.000000
0.025000 0.125000 0.000000
0.025000 0.150000 0.000000
0.025000 0.175000 0.000000
0.025000 0.200000 0.000000
0.025000 0.225000 0.000000
0.025000 0.250000 0.000000
0.025000 0.275000 0.000000
0.025000 0.300000 0.000000
0.025000 0.325000 0.000000
0.025000 0.350000 0.000000
0.025000 0.375000 0.000000
0.025000 0.400000 0.000000
0.025000 0.425000 0.000000
0.025000 0.450000 0.000000
0.025000 0.475000 0.000000
0.025000 0.500000 0.000000
0.025000 0.525000 0.000000
0.025000 0.550000 0.000000
0.025000 0.575000 0.000000
0.025000 0.600000 0.000000
0.025000 0.625000 0.000000
0.025000 0.650000 0.000000
0.025000 0.675000 0.000000
0.050000 -0.075000 0.000000
0.050000 -0.050000 0.000000
0.050000 -0.025000 0.000000
0.050000 0.000000 0.000000
0.050000 0.025000 0.000000
0.050000 0.050000 0.000000
0.050000 0.075000 0.000000
0.050000 0.100000 0.000000
0.050000 0.125000 0.000000
0.050000 0.150000 0.000000
0.050000 0.175000 0.000000
0.050000 0.200000 0.000000
0.050000 0.225000 0.000000
0.050000 0.250000 0.000000
0.050000 0.275000 0.000000
0.050000 0.300000 0.000000
0.050000 0.325000 0.000000
0.050000 0.350000 0.000000
0.050000 0.375000 0.000000
0.050000 0.400000 0.000000
0.050000 0.425000 0.000000
0.050000 0.450000 0.000000
0.050000 0.475000 0.000000
0.050000 0.500000 0.000000
0.050000 0.525000 0.000000
0.050000 0.550000 0.000000
0.050000 0.575000 0.000000
0.050000 0.600000 0.000000
0.050000 0.625000 0.000000
0.050000 0.650000 0.000000
0.050000 0.675000 0.000000
0.075000 -0.075000 0.000000
0.075000 -0.050000 0.000000
0.075000 -0.025000 0.000000
0.075000 0.000000 0.000000
0.075000 0.025000 0.000000
0.075000 0.050000 0.000000
0.075000 0.075000 0.000000
0.075000 0.100000 0.000000
0.075000 0.125000 0.000000
0.075000 0.150000 0.000000
0.075000 0.175000 0.000000
0.075000 0.200000 0.000000
0.075000 0.225000 0.000000
0.075000 0.250000 0.000000
0.075000 0.275000 0.000000
0.075000 0.300000 0.000000
0.075000 0.325000 0.000000
0.075000 0.350000 0.000000
0.075000 0.375000 0.000000
0.075000 0.400000 0.000000
0.075000 0.425000 0.000000
0.075000 0.450000 0.000000
0.075000 0.475000 0.000000
0.075000 0.500000 0.000000
0.075000 0.525000 0.000000
0.075000 0.550000 0.000000
0.075000 0.575000 0.000000
0.075000 0.600000 0.000000
0.075000 0.625000 0.000000
0.075000 0.650000 0.000000
0.075000 0.675000 0.000000
0.100000 -0.075000 0.000000
0.100000 -0.050000 0.000000
0.100000 -0.025000 0.000000
0.100000 0.000000 0.000000
0.100000 0.025000 0.000000
0.100000 0.050000 0.000000
0.100000 0.075000 0.000000
0.100000 0.100000 0.000000
0.100000 0.125000 0.000000
0.100000 0.150000 0.000000
0.100000 0.175000 0.000000
0.100000 0.200000 0.000000
0.100000 0.225000 0.000000
0.100000 0.250000 0.000000
0.100000 0.275000 0.000000
0.100000 0.300000 0.000000
0.100000 0.325000 0.000000
0.100000 0.350000 0.000000
0.100000 0.375000 0.000000
0.100000 0.400000 0.000000
0.100000 0.425000 0.000000
0.100000 0.450000 0.000000
0.100000 0.475000 0.000000
0.100000 0.500000 0.000000
0.100000 0.525000 0.000000
0.100000 0.550000 0.000000
0.100000 0.575000 0.000000
0.100000 0.600000 0.000000
0.100000 0.625000 0.000000
0.100000 0.650000 0.000000
0.100000 0.675000 0.000000
0.125000 -0.075000 0.000000
0.125000 -0.050000 0.000000
0.125000 -0.025000 0.000000
0.125000 0.000000 0.000000
0.125000 0.025000 0.000000
0.125000 0.050000 0.000000
0.125000 0.075000 0.000000
0.125000 0.100000 0.000000
0.125000 0.125000 0.000000
0.125000 0.150000 0.000000
0.125000 0.175000 0.000000
0.125000 0.200000 0.000000
0.125000 0.225000 0.000000
0.125000 0.250000 0.000000
0.125000 0.275000 0.000000
0.125000 0.300000 0.000000
0.125000 0.325000 0.000000
0.125000 0.350000 0.000000
0.125000 0.375000 0.000000
0.125000 0.400000 0.000000
0.125000 0.425000 0.000000
0.125000 0.450000 0.000000
0.125000 0.475000 0.000000
0.125000 0.500000 0.000000
0.125000 0.525000 0.000000
0.125000 0.550000 0.000000
0.125000 0.575000 0.000000
0.125000 0.600000 0.000000
0.125000 0.625000 0.000000
0.125000 0.650000 0.000000
0.125000 0.675000 0.000000
0.150000 -0.075000 0.000000
0.150000 -0.050000 0.000000
0.150000 -0.025000 0.000000
0.150000 0.000000 0.000000
0.150000 0.025000 0.000000
0.150000 0.050000 0.000000
0.150000 0.075000 0.000000
0.150000 0.100000 0.000000
0.150000 0.125000 0.000000
0.150000 0.150000 0.000000
0.150000 0.175000 0.000000
0.150000 0.200000 0.000000
0.150000 0.225000 0.000000
0.150000 0.250000 0.000000
0.150000 0.275000 0.000000
0.150000 0.300000 0.000000
0.150000 0.325000 0.000000
0.150000 0.350000 0.000000
0.150000 0.375000 0.000000
0.150000 0.400000 0.000000
0.150000 0.425000 0.000000
0.150000 0.450000 0.000000
0.150000 0.475000 0.000000
0.150000 0.500000 0.000000
0.150000 0.525000 0.000000
0.150000 0.550000 0.000000
0.150000 0.575000 0.000000
0.150000 0.600000 0.000000
0.150000 0.625000 0.000000
0.150000 0.650000 0.000000
0.150000 0.675000 0.000000
0.175000 -0.075000 0.000000
0.175000 -0.050000 0.000000
0.175000 -0.025000 0.000000
0.175000 0.000000 0.000000
0.175000 0.025000 0.000000
0.175000 0.050000 0.000000
0.175000 0.075000 0.000000
0.175000 0.100000 0.000000
0.175000 0.125000 0.000000
0.175000 0.150000 0.000000
0.175000 0.175000 0.000000
0.175000 0.200000 0.000000
0.175000 0.225000 0.000000
0.175000 0.250000 0.000000
0.175000 0.275000 0.000000
0.175000 0.300000 0.000000
0.175000 0.325000 0.000000
0.175000 0.350000 0.000000
0.175000 0.375000 0.000000
0.175000 0.400000 0.000000
0.175000 0.425000 0.000000
0.175000 0.450000 0.000000
0.175000 0.475000 0.000000
0.175000 0.500000 0.000000
0.175000 0.525000 0.000000
0.175000 0.550000 0.000000
0.175000 0.575000 0.000000
0.175000 0.600000 0.000000
0.175000 0.625000 0.000000
0.175000 0.650000 0.000000
0.175000 0.675000 0.000000
0.200000 -0.075000 0.000000
0.200000 -0.050000 0.000000
0.200000 -0.025000 0.000000
0.200000 0.000000 0.000000
0.200000 0.025000 0.000000
0.200000 0.050000 0.000000
0.200000 0.075000 0.000000
0.200000 0.100000 0.000000
0.200000 0.125000 0.000000
0.200000 0.150000 0.000000
0.200000 0.175000 0.000000
0.200000 0.200000 0.000000
0.200000 0.225000 0.000000
0.200000 0.250000 0.000000
[...]
<PointData>
<DataArray NumberOfComponents='1' type='Int32' Name='ParticleType' format='ascii'>
4
4
4
4
4
4
4
4
4
4
4
4
4
4
4
4
4
4
4
4
4
4
4
4
4
4
4
4
2
2
2
4
4
4
4
4
4
4
4
4
4
4
4
4
4
4
4
4
4
4
4
4
4
4
4
4
4
4
4
2
2
2
4
4
3
3
3
3
3
3
3
3
3
3
3
3
3
3
3
3
3
3
3
3
3
3
3
3
3
3
2
2
2
4
4
3
3
3
3
3
3
3
3
3
3
3
3
3
3
3
3
3
3
3
3
3
3
3
3
3
3
2
2
2
4
4
3
3
0
0
0
0
0
0
0
0
0
0
0
0
0
0
0
0
0
0
0
0
0
1
1
2
2
2
2
4
4
3
3
0
0
0
0
0
0
0
0
0
0
0
0
0
0
0
0
0
0
0
0
0
1
1
2
2
2
2
4
4
3
3
0
0
0
0
0
0
0
0
0
0
0
0
0
0
0
0
0
0
0
0
0
0
1
2
2
2
2
4
4
3
3
0
0
0
0
0
0
0
0
0
0
0
0
0
0
0
0
0
0
0
0
0
0
1
2
2
2
2
4
4
3
3
0
0
0
0
0
0
0
0
0
0
0
0
0
0
0
0
0
0
0
0
0
0
1
2
2
2
2
4
4
3
3
0
0
0
0
0
0
0
0
0
0
0
0
0
0
0
0
0
0
0
0
0
0
1
2
2
2
2
4
4
3
3
0
0
0
0
0
0
0
0
0
0
0
0
0
0
0
0
0
0
0
0
0
0
1
2
2
2
2
4
4
3
3
0
0
0
0
0
0
0
0
0
0
0
0
0
0
0
0
0
0
0
0
0
0
1
2
2
2
2
4
4
3
3
0
0
0
0
0
0
0
0
0
0
0
0
0
0
0
0
0
0
0
0
0
0
1
2
2
2
2
4
4
3
3
0
0
0
0
0
0
0
0
0
0
0
0
0
0
0
0
0
0
0
0
0
0
1
2
2
2
2
4
4
3
3
0
0
0
0
0
0
0
0
0
0
0
0
0
0
0
0
0
0
0
0
0
0
1
2
2
2
2
4
4
3
3
0
0
0
0
0
0
0
0
0
0
0
0
0
0
0
0
0
0
0
0
0
0
1
2
2
2
2
4
4
3
3
0
0
0
0
0
0
0
0
0
0
0
0
0
0
0
0
0
0
0
0
0
0
1
2
2
2
2
4
4
3
3
0
0
0
0
0
0
0
0
0
0
0
0
0
0
0
0
0
0
0
0
0
0
1
2
2
2
2
4
4
3
3
0
0
0
0
0
0
0
0
0
0
0
0
0
0
0
0
0
0
0
0
0
0
1
2
2
2
2
4
4
3
3
0
0
0
0
0
0
0
0
0
0
0
0
0
0
0
0
0
0
0
0
0
0
0
2
2
2
2
4
4
3
3
0
0
0
0
0
0
0
0
0
0
0
0
0
0
0
0
0
0
0
0
0
0
0
2
2
2
2
4
4
3
3
0
0
0
0
0
0
0
0
0
0
0
0
0
0
0
0
0
0
0
0
0
0
0
2
2
2
2
4
4
3
3
0
0
0
0
0
0
0
0
0
0
0
0
0
0
0
0
0
0
0
0
0
0
0
2
2
2
2
4
4
3
3
0
0
0
0
0
0
0
0
0
0
0
0
0
0
0
0
0
0
0
0
0
0
0
2
2
2
2
4
4
3
3
0
0
0
0
0
0
0
0
0
0
0
0
0
0
0
0
0
0
0
0
0
0
0
2
2
2
2
4
4
3
3
0
0
0
0
0
0
0
0
0
0
0
0
0
0
0
0
0
0
0
0
0
0
0
2
2
2
2
4
4
3
3
0
0
0
0
0
0
0
0
0
0
0
0
0
0
0
0
0
0
0
0
0
0
0
2
2
2
2
4
4
3
3
0
0
0
0
0
0
0
0
0
0
0
0
0
0
0
0
0
0
0
0
0
0
0
2
2
2
2
4
4
3
3
0
0
0
0
0
0
0
0
0
0
0
0
0
0
0
0
0
0
0
0
0
0
1
2
2
2
2
4
4
3
3
0
0
0
0
0
0
0
0
0
0
0
0
0
0
0
0
0
0
0
0
0
0
1
2
2
2
2
4
4
3
3
0
0
0
0
0
0
0
0
0
0
0
0
0
0
0
0
0
0
0
0
0
0
1
2
2
2
2
4
4
3
3
0
0
0
0
0
0
0
0
0
0
0
0
0
0
0
0
0
0
0
0
0
0
1
2
2
2
2
4
4
3
3
0
0
0
0
0
0
0
0
0
0
0
0
0
0
0
0
0
0
0
0
0
0
1
2
2
2
2
4
4
3
3
0
0
0
0
0
0
0
0
0
0
0
0
0
0
0
0
0
0
0
0
0
0
1
2
2
2
2
4
4
3
3
0
0
0
0
0
0
0
0
0
0
0
0
0
0
0
0
0
0
0
0
0
0
1
2
2
2
2
4
4
3
3
0
0
0
0
0
0
0
0
0
0
0
0
0
0
0
0
0
0
0
0
0
0
1
2
2
2
2
4
4
3
3
0
0
0
0
0
0
0
0
0
0
0
0
0
0
0
0
0
0
0
0
0
0
1
2
2
2
2
4
4
3
3
0
0
0
0
0
0
0
0
0
0
0
0
0
0
0
0
0
0
0
0
0
0
1
2
2
2
2
4
4
3
3
0
0
0
0
0
0
0
0
0
0
0
0
0
0
0
0
0
0
0
0
0
0
1
2
2
2
2
4
4
3
3
0
0
0
0
0
0
0
0
0
0
0
0
0
0
0
0
0
0
0
0
0
0
1
2
2
2
2
4
4
3
3
0
0
0
0
0
0
0
0
0
0
0
0
0
0
0
0
0
0
0
0
0
0
1
2
2
2
2
4
4
3
3
0
0
0
0
0
0
0
0
0
0
0
0
0
0
0
0
0
0
0
0
0
0
1
2
2
2
2
4
4
3
3
0
0
0
0
0
0
0
0
0
0
0
0
0
0
0
0
0
0
0
0
0
1
1
2
2
2
2
4
4
3
3
0
0
0
0
0
0
0
0
0
0
0
0
0
0
0
0
0
0
0
0
0
1
1
2
2
2
2
4
4
3
3
3
3
3
3
3
3
3
3
3
3
3
3
3
3
3
3
3
3
3
3
3
3
3
3
2
2
2
4
4
3
3
3
3
3
3
3
3
3
3
3
3
3
3
3
3
3
3
3
3
3
3
3
3
3
3
2
2
2
4
4
4
4
4
4
4
4
4
4
4
4
4
4
4
4
4
4
4
4
4
4
4
4
4
4
4
4
2
2
2
4
4
4
4
4
4
4
4
4
4
4
4
4
4
4
4
4
4
4
4
4
4
4
4
4
4
4
4
2
2
2
</DataArray>
<DataArray NumberOfComponents='1' type='Float32' Name='Temperature' format='ascii'>
0.000000
0.000000
0.000000
0.000000
0.000000
0.000000
0.000000
0.000000
0.000000
0.000000
0.000000
0.000000
0.000000
0.000000
0.000000
0.000000
0.000000
0.000000
0.000000
0.000000
0.000000
0.000000
0.000000
0.000000
0.000000
0.000000
0.000000
0.000000
-5.000000
-5.000000
-5.000000
0.000000
0.000000
0.000000
0.000000
0.000000
0.000000
0.000000
0.000000
0.000000
0.000000
0.000000
0.000000
0.000000
0.000000
0.000000
0.000000
0.000000
0.000000
0.000000
0.000000
0.000000
0.000000
0.000000
0.000000
0.000000
0.000000
0.000000
0.000000
-5.000000
-5.000000
-5.000000
0.000000
0.000000
0.000000
0.000000
0.000000
0.000000
0.000000
0.000000
0.000000
0.000000
0.000000
0.000000
0.000000
0.000000
0.000000
0.000000
0.000000
0.000000
0.000000
0.000000
0.000000
0.000000
0.000000
0.000000
0.000000
0.000000
0.000000
0.000000
-5.000000
-5.000000
-5.000000
0.000000
0.000000
0.000000
0.000000
0.000000
0.000000
0.000000
0.000000
0.000000
0.000000
0.000000
0.000000
0.000000
0.000000
0.000000
0.000000
0.000000
0.000000
0.000000
0.000000
0.000000
0.000000
0.000000
0.000000
0.000000
0.000000
0.000000
0.000000
-5.000000
-5.000000
-5.000000
0.000000
0.000000
0.000000
0.000000
0.147118
0.263518
0.380959
0.491891
0.595510
0.689875
0.773281
0.844063
0.900674
0.941719
0.965997
0.972538
0.960630
0.929845
0.880040
0.811355
0.724185
0.619064
0.496773
0.356557
0.204319
0.009813
-0.003634
-2.130714
-5.000000
-5.000000
-5.000000
0.000000
0.000000
0.000000
0.000000
0.266381
0.476822
0.689392
0.890175
1.077766
1.248642
1.399717
1.527974
1.630606
1.705085
1.749234
1.761299
1.740002
1.684579
1.594803
1.470977
1.313904
1.124718
0.905074
0.654220
0.383674
0.009986
-0.005597
-2.373569
-5.000000
-5.000000
-5.000000
0.000000
0.000000
0.000000
0.000000
0.391588
0.701009
1.013574
1.308880
1.584864
1.836345
2.058781
2.247724
2.399037
2.508990
2.574377
2.592621
2.561857
2.480994
2.349752
2.168670
1.939094
1.663009
1.343387
0.980559
0.591478
0.085239
-0.003669
-2.456923
-5.000000
-5.000000
-5.000000
0.000000
0.000000
0.000000
0.000000
0.517386
0.926250
1.339353
1.729763
2.094765
2.427517
2.722004
2.972331
3.173008
3.319086
3.406319
3.431303
3.391594
3.285797
3.113622
2.875913
2.574670
2.212932
1.795288
1.324310
0.820944
0.204380
-0.001395
-2.465873
-5.000000
-5.000000
-5.000000
0.000000
0.000000
0.000000
0.000000
0.644918
1.154640
1.669767
2.156770
2.612286
3.027785
3.395751
3.708808
3.960078
4.143361
4.253346
4.285790
4.237673
4.107313
3.894441
3.600254
3.227475
2.780302
2.265028
1.686845
1.069456
0.341730
0.000378
-2.455793
-5.000000
-5.000000
-5.000000
0.000000
0.000000
0.000000
0.000000
0.773971
1.385792
2.004267
2.589211
3.136614
3.636237
4.079040
4.456128
4.759201
4.980778
5.114455
5.155142
5.099242
4.944798
4.691583
4.341169
3.897010
3.364452
2.751404
2.065490
1.332266
0.490073
0.001990
-2.439809
-5.000000
-5.000000
-5.000000
0.000000
0.000000
0.000000
0.000000
0.904266
1.619212
2.342142
3.026174
3.666654
4.251621
4.770482
5.212795
5.568803
5.829712
5.988008
6.037737
5.974733
5.796770
5.503674
5.097388
4.582057
3.964083
3.252795
2.457948
1.606375
0.645992
0.004136
-2.421681
-5.000000
-5.000000
-5.000000
0.000000
0.000000
0.000000
0.000000
1.035207
1.853831
2.681844
3.465657
4.199980
4.871118
5.466912
5.975344
6.385175
6.686276
6.870005
6.929544
6.860155
6.659362
6.327049
5.865509
5.279517
4.576378
3.766598
2.861749
1.889538
0.807623
0.005493
-2.402603
-5.000000
-5.000000
-5.000000
0.000000
0.000000
0.000000
0.000000
1.165902
2.088048
3.021053
3.904651
4.732929
5.490462
6.163514
6.738483
7.202633
7.544483
7.754260
7.824284
7.749263
7.526487
7.155911
6.640162
5.984566
5.197163
4.289349
3.274149
2.179757
0.973721
0.006803
-2.382980
-5.000000
-5.000000
-5.000000
0.000000
0.000000
0.000000
0.000000
1.295161
2.319726
3.356663
4.339125
5.260589
6.103918
6.853810
7.495080
8.013494
8.396225
8.632375
8.713418
8.633535
8.389814
7.982305
7.413971
6.690618
5.820848
4.816620
3.691959
2.475032
1.143255
0.007617
-2.362987
-5.000000
-5.000000
-5.000000
0.000000
0.000000
0.000000
0.000000
1.421512
2.546228
3.684845
4.764102
5.776887
6.704393
7.529775
8.236290
8.808227
9.231433
9.493908
9.586311
9.502338
9.238919
8.796247
8.177643
7.389359
6.440405
5.342955
4.111453
2.773266
1.315373
0.008634
-2.342667
-5.000000
-5.000000
-5.000000
0.000000
0.000000
0.000000
0.000000
1.543250
2.764483
4.001140
5.173788
6.274757
7.283626
8.182062
8.951809
9.575720
10.038358
10.326664
10.430531
10.343216
10.061557
9.585953
8.920142
8.070839
7.047368
5.861789
4.528297
3.072301
1.489466
0.009115
-2.321966
-5.000000
-5.000000
-5.000000
0.000000
0.000000
0.000000
0.000000
1.658482
2.971098
4.300613
5.561768
6.746369
7.832469
8.800316
9.630215
10.303654
10.803974
11.117119
11.232271
11.142316
10.844066
10.338209
9.628985
8.723654
7.631855
6.365335
4.937398
3.369926
1.665569
0.009600
-2.300474
-5.000000
-5.000000
-5.000000
0.000000
0.000000
0.000000
0.000000
1.765208
3.162478
4.578042
5.921255
7.183439
8.341235
9.373575
10.259421
10.978990
11.514490
11.850944
11.976897
11.884930
11.571896
11.038855
10.290658
9.335236
8.182669
6.844406
5.332482
3.663793
1.845456
0.009836
-2.276533
-5.000000
-5.000000
-5.000000
0.000000
0.000000
0.000000
0.000000
1.861399
3.334981
4.828135
6.245370
7.577574
8.800114
9.890733
10.827178
11.588516
12.155930
12.513619
12.649572
12.556124
12.230233
11.673392
10.891159
9.892286
8.687510
7.288243
5.705317
3.950472
2.032050
0.009888
-2.245911
-5.000000
-5.000000
-5.000000
0.000000
0.000000
0.000000
0.000000
1.945093
3.485081
5.045768
6.527450
7.920643
9.199603
10.341035
11.321628
12.119441
12.714765
13.091088
13.235922
13.141421
12.804678
12.227655
11.416659
10.381376
9.133425
7.684581
6.045013
4.222541
2.224876
0.043574
-2.203715
-5.000000
-5.000000
-5.000000
0.000000
0.000000
0.000000
0.000000
2.014481
3.609528
5.226220
6.761362
8.205160
9.530952
10.714580
11.731852
12.559991
13.178546
13.570415
13.722724
13.627490
13.281956
12.688522
11.854227
10.789693
9.507538
8.020243
6.337916
4.466259
2.411142
0.166174
-2.151167
-5.000000
-5.000000
-5.000000
0.000000
0.000000
0.000000
0.000000
2.067994
3.705510
5.365403
6.941791
8.424642
9.786585
11.002794
12.048398
12.899972
13.536494
13.940403
14.098532
14.002797
13.650566
13.044607
12.192562
11.105866
9.798055
8.282405
6.569306
4.663601
2.568924
0.276943
-2.100186
-5.000000
-5.000000
-5.000000
0.000000
0.000000
0.000000
0.000000
2.104386
3.770783
5.460059
7.064503
8.573923
9.960463
11.198848
12.263738
13.131270
13.780029
14.192144
14.354242
14.258169
13.901369
13.286851
12.422658
11.320768
9.995344
8.460253
6.726198
4.797724
2.677099
0.354262
-2.063019
-5.000000
-5.000000
-5.000000
0.000000
0.000000
0.000000
0.000000
2.122788
3.803789
5.507923
7.126555
8.649411
10.048392
11.297992
12.372637
13.248241
13.903189
14.319448
14.483535
14.387244
14.028038
13.409005
12.538328
11.428169
10.092889
8.546537
6.799950
4.857766
2.722451
0.384229
-2.047267
-5.000000
-5.000000
-5.000000
0.000000
0.000000
0.000000
0.000000
2.122755
3.803729
5.507835
7.126439
8.649268
10.048222
11.297796
12.372419
13.248001
13.902926
14.319153
14.483185
14.386787
14.027369
13.407937
12.536538
11.425139
10.087854
8.538491
6.787859
4.841183
2.702798
0.365833
-2.054704
-5.000000
-5.000000
-5.000000
0.000000
0.000000
0.000000
0.000000
2.104288
3.770606
5.459799
7.064160
8.573499
9.959960
11.198270
12.263092
13.130561
13.779252
14.191277
14.353217
14.256837
13.899435
13.283780
12.417540
11.312165
9.981164
8.437828
6.692920
4.752758
2.624725
0.305893
-2.083064
-5.000000
-5.000000
-5.000000
0.000000
0.000000
0.000000
0.000000
2.067836
3.705222
5.364981
6.941235
8.423955
9.785770
11.001860
12.047355
12.898828
13.535245
13.939016
14.096906
14.000707
13.647568
13.039900
12.184810
11.093004
9.777184
8.250034
6.522403
4.601997
2.499386
0.214987
-2.127000
-5.000000
-5.000000
-5.000000
0.000000
0.000000
0.000000
0.000000
2.014268
3.609143
5.225655
6.760617
8.204239
9.529860
10.713329
11.730456
12.558464
13.176888
13.568588
13.720609
13.624818
13.278191
12.682714
11.844818
10.774359
9.483181
7.983448
6.286307
4.401171
2.341039
0.106321
-2.177489
-5.000000
-5.000000
-5.000000
0.000000
0.000000
0.000000
0.000000
1.944835
3.484613
5.045081
6.526546
7.919524
9.198278
10.339518
11.319939
12.117600
12.712778
13.088922
13.233458
13.138375
12.800494
12.221345
11.406652
10.365416
9.108701
7.648376
5.996175
4.164279
2.166244
0.009902
-2.223578
-5.000000
-5.000000
-5.000000
0.000000
0.000000
0.000000
0.000000
1.861106
3.334450
4.827355
6.244342
7.576303
8.798610
9.889012
10.825266
11.586439
12.153704
12.511225
12.646904
12.552921
12.225971
11.667153
10.881512
9.877271
8.664876
7.256192
5.663951
3.904332
1.990351
0.009886
-2.257271
-5.000000
-5.000000
-5.000000
0.000000
0.000000
0.000000
0.000000
1.764891
3.161904
4.577198
5.920144
7.182065
8.339609
9.371717
10.257361
10.976762
11.512121
11.848432
11.974167
11.881765
11.567850
11.033147
10.282097
9.322265
8.163660
6.818387
5.300338
3.630330
1.818255
0.009690
-2.282212
-5.000000
-5.000000
-5.000000
0.000000
0.000000
0.000000
0.000000
1.658153
2.970502
4.299736
5.560614
6.744940
7.830779
8.798388
9.628081
10.301356
10.801552
11.114591
11.229597
11.139341
10.840446
10.333335
9.621943
8.713301
7.617106
6.345786
4.914204
3.347055
1.648461
0.009481
-2.303337
-5.000000
-5.000000
-5.000000
0.000000
0.000000
0.000000
0.000000
1.542919
2.763885
4.000260
5.172629
6.273322
7.281930
8.180128
8.949672
9.573429
10.035964
10.324205
10.428003
10.340530
10.058477
9.582048
8.914761
8.063197
7.036788
5.848170
4.512682
3.057481
1.478872
0.009082
-2.323596
-5.000000
-5.000000
-5.000000
0.000000
0.000000
0.000000
0.000000
1.421191
2.545645
3.683989
4.762973
5.775490
6.702741
7.527893
8.234215
8.806011
9.229135
9.491583
9.583990
9.499988
9.236406
8.793294
8.173824
7.384167
6.433434
5.334209
4.101690
2.764253
1.309111
0.008548
-2.343593
-5.000000
-5.000000
-5.000000
0.000000
0.000000
0.000000
0.000000
1.294857
2.319176
3.355853
4.338057
5.259266
6.102355
6.852029
7.493119
8.011406
8.394075
8.630230
8.711332
8.631524
8.387824
7.980183
7.411461
6.687409
5.816693
4.811530
3.686388
2.469982
1.139818
0.007951
-2.363487
-5.000000
-5.000000
-5.000000
0.000000
0.000000
0.000000
0.000000
1.165623
2.087541
3.020307
3.903667
4.731710
5.489021
6.161873
6.736678
7.200716
7.542519
7.752323
7.822443
7.747565
7.524936
7.154441
6.638639
5.982804
5.195005
4.286772
3.271366
2.177258
0.972025
0.006626
-2.383247
-5.000000
-5.000000
-5.000000
0.000000
0.000000
0.000000
0.000000
1.034957
1.853376
2.681175
3.464774
4.198886
4.869824
5.465437
5.973723
6.383456
6.684521
6.868288
6.927941
6.858731
6.658154
6.326048
5.864655
5.278704
4.575496
3.765592
2.860672
1.888572
0.806975
0.005485
-2.402708
-5.000000
-5.000000
-5.000000
0.000000
0.000000
0.000000
0.000000
0.904048
1.618815
2.341557
3.025402
3.665697
4.250487
4.769191
5.211375
5.567298
5.828178
5.986514
6.036359
5.973540
5.795816
5.502982
5.096937
4.581791
3.963919
3.252659
2.457808
1.606256
0.645942
0.004140
-2.421659
-5.000000
-5.000000
-5.000000
0.000000
0.000000
0.000000
0.000000
0.773785
1.385454
2.003769
2.588553
3.135798
3.635270
4.077937
4.454915
4.757915
4.979468
5.113182
5.153973
5.098245
4.944029
4.691078
4.340931
3.897006
3.364620
2.751667
2.065780
1.332545
0.490333
0.002577
-2.439689
-5.000000
-5.000000
-5.000000
0.000000
0.000000
0.000000
0.000000
0.644765
1.154360
1.669356
2.156226
2.611611
3.026983
3.394837
3.707801
3.959008
4.142271
4.252285
4.284816
4.236845
4.106683
3.894046
3.600106
3.227557
2.780566
2.265405
1.687260
1.069849
0.342063
0.000761
-2.455661
-5.000000
-5.000000
-5.000000
0.000000
0.000000
0.000000
0.000000
0.517264
0.926027
1.339025
1.729328
2.094226
2.426876
2.721272
2.971524
3.172149
3.318208
3.405462
3.430513
3.390919
3.285281
3.113297
2.875794
2.574746
2.213168
1.795629
1.324688
0.821294
0.204658
-0.001274
-2.465776
-5.000000
-5.000000
-5.000000
0.000000
0.000000
0.000000
0.000000
0.391495
0.700840
1.013325
1.308551
1.584454
1.835858
2.058224
2.247109
2.398382
2.508318
2.573719
2.592011
2.561330
2.480583
2.349484
2.168557
1.939132
1.663172
1.343634
0.980834
0.591728
0.085421
-0.003786
-2.456864
-5.000000
-5.000000
-5.000000
0.000000
0.000000
0.000000
0.000000
0.266317
0.476705
0.689220
0.889947
1.077483
1.248306
1.399332
1.527548
1.630151
1.704617
1.748774
1.760869
1.739625
1.684279
1.594599
1.470877
1.313905
1.124806
0.905220
0.654386
0.383818
0.009991
-0.005136
-2.373523
-5.000000
-5.000000
-5.000000
0.000000
0.000000
0.000000
0.000000
0.147082
0.263452
0.380861
0.491761
0.595349
0.689683
0.773061
0.843819
0.900413
0.941450
0.965731
0.972287
0.960408
0.929664
0.879910
0.811282
0.724169
0.619096
0.496838
0.356634
0.204384
0.009830
-0.003878
-2.130706
-5.000000
-5.000000
-5.000000
0.000000
0.000000
0.000000
0.000000
0.000000
0.000000
0.000000
0.000000
0.000000
0.000000
0.000000
0.000000
0.000000
0.000000
0.000000
0.000000
0.000000
0.000000
0.000000
0.000000
0.000000
0.000000
0.000000
0.000000
0.000000
0.000000
0.000000
0.000000
-5.000000
-5.000000
-5.000000
0.000000
0.000000
0.000000
0.000000
0.000000
0.000000
0.000000
0.000000
0.000000
0.000000
0.000000
0.000000
0.000000
0.000000
0.000000
0.000000
0.000000
0.000000
0.000000
0.000000
0.000000
0.000000
0.000000
0.000000
0.000000
0.000000
0.000000
0.000000
-5.000000
-5.000000
-5.000000
0.000000
0.000000
0.000000
0.000000
0.000000
0.000000
0.000000
0.000000
0.000000
0.000000
0.000000
0.000000
0.000000
0.000000
0.000000
0.000000
0.000000
0.000000
0.000000
0.000000
0.000000
0.000000
0.000000
0.000000
0.000000
0.000000
0.000000
0.000000
-5.000000
-5.000000
-5.000000
0.000000
0.000000
0.000000
0.000000
0.000000
0.000000
0.000000
0.000000
0.000000
0.000000
0.000000
0.000000
0.000000
0.000000
0.000000
0.000000
0.000000
0.000000
0.000000
0.000000
0.000000
0.000000
0.000000
0.000000
0.000000
0.000000
0.000000
0.000000
-5.000000
-5.000000
-5.000000
</DataArray>
</PointData>
<Cells>
<DataArray type='Int32' Name='connectivity' format='ascii'>
0
1
2
3
4
5
6
7
8
9
10
11
12
13
14
15
16
17
18
19
20
21
22
23
24
25
26
27
28
29
30
31
32
33
34
35
36
37
38
39
40
41
42
43
44
45
46
47
48
49
50
51
52
53
54
55
56
57
58
59
60
61
62
63
64
65
66
67
68
69
70
71
72
73
74
75
76
77
78
79
80
81
82
83
84
85
86
87
88
89
90
91
92
93
94
95
96
97
98
99
100
101
102
103
104
105
106
107
108
109
110
111
112
113
114
115
116
117
118
119
120
121
122
123
124
125
126
127
128
129
130
131
132
133
134
135
136
137
138
139
140
141
142
143
144
145
146
147
148
149
150
151
152
153
154
155
156
157
158
159
160
161
162
163
164
165
166
167
168
169
170
171
172
173
174
175
176
177
178
179
180
181
182
183
184
185
186
187
188
189
190
191
192
193
194
195
196
197
198
199
200
201
202
203
204
205
206
207
208
209
210
211
212
213
214
215
216
217
218
219
220
221
222
223
224
225
226
227
228
229
230
231
232
233
234
235
236
237
238
239
240
241
242
243
244
245
246
247
248
249
250
251
252
253
254
255
256
257
258
259
260
261
262
263
264
265
266
267
268
269
270
271
272
273
274
275
276
277
278
279
280
281
282
283
284
285
286
287
288
289
290
291
292
293
294
295
296
297
298
299
300
301
302
303
304
305
306
307
308
309
310
311
312
313
314
315
316
317
318
319
320
321
322
323
324
325
326
327
328
329
330
331
332
333
334
335
336
337
338
339
340
341
342
343
344
345
346
347
348
349
350
351
352
353
354
355
356
357
358
359
360
361
362
363
364
365
366
367
368
369
370
371
372
373
374
375
376
377
378
379
380
381
382
383
384
385
386
387
388
389
390
391
392
393
394
395
396
397
398
399
400
401
402
403
404
405
406
407
408
409
410
411
412
413
414
415
416
417
418
419
420
421
422
423
424
425
426
427
428
429
430
431
432
433
434
435
436
437
438
439
440
441
442
443
444
445
446
447
448
449
450
451
452
453
454
455
456
457
458
459
460
461
462
463
464
465
466
467
468
469
470
471
472
473
474
475
476
477
478
479
480
481
482
483
484
485
486
487
488
489
490
491
492
493
494
495
496
497
498
499
500
501
502
503
504
505
506
507
508
509
510
511
512
513
514
515
516
517
518
519
520
521
522
523
524
525
526
527
528
529
530
531
532
533
534
535
536
537
538
539
540
541
542
543
544
545
546
547
548
549
550
551
552
553
554
555
556
557
558
559
560
561
562
563
564
565
566
567
568
569
570
571
572
573
574
575
576
577
578
579
580
581
582
583
584
585
586
587
588
589
590
591
592
593
594
595
596
597
598
599
600
601
602
603
604
605
606
607
608
609
610
611
612
613
614
615
616
617
618
619
620
621
622
623
624
625
626
627
628
629
630
631
632
633
634
635
636
637
638
639
640
641
642
643
644
645
646
647
648
649
650
651
652
653
654
655
656
657
658
659
660
661
662
663
664
665
666
667
668
669
670
671
672
673
674
675
676
677
678
679
680
681
682
683
684
685
686
687
688
689
690
691
692
693
694
695
696
697
698
699
700
701
702
703
704
705
706
707
708
709
710
711
712
713
714
715
716
717
718
719
720
721
722
723
724
725
726
727
728
729
730
731
732
733
734
735
736
737
738
739
740
741
742
743
744
745
746
747
748
749
750
751
752
753
754
755
756
757
758
759
760
761
762
763
764
765
766
767
768
769
770
771