<?xml version='1.0' encoding='UTF-8'?>
<VTKFile xmlns='VTK' byte_order='LittleEndian' version='0.1' type='UnstructuredGrid'>
<UnstructuredGrid>
<Piece NumberOfCells='1488' NumberOfPoints='1488'>
<Points>
<DataArray NumberOfComponents='3' type='Float32' Name='Position' format='ascii'>
-0.075000 -0.075000 0.000000
-0.075000 -0.050000 0.000000
-0.075000 -0.025000 0.000000
-0.075000 0.000000 0.000000
-0.075000 0.025000 0.000000
-0.075000 0.050000 0.000000
-0.075000 0.075000 0.000000
-0.075000 0.100000 0.000000
-0.075000 0.125000 0.000000
-0.075000 0.150000 0.000000
-0.075000 0.175000 0.000000
-0.075000 0.200000 0.000000
-0.075000 0.225000 0.000000
-0.075000 0.250000 0.000000
-0.075000 0.275000 0.000000
-0.075000 0.300000 0.000000
-0.075000 0.325000 0.000000
-0.075000 0.350000 0.000000
-0.075000 0.375000 0.000000
-0.075000 0.400000 0.000000
-0.075000 0.425000 0.000000
-0.075000 0.450000 0.000000
-0.075000 0.475000 0.000000
-0.075000 0.500000 0.000000
-0.075000 0.525000 0.000000
-0.075000 0.550000 0.000000
-0.075000 0.575000 0.000000
-0.075000 0.600000 0.000000
-0.075000 0.625000 0.000000
-0.075000 0.650000 0.000000
-0.075000 0.675000 0.000000
-0.050000 -0.075000 0.000000
-0.050000 -0.050000 0.000000
-0.050000 -0.025000 0.000000
-0.050000 0.000000 0.000000
-0.050000 0.025000 0.000000
-0.050000 0.050000 0.000000
-0.050000 0.075000 0.000000
-0.050000 0.100000 0.000000
-0.050000 0.125000 0.000000
-0.050000 0.150000 0.000000
-0.050000 0.175000 0.000000
-0.050000 0.200000 0.000000
-0.050000 0.225000 0.000000
-0.050000 0.250000 0.000000
-0.050000 0.275000 0.000000
-0.050000 0.300000 0.000000
-0.050000 0.325000 0.000000
-0.050000 0.350000 0.000000
-0.050000 0.375000 0.000000
-0.050000 0.400000 0.000000
-0.050000 0.425000 0.000000
-0.050000 0.450000 0.000000
-0.050000 0.475000 0.000000
-0.050000 0.500000 0.000000
-0.050000 0.525000 0.000000
-0.050000 0.550000 0.000000
-0.050000 0.575000 0.000000
-0.050000 0.600000 0.000000
-0.050000 0.625000 0.000000
-0.050000 0.650000 0.000000
-0.050000 0.675000 0.000000
-0.025000 -0.075000 0.000000
-0.025000 -0.050000 0.000000
-0.025000 -0.025000 0.000000
-0.025000 0.000000 0.000000
-0.025000 0.025000 0.000000
-0.025000 0.050000 0.000000
-0.025000 0.075000 0.000000
-0.025000 0.100000 0.000000
-0.025000 0.125000 0.000000
-0.025000 0.150000 0.000000
-0.025000 0.175000 0.000000
-0.025000 0.200000 0.000000
-0.025000 0.225000 0.000000
-0.025000 0.250000 0.000000
-0.025000 0.275000 0.000000
-0.025000 0.300000 0.000000
-0.025000 0.325000 0.000000
-0.025000 0.350000 0.000000
-0.025000 0.375000 0.000000
-0.025000 0.400000 0.000000
-0.025000 0.425000 0.000000
-0.025000 0.450000 0.000000
-0.025000 0.475000 0.000000
-0.025000 0.500000 0.000000
-0.025000 0.525000 0.000000
-0.025000 0.550000 0.000000
-0.025000 0.575000 0.000000
-0.025000 0.600000 0.000000
-0.025000 0.625000 0.000000
-0.025000 0.650000 0.000000
-0.025000 0.675000 0.000000
0.000000 -0.075000 0.000000
0.000000 -0.050000 0.000000
0.000000 -0.025000 0.000000
0.000000 0.000000 0.000000
0.000000 0.025000 0.000000
0.000000 0.050000 0.000000
0.000000 0.075000 0.000000
0.000000 0.100000 0.000000
0.000000 0.125000 0.000000
0.000000 0.150000 0.000000
0.000000 0.175000 0.000000
0.000000 0.200000 0.000000
0.000000 0.225000 0.000000
0.000000 0.250000 0.000000
0.000000 0.275000 0.000000
0.000000 0.300000 0.000000
0.000000 0.325000 0.000000
0.000000 0.350000 0.000000
0.000000 0.375000 0.000000
0.000000 0.400000 0.000000
0.000000 0.425000 0.000000
0.000000 0.450000 0.000000
0.000000 0.475000 0.000000
0.000000 0.500000 0.000000
0.000000 0.525000 0.000000
0.000000 0.550000 0.000000
0.000000 0.575000 0.000000
0.000000 0.600000 0.000000
0.000000 0.625000 0.000000
0.000000 0.650000 0.000000
0.000000 0.675000 0.000000
0.025000 -0.075000 0.000000
0.025000 -0.050000 0.000000
0.025000 -0.025000 0.000000
0.025000 0.000000 0.000000
0.025000 0.025000 0.000000
0.025000 0.050000 0.000000
0.025000 0.075000 0.000000
0.025000 0.100000 0.000000
0.025000 0.125000 0.000000
0.025000 0.150000 0.000000
0.025000 0.175000 0.000000
0.025000 0.200000 0.000000
0.025000 0.225000 0.000000
0.025000 0.250000 0.000000
0.025000 0.275000 0.000000
0.025000 0.300000 0.000000
0.025000 0.325000 0.000000
0.025000 0.350000 0.000000
0.025000 0.375000 0.000000
0.025000 0.400000 0.000000
0.025000 0.425000 0.000000
0.025000 0.450000 0.000000
0.025000 0.475000 0.000000
0.025000 0.500000 0.000000
0.025000 0.525000 0.000000
0.025000 0.550000 0.000000
0.025000 0.575000 0.000000
0.025000 0.600000 0.000000
0.025000 0.625000 0.000000
0.025000 0.650000 0.000000
0.025000 0.675000 0.000000
0.050000 -0.075000 0.000000
0.050000 -0.050000 0.000000
0.050000 -0.025000 0.000000
0.050000 0.000000 0.000000
0.050000 0.025000 0.000000
0.050000 0.050000 0.000000
0.050000 0.075000 0.000000
0.050000 0.100000 0.000000
0.050000 0.125000 0.000000
0.050000 0.150000 0.000000
0.050000 0.175000 0.000000
0.050000 0.200000 0.000000
0.050000 0.225000 0.000000
0.050000 0.250000 0.000000
0.050000 0.275000 0.000000
0.050000 0.300000 0.000000
0.050000 0.325000 0.000000
0.050000 0.350000 0.000000
0.050000 0.375000 0.000000
0.050000 0.400000 0.000000
0.050000 0.425000 0.000000
0.050000 0.450000 0.000000
0.050000 0.475000 0.000000
0.050000 0.500000 0.000000
0.050000 0.525000 0.000000
0.050000 0.550000 0.000000
0.050000 0.575000 0.000000
0.050000 0.600000 0.000000
0.050000 0.625000 0.000000
0.050000 0.650000 0.000000
0.050000 0.675000 0.000000
0.075000 -0.075000 0.000000
0.075000 -0.050000 0.000000
0.075000 -0.025000 0.000000
0.075000 0.000000 0.000000
0.075000 0.025000 0.000000
0.075000 0.050000 0.000000
0.075000 0.075000 0.000000
0.075000 0.100000 0.000000
0.075000 0.125000 0.000000
0.075000 0.150000 0.000000
0.075000 0.175000 0.000000
0.075000 0.200000 0.000000
0.075000 0.225000 0.000000
0.075000 0.250000 0.000000
0.075000 0.275000 0.000000
0.075000 0.300000 0.000000
0.075000 0.325000 0.000000
0.075000 0.350000 0.000000
0.075000 0.375000 0.000000
0.075000 0.400000 0.000000
0.075000 0.425000 0.000000
0.075000 0.450000 0.000000
0.075000 0.475000 0.000000
0.075000 0.500000 0.000000
0.075000 0.525000 0.000000
0.075000 0.550000 0.000000
0.075000 0.575000 0.000000
0.075000 0.600000 0.000000
0.075000 0.625000 0.000000
0.075000 0.650000 0.000000
0.075000 0.675000 0.000000
0.100000 -0.075000 0.000000
0.100000 -0.050000 0.000000
0.100000 -0.025000 0.000000
0.100000 0.000000 0.000000
0.100000 0.025000 0.000000
0.100000 0.050000 0.000000
0.100000 0.075000 0.000000
0.100000 0.100000 0.000000
0.100000 0.125000 0.000000
0.100000 0.150000 0.000000
0.100000 0.175000 0.000000
0.100000 0.200000 0.000000
0.100000 0.225000 0.000000
0.100000 0.250000 0.000000
0.100000 0.275000 0.000000
0.100000 0.300000 0.000000
0.100000 0.325000 0.000000
0.100000 0.350000 0.000000
0.100000 0.375000 0.000000
0.100000 0.400000 0.000000
0.100000 0.425000 0.000000
0.100000 0.450000 0.000000
0.100000 0.475000 0.000000
0.100000 0.500000 0.000000
0.100000 0.525000 0.000000
0.100000 0.550000 0.000000
0.100000 0.575000 0.000000
0.100000 0.600000 0.000000
0.100000 0.625000 0.000000
0.100000 0.650000 0.000000
0.100000 0.675000 0.000000
0.125000 -0.075000 0.000000
0.125000 -0.050000 0.000000
0.125000 -0.025000 0.000000
0.125000 0.000000 0.000000
0.125000 0.025000 0.000000
0.125000 0.050000 0.000000
0.125000 0.075000 0.000000
0.125000 0.100000 0.000000
0.125000 0.125000 0.000000
0.125000 0.150000 0.000000
0.125000 0.175000 0.000000
0.125000 0.200000 0.000000
0.125000 0.225000 0.000000
0.125000 0.250000 0.000000
0.125000 0.275000 0.000000
0.125000 0.300000 0.000000
0.125000 0.325000 0.000000
0.125000 0.350000 0.000000
0.125000 0.375000 0.000000
0.125000 0.400000 0.000000
0.125000 0.425000 0.000000
0.125000 0.450000 0.000000
0.125000 0.475000 0.000000
0.125000 0.500000 0.000000
0.125000 0.525000 0.000000
0.125000 0.550000 0.000000
0.125000 0.575000 0.000000
0.125000 0.600000 0.000000
0.125000 0.625000 0.000000
0.125000 0.650000 0.000000
0.125000 0.675000 0.000000
0.150000 -0.075000 0.000000
0.150000 -0.050000 0.000000
0.150000 -0.025000 0.000000
0.150000 0.000000 0.000000
0.150000 0.025000 0.000000
0.150000 0.050000 0.000000
0.150000 0.075000 0.000000
0.150000 0.100000 0.000000
0.150000 0.125000 0.000000
0.150000 0.150000 0.000000
0.150000 0.175000 0.000000
0.150000 0.200000 0.000000
0.150000 0.225000 0.000000
0.150000 0.250000 0.000000
0.150000 0.275000 0.000000
0.150000 0.300000 0.000000
0.150000 0.325000 0.000000
0.150000 0.350000 0.000000
0.150000 0.375000 0.000000
0.150000 0.400000 0.000000
0.150000 0.425000 0.000000
0.150000 0.450000 0.000000
0.150000 0.475000 0.000000
0.150000 0.500000 0.000000
0.150000 0.525000 0.000000
0.150000 0.550000 0.000000
0.150000 0.575000 0.000000
0.150000 0.600000 0.000000
0.150000 0.625000 0.000000
0.150000 0.650000 0.000000
0.150000 0.675000 0.000000
0.175000 -0.075000 0.000000
0.175000 -0.050000 0.000000
0.175000 -0.025000 0.000000
0.175000 0.000000 0.000000
0.175000 0.025000 0.000000
0.175000 0.050000 0.000000
0.175000 0.075000 0.000000
0.175000 0.100000 0.000000
0.175000 0.125000 0.000000
0.175000 0.150000 0.000000
0.175000 0.175000 0.000000
0.175000 0.200000 0.000000
0.175000 0.225000 0.000000
0.175000 0.250000 0.000000
0.175000 0.275000 0.000000
0.175000 0.300000 0.000000
0.175000 0.325000 0.000000
0.175000 0.350000 0.000000
0.175000 0.375000 0.000000
0.175000 0.400000 0.000000
0.175000 0.425000 0.000000
0.175000 0.450000 0.000000
0.175000 0.475000 0.000000
0.175000 0.500000 0.000000
0.175000 0.525000 0.000000
0.175000 0.550000 0.000000
0.175000 0.575000 0.000000
0.175000 0.600000 0.000000
0.175000 0.625000 0.000000
0.175000 0.650000 0.000000
0.175000 0.675000 0.000000
0.200000 -0.075000 0.000000
0.200000 -0.050000 0.000000
0.200000 -0.025000 0.000000
0.200000 0.000000 0.000000
0.200000 0.025000 0.000000
0.200000 0.050000 0.000000
0.200000 0.075000 0.000000
0.200000 0.100000 0.000000
0.200000 0.125000 0.000000
0.200000 0.150000 0.000000
0.200000 0.175000 0.000000
0.200000 0.200000 0.000000
0.200000 0.225000 0.000000
0.200000 0.250000 0.000000
[...]
<PointData>
<DataArray NumberOfComponents='1' type='Int32' Name='ParticleType' format='ascii'>
4
4
4
4
4
4
4
4
4
4
4
4
4
4
4
4
4
4
4
4
4
4
4
4
4
4
4
4
2
2
2
4
4
4
4
4
4
4
4
4
4
4
4
4
4
4
4
4
4
4
4
4
4
4
4
4
4
4
4
2
2
2
4
4
3
3
3
3
3
3
3
3
3
3
3
3
3
3
3
3
3
3
3
3
3
3
3
3
3
3
2
2
2
4
4
3
3
3
3
3
3
3
3
3
3
3
3
3
3
3
3
3
3
3
3
3
3
3
3
3
3
2
2
2
4
4
3
3
0
0
0
0
0
0
0
0
0
0
0
0
0
0
0
0
0
0
0
0
0
0
1
1
2
2
2
4
4
3
3
0
0
0
0
0
0
0
0
0
0
0
0
0
0
0
0
0
0
0
0
0
0
0
1
2
2
2
4
4
3
3
0
0
0
0
0
0
0
0
0
0
0
0
0
0
0
0
0
0
0
0
0
0
0
1
2
2
2
4
4
3
3
0
0
0
0
0
0
0
0
0
0
0
0
0
0
0
0
0
0
0
0
0
0
0
1
2
2
2
4
4
3
3
0
0
0
0
0
0
0
0
0
0
0
0
0
0
0
0
0
0
0
0
0
0
0
1
2
2
2
4
4
3
3
0
0
0
0
0
0
0
0
0
0
0
0
0
0
0
0
0
0
0
0
0
0
0
1
2
2
2
4
4
3
3
0
0
0
0
0
0
0
0
0
0
0
0
0
0
0
0
0
0
0
0
0
0
0
1
2
2
2
4
4
3
3
0
0
0
0
0
0
0
0
0
0
0
0
0
0
0
0
0
0
0
0
0
0
0
1
2
2
2
4
4
3
3
0
0
0
0
0
0
0
0
0
0
0
0
0
0
0
0
0
0
0
0
0
0
0
1
2
2
2
4
4
3
3
0
0
0
0
0
0
0
0
0
0
0
0
0
0
0
0
0
0
0
0
0
0
0
1
2
2
2
4
4
3
3
0
0
0
0
0
0
0
0
0
0
0
0
0
0
0
0
0
0
0
0
0
0
0
1
2
2
2
4
4
3
3
0
0
0
0
0
0
0
0
0
0
0
0
0
0
0
0
0
0
0
0
0
0
0
1
2
2
2
4
4
3
3
0
0
0
0
0
0
0
0
0
0
0
0
0
0
0
0
0
0
0
0
0
0
0
1
2
2
2
4
4
3
3
0
0
0
0
0
0
0
0
0
0
0
0
0
0
0
0
0
0
0
0
0
0
0
1
2
2
2
4
4
3
3
0
0
0
0
0
0
0
0
0
0
0
0
0
0
0
0
0
0
0
0
0
0
0
1
2
2
2
4
4
3
3
0
0
0
0
0
0
0
0
0
0
0
0
0
0
0
0
0
0
0
0
0
0
0
1
2
2
2
4
4
3
3
0
0
0
0
0
0
0
0
0
0
0
0
0
0
0
0
0
0
0
0
0
0
0
1
2
2
2
4
4
3
3
0
0
0
0
0
0
0
0
0
0
0
0
0
0
0
0
0
0
0
0
0
0
0
1
2
2
2
4
4
3
3
0
0
0
0
0
0
0
0
0
0
0
0
0
0
0
0
0
0
0
0
0
0
0
1
2
2
2
4
4
3
3
0
0
0
0
0
0
0
0
0
0
0
0
0
0
0
0
0
0
0
0
0
0
0
1
2
2
2
4
4
3
3
0
0
0
0
0
0
0
0
0
0
0
0
0
0
0
0
0
0
0
0
0
0
0
1
2
2
2
4
4
3
3
0
0
0
0
0
0
0
0
0
0
0
0
0
0
0
0
0
0
0
0
0
0
0
1
2
2
2
4
4
3
3
0
0
0
0
0
0
0
0
0
0
0
0
0
0
0
0
0
0
0
0
0
0
0
1
2
2
2
4
4
3
3
0
0
0
0
0
0
0
0
0
0
0
0
0
0
0
0
0
0
0
0
0
0
0
1
2
2
2
4
4
3
3
0
0
0
0
0
0
0
0
0
0
0
0
0
0
0
0
0
0
0
0
0
0
0
1
2
2
2
4
4
3
3
0
0
0
0
0
0
0
0
0
0
0
0
0
0
0
0
0
0
0
0
0
0
0
1
2
2
2
4
4
3
3
0
0
0
0
0
0
0
0
0
0
0
0
0
0
0
0
0
0
0
0
0
0
0
1
2
2
2
4
4
3
3
0
0
0
0
0
0
0
0
0
0
0
0
0
0
0
0
0
0
0
0
0
0
0
1
2
2
2
4
4
3
3
0
0
0
0
0
0
0
0
0
0
0
0
0
0
0
0
0
0
0
0
0
0
0
1
2
2
2
4
4
3
3
0
0
0
0
0
0
0
0
0
0
0
0
0
0
0
0
0
0
0
0
0
0
0
1
2
2
2
4
4
3
3
0
0
0
0
0
0
0
0
0
0
0
0
0
0
0
0
0
0
0
0
0
0
0
1
2
2
2
4
4
3
3
0
0
0
0
0
0
0
0
0
0
0
0
0
0
0
0
0
0
0
0
0
0
0
1
2
2
2
4
4
3
3
0
0
0
0
0
0
0
0
0
0
0
0
0
0
0
0
0
0
0
0
0
0
0
1
2
2
2
4
4
3
3
0
0
0
0
0
0
0
0
0
0
0
0
0
0
0
0
0
0
0
0
0
0
0
1
2
2
2
4
4
3
3
0
0
0
0
0
0
0
0
0
0
0
0
0
0
0
0
0
0
0
0
0
0
0
1
2
2
2
4
4
3
3
0
0
0
0
0
0
0
0
0
0
0
0
0
0
0
0
0
0
0
0
0
0
0
1
2
2
2
4
4
3
3
0
0
0
0
0
0
0
0
0
0
0
0
0
0
0
0
0
0
0
0
0
0
0
1
2
2
2
4
4
3
3
0
0
0
0
0
0
0
0
0
0
0
0
0
0
0
0
0
0
0
0
0
0
0
1
2
2
2
4
4
3
3
0
0
0
0
0
0
0
0
0
0
0
0
0
0
0
0
0
0
0
0
0
0
0
1
2
2
2
4
4
3
3
0
0
0
0
0
0
0
0
0
0
0
0
0
0
0
0
0
0
0
0
0
0
1
1
2
2
2
4
4
3
3
3
3
3
3
3
3
3
3
3
3
3
3
3
3
3
3
3
3
3
3
3
3
3
3
2
2
2
4
4
3
3
3
3
3
3
3
3
3
3
3
3
3
3
3
3
3
3
3
3
3
3
3
3
3
3
2
2
2
4
4
4
4
4
4
4
4
4
4
4
4
4
4
4
4
4
4
4
4
4
4
4
4
4
4
4
4
2
2
2
4
4
4
4
4
4
4
4
4
4
4
4
4
4
4
4
4
4
4
4
4
4
4
4
4
4
4
4
2
2
2
</DataArray>
<DataArray NumberOfComponents='1' type='Float32' Name='Temperature' format='ascii'>
0.000000
0.000000
0.000000
0.000000
0.000000
0.000000
0.000000
0.000000
0.000000
0.000000
0.000000
0.000000
0.000000
0.000000
0.000000
0.000000
0.000000
0.000000
0.000000
0.000000
0.000000
0.000000
0.000000
0.000000
0.000000
0.000000
0.000000
0.000000
-5.000000
-5.000000
-5.000000
0.000000
0.000000
0.000000
0.000000
0.000000
0.000000
0.000000
0.000000
0.000000
0.000000
0.000000
0.000000
0.000000
0.000000
0.000000
0.000000
0.000000
0.000000
0.000000
0.000000
0.000000
0.000000
0.000000
0.000000
0.000000
0.000000
0.000000
0.000000
-5.000000
-5.000000
-5.000000
0.000000
0.000000
0.000000
0.000000
0.000000
0.000000
0.000000
0.000000
0.000000
0.000000
0.000000
0.000000
0.000000
0.000000
0.000000
0.000000
0.000000
0.000000
0.000000
0.000000
0.000000
0.000000
0.000000
0.000000
0.000000
0.000000
0.000000
0.000000
-5.000000
-5.000000
-5.000000
0.000000
0.000000
0.000000
0.000000
0.000000
0.000000
0.000000
0.000000
0.000000
0.000000
0.000000
0.000000
0.000000
0.000000
0.000000
0.000000
0.000000
0.000000
0.000000
0.000000
0.000000
0.000000
0.000000
0.000000
0.000000
0.000000
0.000000
0.000000
-5.000000
-5.000000
-5.000000
0.000000
0.000000
0.000000
0.000000
0.364161
0.625884
0.853594
1.026386
1.150106
1.233176
1.286252
1.318906
1.338478
1.349901
1.356104
1.358549
1.357632
1.352810
1.342395
1.323007
1.288746
1.230342
1.134586
0.985511
0.762869
0.467578
0.009761
0.005469
-5.000000
-5.000000
-5.000000
0.000000
0.000000
0.000000
0.000000
0.626201
1.076017
1.468741
1.767712
1.982946
2.128703
2.223113
2.282431
2.319054
2.341216
2.353719
2.358888
2.357298
2.348011
2.328229
2.292348
2.230531
2.127277
1.960601
1.704291
1.326589
0.833530
0.019492
0.005868
-5.000000
-5.000000
-5.000000
0.000000
0.000000
0.000000
0.000000
0.855026
1.470541
2.009585
2.422303
2.722172
2.928352
3.065194
3.154378
3.212192
3.249169
3.271174
3.280840
3.278646
3.263309
3.231313
3.175582
3.083497
2.934927
2.701277
2.348880
1.838949
1.181293
0.198879
0.006339
-5.000000
-5.000000
-5.000000
0.000000
0.000000
0.000000
0.000000
1.030554
1.774471
2.429110
2.934852
3.307917
3.570998
3.752691
3.877961
3.964913
4.024508
4.062153
4.079711
4.077043
4.052600
4.002869
3.920683
3.792662
3.596679
3.300698
2.866888
2.253579
1.471400
0.359149
0.006434
-5.000000
-5.000000
-5.000000
0.000000
0.000000
0.000000
0.000000
1.159905
2.000476
2.745465
3.329038
3.769890
4.093212
4.329900
4.505747
4.637936
4.735140
4.799923
4.831633
4.828614
4.789124
4.710729
4.588182
4.410130
4.155740
3.792970
3.282791
2.582498
1.702325
0.488963
0.006565
-5.000000
-5.000000
-5.000000
0.000000
0.000000
0.000000
0.000000
1.253299
2.166664
2.984821
3.639266
4.151569
4.548832
4.862387
5.115901
5.321883
5.482675
5.594295
5.650791
5.647529
5.582637
5.456369
5.268391
5.013386
4.676254
4.229092
3.634784
2.850843
1.886159
0.591113
0.006974
-5.000000
-5.000000
-5.000000
0.000000
0.000000
0.000000
0.000000
1.323632
2.296063
3.180715
3.909995
4.509602
5.008582
5.436931
5.812564
6.138129
6.403715
6.593230
6.691198
6.687773
6.581004
6.376173
6.082232
5.705672
5.243282
4.676683
3.974303
3.095184
2.045986
0.677170
0.007063
-5.000000
-5.000000
-5.000000
0.000000
0.000000
0.000000
0.000000
1.382857
2.410242
3.365068
4.184454
4.900474
5.544864
6.144623
6.707399
7.218963
7.648855
7.960980
8.124373
8.120835
7.948369
7.620502
7.161543
6.597800
5.946386
5.205549
4.353719
3.352800
2.205885
0.759922
0.006831
-5.000000
-5.000000
-5.000000
0.000000
0.000000
0.000000
0.000000
1.440290
2.526126
3.563206
4.497500
5.370680
6.218694
7.064036
7.898726
8.682745
9.354295
9.847042
10.106868
10.103235
9.834119
9.325339
8.624280
7.787386
6.862941
5.874755
4.816551
3.654349
2.385645
0.849973
0.007223
-5.000000
-5.000000
-5.000000
0.000000
0.000000
0.000000
0.000000
1.501743
2.654135
3.790437
4.869789
5.947378
7.065545
8.241076
9.444561
10.600004
11.601744
12.341384
12.732985
12.729245
12.328134
11.572214
10.540667
9.331928
8.038009
6.718460
5.388005
4.017778
2.597042
0.953697
0.007033
-5.000000
-5.000000
-5.000000
0.000000
0.000000
0.000000
0.000000
1.569361
2.797553
4.050323
5.303976
6.631147
8.082998
9.669858
11.335532
12.958095
14.375614
15.426065
15.983435
15.979561
15.412415
14.345432
12.897863
11.221731
9.465190
7.733450
6.067512
4.444210
2.841750
1.072396
0.007287
-5.000000
-5.000000
-5.000000
0.000000
0.000000
0.000000
0.000000
1.642001
2.953026
4.334970
5.784191
7.393752
9.225604
11.283309
13.480069
15.640623
17.537249
18.945679
19.693835
19.689800
18.931557
17.506317
15.579417
13.365094
11.077166
8.873883
6.826280
4.917093
3.111227
1.202332
0.007249
-5.000000
-5.000000
-5.000000
0.000000
0.000000
0.000000
0.000000
1.716129
3.112287
4.627777
6.280101
8.183855
10.412541
12.962880
15.716134
18.441095
20.840256
22.624053
23.572202
23.567997
22.609435
20.808544
18.378895
15.600006
12.755350
10.058822
7.612804
5.405967
3.389065
1.335990
0.006938
-5.000000
-5.000000
-5.000000
0.000000
0.000000
0.000000
0.000000
1.787108
3.264845
4.908326
6.755194
8.940443
11.548337
14.568793
17.852462
21.114814
23.992586
26.134012
27.272768
27.268410
26.118946
23.960174
21.051729
17.735317
14.360041
11.192832
8.366118
5.874499
3.655461
1.464203
0.007468
-5.000000
-5.000000
-5.000000
0.000000
0.000000
0.000000
0.000000
1.850550
3.400943
5.157945
7.176588
9.609261
12.548988
15.979149
19.723564
23.451785
26.744326
29.195854
30.500020
30.495544
29.180447
26.711383
23.388029
19.605635
15.769422
12.191987
9.032085
6.290070
3.892432
1.578495
0.007427
-5.000000
-5.000000
-5.000000
0.000000
0.000000
0.000000
0.000000
1.903355
3.513817
5.363990
7.522559
10.155341
13.361632
17.118951
21.229580
25.327057
28.948071
31.645299
33.080638
33.076088
31.629677
28.914793
25.262872
21.111132
16.908529
13.003468
9.575827
6.631177
4.087866
1.673093
0.007627
-5.000000
-5.000000
-5.000000
0.000000
0.000000
0.000000
0.000000
1.944156
3.600619
5.521475
7.785194
10.567022
13.970251
17.967597
22.345486
26.711567
30.571220
33.446975
34.977690
34.973104
33.431247
30.537774
26.647161
22.226748
17.756731
13.611249
9.985718
6.890014
4.237055
1.745627
0.007197
-5.000000
-5.000000
-5.000000
0.000000
0.000000
0.000000
0.000000
1.973119
3.661922
5.631959
7.968090
10.851598
14.388045
18.546603
23.103029
27.647940
31.666230
34.660642
36.254774
36.250176
34.644878
31.632727
27.583450
22.984160
18.335483
14.028486
10.269027
7.070178
4.341573
1.796723
0.007712
-5.000000
-5.000000
-5.000000
0.000000
0.000000
0.000000
0.000000
1.991334
3.700292
5.700684
8.081085
11.026221
14.642796
18.897700
23.560316
28.211259
32.323467
35.388099
37.019769
37.015171
35.372335
32.289960
28.146755
23.441402
18.686452
14.282905
10.442853
7.181431
4.406501
1.828608
0.007574
-5.000000
-5.000000
-5.000000
0.000000
0.000000
0.000000
0.000000
2.000059
3.718605
5.733334
8.134494
11.108346
14.762047
19.061386
23.772805
28.472368
32.627589
35.724368
37.373224
37.368628
35.708610
32.594090
28.407870
23.653882
18.850087
14.402002
10.524595
7.233997
4.437312
1.843795
0.007667
-5.000000
-5.000000
-5.000000
0.000000
0.000000
0.000000
0.000000
2.000095
3.718674
5.733440
8.134640
11.108535
14.762276
19.061650
23.773098
28.472683
32.627918
35.724707
37.373567
37.368971
35.708949
32.594419
28.408184
23.654174
18.850350
14.402229
10.524780
7.234137
4.437408
1.843847
0.007668
-5.000000
-5.000000
-5.000000
0.000000
0.000000
0.000000
0.000000
1.991442
3.700494
5.700995
8.081510
11.026760
14.643437
18.898421
23.561094
28.212070
32.324295
35.388935
37.020608
37.016009
35.373170
32.290787
28.147565
23.442178
18.687171
14.283540
10.443383
7.181839
4.406780
1.828763
0.007578
-5.000000
-5.000000
-5.000000
0.000000
0.000000
0.000000
0.000000
1.973295
3.662250
5.632454
7.968751
10.852408
14.388963
18.547572
23.103994
27.648857
31.667083
34.661437
36.255536
36.250938
34.645673
31.633578
27.584366
22.985122
18.336448
14.029395
10.269821
7.070811
4.342017
1.796974
0.007722
-5.000000
-5.000000
-5.000000
0.000000
0.000000
0.000000
0.000000
1.944394
3.601057
5.522121
7.786023
10.567977
13.971233
17.968487
22.346172
26.711982
30.571359
33.446893
34.977487
34.972901
33.431164
30.537911
26.647574
22.227431
17.757614
13.612219
9.986650
6.890803
4.237630
1.745961
0.007216
-5.000000
-5.000000
-5.000000
0.000000
0.000000
0.000000
0.000000
1.903647
3.514342
5.364741
7.523472
10.156291
13.362433
17.119386
21.229459
25.326280
28.946661
31.643397
33.078469
33.073919
31.627774
28.913381
25.262092
21.111007
16.908956
13.004254
9.576749
6.632040
4.088529
1.673490
0.007659
-5.000000
-5.000000
-5.000000
0.000000
0.000000
0.000000
0.000000
1.850882
3.401531
5.158757
7.177508
9.610083
12.549414
15.978843
19.722240
23.449304
26.740753
29.191442
30.495157
30.490680
29.176034
26.707808
23.385545
19.604305
15.769106
12.192396
9.032873
6.290931
3.893141
1.578936
0.007467
-5.000000
-5.000000
-5.000000
0.000000
0.000000
0.000000
0.000000
1.787469
3.265475
4.909166
6.756081
8.941091
11.548344
14.567706
17.849903
21.110609
23.986841
26.127093
27.265220
27.260861
26.112026
23.954428
21.047521
17.732751
14.358943
11.192819
8.366729
5.875320
3.656188
1.464672
0.007529
-5.000000
-5.000000
-5.000000
0.000000
0.000000
0.000000
0.000000
1.716508
3.112941
4.628633
6.280966
8.184392
10.412283
12.961300
15.712796
18.435803
20.833143
22.615556
23.562964
23.558759
22.600936
20.801429
18.373600
15.596662
12.753758
10.058542
7.613300
5.406760
3.389800
1.336474
0.007009
-5.000000
-5.000000
-5.000000
0.000000
0.000000
0.000000
0.000000
1.642388
2.953695
4.335848
5.785083
7.394322
9.225383
11.281770
13.476773
15.635376
17.530182
18.937229
19.684646
19.680610
18.923107
17.499249
15.574166
13.361792
11.075613
8.873637
6.826805
4.917908
3.111979
1.202824
0.007309
-5.000000
-5.000000
-5.000000
0.000000
0.000000
0.000000
0.000000
1.569750
2.798231
4.051233
5.304951
6.631900
8.083124
9.668902
11.333113
12.954038
14.370023
15.419303
15.976046
15.972171
15.405652
14.339838
12.893801
11.219302
9.464218
7.733548
6.068217
4.445106
2.842530
1.072894
0.007341
-5.000000
-5.000000
-5.000000
0.000000
0.000000
0.000000
0.000000
1.502128
2.654818
3.791382
4.870879
5.948402
7.066201
8.241024
9.443511
10.597813
11.598472
12.337282
12.728436
12.724695
12.324029
11.568938
10.538468
9.330864
8.037936
6.719082
5.388975
4.018783
2.597854
0.954197
0.007084
-5.000000
-5.000000
-5.000000
0.000000
0.000000
0.000000
0.000000
1.440667
2.526805
3.564176
4.498693
5.371965
6.219880
7.064898
7.899068
8.682460
9.353399
9.845670
10.105237
10.101602
9.832743
9.324436
8.623984
7.787710
6.863774
5.875898
4.817774
3.655449
2.386477
0.850468
0.007254
-5.000000
-5.000000
-5.000000
0.000000
0.000000
0.000000
0.000000
1.383222
2.410906
3.366040
4.185704
4.901937
5.546434
6.146171
6.708804
7.220148
7.649803
7.961734
8.125019
8.121480
7.949118
7.621440
7.162712
6.599180
5.947896
5.207063
4.355104
3.353945
2.206713
0.760406
0.006870
-5.000000
-5.000000
-5.000000
0.000000
0.000000
0.000000
0.000000
1.323977
2.296695
3.181654
3.911235
4.511120
5.010329
5.438840
5.814565
6.140164
6.405750
6.595251
6.693207
6.689780
6.583018
6.378194
6.084245
5.707638
5.245139
4.678357
3.975725
3.096304
2.046775
0.677631
0.007115
-5.000000
-5.000000
-5.000000
0.000000
0.000000
0.000000
0.000000
1.253607
2.167233
2.985676
3.640415
4.153011
4.550549
4.864345
5.118058
5.324196
5.485100
5.596794
5.653325
5.650060
5.585127
5.458776
5.270672
5.015495
4.678142
4.230714
3.636106
2.851853
1.886862
0.591536
0.007076
-5.000000
-5.000000
-5.000000
0.000000
0.000000
0.000000
0.000000
1.160148
2.000932
2.746165
3.329999
3.771123
4.094713
4.331651
4.507720
4.640095
4.737443
4.802324
4.834083
4.831060
4.791513
4.713009
4.590302
4.412042
4.157402
3.794353
3.283879
2.583301
1.702875
0.489307
0.006808
-5.000000
-5.000000
-5.000000
0.000000
0.000000
0.000000
0.000000
1.030696
1.774753
2.429570
2.935520
3.308813
3.572127
3.754042
3.879512
3.966634
4.026362
4.064098
4.081701
4.079029
4.054530
4.004695
3.922357
3.794140
3.597925
3.301689
2.867620
2.254075
1.471711
0.359344
0.006852
-5.000000
-5.000000
-5.000000
0.000000
0.000000
0.000000
0.000000
0.855041
1.470604
2.009744
2.422603
2.722645
2.929009
3.066030
3.155375
3.213325
3.250406
3.272483
3.282183
3.279984
3.264603
3.232521
3.176664
3.084415
2.935651
2.701788
2.349184
1.839078
1.181307
0.198837
0.006148
-5.000000
-5.000000
-5.000000
0.000000
0.000000
0.000000
0.000000
0.626102
1.075881
1.468623
1.767668
1.983015
2.128902
2.223442
2.282876
2.319596
2.341832
2.354383
2.359575
2.357981
2.348661
2.328817
2.292842
2.230902
2.127502
1.960668
1.704212
1.326405
0.833288
0.019249
0.005927
-5.000000
-5.000000
-5.000000
0.000000
0.000000
0.000000
0.000000
0.364015
0.625660
0.853340
1.026154
1.149932
1.233078
1.286232
1.318956
1.338587
1.350053
1.356284
1.358742
1.357822
1.352980
1.342527
1.323080
1.288743
1.230247
1.134394
0.985237
0.762556
0.467269
0.009817
0.003746
-5.000000
-5.000000
-5.000000
0.000000
0.000000
0.000000
0.000000
0.000000
0.000000
0.000000
0.000000
0.000000
0.000000
0.000000
0.000000
0.000000
0.000000
0.000000
0.000000
0.000000
0.000000
0.000000
0.000000
0.000000
0.000000
0.000000
0.000000
0.000000
0.000000
0.000000
0.000000
-5.000000
-5.000000
-5.000000
0.000000
0.000000
0.000000
0.000000
0.000000
0.000000
0.000000
0.000000
0.000000
0.000000
0.000000
0.000000
0.000000
0.000000
0.000000
0.000000
0.000000
0.000000
0.000000
0.000000
0.000000
0.000000
0.000000
0.000000
0.000000
0.000000
0.000000
0.000000
-5.000000
-5.000000
-5.000000
0.000000
0.000000
0.000000
0.000000
0.000000
0.000000
0.000000
0.000000
0.000000
0.000000
0.000000
0.000000
0.000000
0.000000
0.000000
0.000000
0.000000
0.000000
0.000000
0.000000
0.000000
0.000000
0.000000
0.000000
0.000000
0.000000
0.000000
0.000000
-5.000000
-5.000000
-5.000000
0.000000
0.000000
0.000000
0.000000
0.000000
0.000000
0.000000
0.000000
0.000000
0.000000
0.000000
0.000000
0.000000
0.000000
0.000000
0.000000
0.000000
0.000000
0.000000
0.000000
0.000000
0.000000
0.000000
0.000000
0.000000
0.000000
0.000000
0.000000
-5.000000
-5.000000
-5.000000
</DataArray>
</PointData>
<Cells>
<DataArray type='Int32' Name='connectivity' format='ascii'>
0
1
2
3
4
5
6
7
8
9
10
11
12
13
14
15
16
17
18
19
20
21
22
23
24
25
26
27
28
29
30
31
32
33
34
35
36
37
38
39
40
41
42
43
44
45
46
47
48
49
50
51
52
53
54
55
56
57
58
59
60
61
62
63
64
65
66
67
68
69
70
71
72
73
74
75
76
77
78
79
80
81
82
83
84
85
86
87
88
89
90
91
92
93
94
95
96
97
98
99
100
101
102
103
104
105
106
107
108
109
110
111
112
113
114
115
116
117
118
119
120
121
122
123
124
125
126
127
128
129
130
131
132
133
134
135
136
137
138
139
140
141
142
143
144
145
146
147
148
149
150
151
152
153
154
155
156
157
158
159
160
161
162
163
164
165
166
167
168
169
170
171
172
173
174
175
176
177
178
179
180
181
182
183
184
185
186
187
188
189
190
191
192
193
194
195
196
197
198
199
200
201
202
203
204
205
206
207
208
209
210
211
212
213
214
215
216
217
218
219
220
221
222
223
224
225
226
227
228
229
230
231
232
233
234
235
236
237
238
239
240
241
242
243
244
245
246
247
248
249
250
251
252
253
254
255
256
257
258
259
260
261
262
263
264
265
266
267
268
269
270
271
272
273
274
275
276
277
278
279
280
281
282
283
284
285
286
287
288
289
290
291
292
293
294
295
296
297
298
299
300
301
302
303
304
305
306
307
308
309
310
311
312
313
314
315
316
317
318
319
320
321
322
323
324
325
326
327
328
329
330
331
332
333
334
335
336
337
338
339
340
341
342
343
344
345
346
347
348
349
350
351
352
353
354
355
356
357
358
359
360
361
362
363
364
365
366
367
368
369
370
371
372
373
374
375
376
377
378
379
380
381
382
383
384
385
386
387
388
389
390
391
392
393
394
395
396
397
398
399
400
401
402
403
404
405
406
407
408
409
410
411
412
413
414
415
416
417
418
419
420
421
422
423
424
425
426
427
428
429
430
431
432
433
434
435
436
437
438
439
440
441
442
443
444
445
446
447
448
449
450
451
452
453
454
455
456
457
458
459
460
461
462
463
464
465
466
467
468
469
470
471
472
473
474
475
476
477
478
479
480
481
482
483
484
485
486
487
488
489
490
491
492
493
494
495
496
497
498
499
500
501
502
503
504
505
506
507
508
509
510
511
512
513
514
515
516
517
518
519
520
521
522
523
524
525
526
527
528
529
530
531
532
533
534
535
536
537
538
539
540
541
542
543
544
545
546
547
548
549
550
551
552
553
554
555
556
557
558
559
560
561
562
563
564
565
566
567
568
569
570
571
572
573
574
575
576
577
578
579
580
581
582
583
584
585
586
587
588
589
590
591
592
593
594
595
596
597
598
599
600
601
602
603
604
605
606
607
608
609
610
611
612
613
614
615
616
617
618
619
620
621
622
623
624
625
626
627
628
629
630
631
632
633
634
635
636
637
638
639
640
641
642
643
644
645
646
647
648
649
650
651
652
653
654
655
656
657
658
659
660
661
662
663
664
665
666
667
668
669
670
671
672
673
674
675
676
677
678
679
680
681
682
683
684
685
686
687
688
689
690
691
692
693
694
695
696
697
698
699
700
701
702
703
704
705
706
707
708
709
710
711
712
713
714
715
716
717
718
719
720
721
722
723
724
725
726
727
728
729
730
731
732
733
734
735
736
737
738
739
740
741
742
743
744
745
746
747
748
749
750
751