<?xml version='1.0' encoding='UTF-8'?>
<VTKFile xmlns='VTK' byte_order='LittleEndian' version='0.1' type='UnstructuredGrid'>
<UnstructuredGrid>
<Piece NumberOfCells='1488' NumberOfPoints='1488'>
<Points>
<DataArray NumberOfComponents='3' type='Float32' Name='Position' format='ascii'>
-0.075000 -0.075000 0.000000
-0.075000 -0.050000 0.000000
-0.075000 -0.025000 0.000000
-0.075000 0.000000 0.000000
-0.075000 0.025000 0.000000
-0.075000 0.050000 0.000000
-0.075000 0.075000 0.000000
-0.075000 0.100000 0.000000
-0.075000 0.125000 0.000000
-0.075000 0.150000 0.000000
-0.075000 0.175000 0.000000
-0.075000 0.200000 0.000000
-0.075000 0.225000 0.000000
-0.075000 0.250000 0.000000
-0.075000 0.275000 0.000000
-0.075000 0.300000 0.000000
-0.075000 0.325000 0.000000
-0.075000 0.350000 0.000000
-0.075000 0.375000 0.000000
-0.075000 0.400000 0.000000
-0.075000 0.425000 0.000000
-0.075000 0.450000 0.000000
-0.075000 0.475000 0.000000
-0.075000 0.500000 0.000000
-0.075000 0.525000 0.000000
-0.075000 0.550000 0.000000
-0.075000 0.575000 0.000000
-0.075000 0.600000 0.000000
-0.075000 0.625000 0.000000
-0.075000 0.650000 0.000000
-0.075000 0.675000 0.000000
-0.050000 -0.075000 0.000000
-0.050000 -0.050000 0.000000
-0.050000 -0.025000 0.000000
-0.050000 0.000000 0.000000
-0.050000 0.025000 0.000000
-0.050000 0.050000 0.000000
-0.050000 0.075000 0.000000
-0.050000 0.100000 0.000000
-0.050000 0.125000 0.000000
-0.050000 0.150000 0.000000
-0.050000 0.175000 0.000000
-0.050000 0.200000 0.000000
-0.050000 0.225000 0.000000
-0.050000 0.250000 0.000000
-0.050000 0.275000 0.000000
-0.050000 0.300000 0.000000
-0.050000 0.325000 0.000000
-0.050000 0.350000 0.000000
-0.050000 0.375000 0.000000
-0.050000 0.400000 0.000000
-0.050000 0.425000 0.000000
-0.050000 0.450000 0.000000
-0.050000 0.475000 0.000000
-0.050000 0.500000 0.000000
-0.050000 0.525000 0.000000
-0.050000 0.550000 0.000000
-0.050000 0.575000 0.000000
-0.050000 0.600000 0.000000
-0.050000 0.625000 0.000000
-0.050000 0.650000 0.000000
-0.050000 0.675000 0.000000
-0.025000 -0.075000 0.000000
-0.025000 -0.050000 0.000000
-0.025000 -0.025000 0.000000
-0.025000 0.000000 0.000000
-0.025000 0.025000 0.000000
-0.025000 0.050000 0.000000
-0.025000 0.075000 0.000000
-0.025000 0.100000 0.000000
-0.025000 0.125000 0.000000
-0.025000 0.150000 0.000000
-0.025000 0.175000 0.000000
-0.025000 0.200000 0.000000
-0.025000 0.225000 0.000000
-0.025000 0.250000 0.000000
-0.025000 0.275000 0.000000
-0.025000 0.300000 0.000000
-0.025000 0.325000 0.000000
-0.025000 0.350000 0.000000
-0.025000 0.375000 0.000000
-0.025000 0.400000 0.000000
-0.025000 0.425000 0.000000
-0.025000 0.450000 0.000000
-0.025000 0.475000 0.000000
-0.025000 0.500000 0.000000
-0.025000 0.525000 0.000000
-0.025000 0.550000 0.000000
-0.025000 0.575000 0.000000
-0.025000 0.600000 0.000000
-0.025000 0.625000 0.000000
-0.025000 0.650000 0.000000
-0.025000 0.675000 0.000000
0.000000 -0.075000 0.000000
0.000000 -0.050000 0.000000
0.000000 -0.025000 0.000000
0.000000 0.000000 0.000000
0.000000 0.025000 0.000000
0.000000 0.050000 0.000000
0.000000 0.075000 0.000000
0.000000 0.100000 0.000000
0.000000 0.125000 0.000000
0.000000 0.150000 0.000000
0.000000 0.175000 0.000000
0.000000 0.200000 0.000000
0.000000 0.225000 0.000000
0.000000 0.250000 0.000000
0.000000 0.275000 0.000000
0.000000 0.300000 0.000000
0.000000 0.325000 0.000000
0.000000 0.350000 0.000000
0.000000 0.375000 0.000000
0.000000 0.400000 0.000000
0.000000 0.425000 0.000000
0.000000 0.450000 0.000000
0.000000 0.475000 0.000000
0.000000 0.500000 0.000000
0.000000 0.525000 0.000000
0.000000 0.550000 0.000000
0.000000 0.575000 0.000000
0.000000 0.600000 0.000000
0.000000 0.625000 0.000000
0.000000 0.650000 0.000000
0.000000 0.675000 0.000000
0.025000 -0.075000 0.000000
0.025000 -0.050000 0.000000
0.025000 -0.025000 0.000000
0.025000 0.000000 0.000000
0.025000 0.025000 0.000000
0.025000 0.050000 0.000000
0.025000 0.075000 0.000000
0.025000 0.100000 0.000000
0.025000 0.125000 0.000000
0.025000 0.150000 0.000000
0.025000 0.175000 0.000000
0.025000 0.200000 0.000000
0.025000 0.225000 0.000000
0.025000 0.250000 0.000000
0.025000 0.275000 0.000000
0.025000 0.300000 0.000000
0.025000 0.325000 0.000000
0.025000 0.350000 0.000000
0.025000 0.375000 0.000000
0.025000 0.400000 0.000000
0.025000 0.425000 0.000000
0.025000 0.450000 0.000000
0.025000 0.475000 0.000000
0.025000 0.500000 0.000000
0.025000 0.525000 0.000000
0.025000 0.550000 0.000000
0.025000 0.575000 0.000000
0.025000 0.600000 0.000000
0.025000 0.625000 0.000000
0.025000 0.650000 0.000000
0.025000 0.675000 0.000000
0.050000 -0.075000 0.000000
0.050000 -0.050000 0.000000
0.050000 -0.025000 0.000000
0.050000 0.000000 0.000000
0.050000 0.025000 0.000000
0.050000 0.050000 0.000000
0.050000 0.075000 0.000000
0.050000 0.100000 0.000000
0.050000 0.125000 0.000000
0.050000 0.150000 0.000000
0.050000 0.175000 0.000000
0.050000 0.200000 0.000000
0.050000 0.225000 0.000000
0.050000 0.250000 0.000000
0.050000 0.275000 0.000000
0.050000 0.300000 0.000000
0.050000 0.325000 0.000000
0.050000 0.350000 0.000000
0.050000 0.375000 0.000000
0.050000 0.400000 0.000000
0.050000 0.425000 0.000000
0.050000 0.450000 0.000000
0.050000 0.475000 0.000000
0.050000 0.500000 0.000000
0.050000 0.525000 0.000000
0.050000 0.550000 0.000000
0.050000 0.575000 0.000000
0.050000 0.600000 0.000000
0.050000 0.625000 0.000000
0.050000 0.650000 0.000000
0.050000 0.675000 0.000000
0.075000 -0.075000 0.000000
0.075000 -0.050000 0.000000
0.075000 -0.025000 0.000000
0.075000 0.000000 0.000000
0.075000 0.025000 0.000000
0.075000 0.050000 0.000000
0.075000 0.075000 0.000000
0.075000 0.100000 0.000000
0.075000 0.125000 0.000000
0.075000 0.150000 0.000000
0.075000 0.175000 0.000000
0.075000 0.200000 0.000000
0.075000 0.225000 0.000000
0.075000 0.250000 0.000000
0.075000 0.275000 0.000000
0.075000 0.300000 0.000000
0.075000 0.325000 0.000000
0.075000 0.350000 0.000000
0.075000 0.375000 0.000000
0.075000 0.400000 0.000000
0.075000 0.425000 0.000000
0.075000 0.450000 0.000000
0.075000 0.475000 0.000000
0.075000 0.500000 0.000000
0.075000 0.525000 0.000000
0.075000 0.550000 0.000000
0.075000 0.575000 0.000000
0.075000 0.600000 0.000000
0.075000 0.625000 0.000000
0.075000 0.650000 0.000000
0.075000 0.675000 0.000000
0.100000 -0.075000 0.000000
0.100000 -0.050000 0.000000
0.100000 -0.025000 0.000000
0.100000 0.000000 0.000000
0.100000 0.025000 0.000000
0.100000 0.050000 0.000000
0.100000 0.075000 0.000000
0.100000 0.100000 0.000000
0.100000 0.125000 0.000000
0.100000 0.150000 0.000000
0.100000 0.175000 0.000000
0.100000 0.200000 0.000000
0.100000 0.225000 0.000000
0.100000 0.250000 0.000000
0.100000 0.275000 0.000000
0.100000 0.300000 0.000000
0.100000 0.325000 0.000000
0.100000 0.350000 0.000000
0.100000 0.375000 0.000000
0.100000 0.400000 0.000000
0.100000 0.425000 0.000000
0.100000 0.450000 0.000000
0.100000 0.475000 0.000000
0.100000 0.500000 0.000000
0.100000 0.525000 0.000000
0.100000 0.550000 0.000000
0.100000 0.575000 0.000000
0.100000 0.600000 0.000000
0.100000 0.625000 0.000000
0.100000 0.650000 0.000000
0.100000 0.675000 0.000000
0.125000 -0.075000 0.000000
0.125000 -0.050000 0.000000
0.125000 -0.025000 0.000000
0.125000 0.000000 0.000000
0.125000 0.025000 0.000000
0.125000 0.050000 0.000000
0.125000 0.075000 0.000000
0.125000 0.100000 0.000000
0.125000 0.125000 0.000000
0.125000 0.150000 0.000000
0.125000 0.175000 0.000000
0.125000 0.200000 0.000000
0.125000 0.225000 0.000000
0.125000 0.250000 0.000000
0.125000 0.275000 0.000000
0.125000 0.300000 0.000000
0.125000 0.325000 0.000000
0.125000 0.350000 0.000000
0.125000 0.375000 0.000000
0.125000 0.400000 0.000000
0.125000 0.425000 0.000000
0.125000 0.450000 0.000000
0.125000 0.475000 0.000000
0.125000 0.500000 0.000000
0.125000 0.525000 0.000000
0.125000 0.550000 0.000000
0.125000 0.575000 0.000000
0.125000 0.600000 0.000000
0.125000 0.625000 0.000000
0.125000 0.650000 0.000000
0.125000 0.675000 0.000000
0.150000 -0.075000 0.000000
0.150000 -0.050000 0.000000
0.150000 -0.025000 0.000000
0.150000 0.000000 0.000000
0.150000 0.025000 0.000000
0.150000 0.050000 0.000000
0.150000 0.075000 0.000000
0.150000 0.100000 0.000000
0.150000 0.125000 0.000000
0.150000 0.150000 0.000000
0.150000 0.175000 0.000000
0.150000 0.200000 0.000000
0.150000 0.225000 0.000000
0.150000 0.250000 0.000000
0.150000 0.275000 0.000000
0.150000 0.300000 0.000000
0.150000 0.325000 0.000000
0.150000 0.350000 0.000000
0.150000 0.375000 0.000000
0.150000 0.400000 0.000000
0.150000 0.425000 0.000000
0.150000 0.450000 0.000000
0.150000 0.475000 0.000000
0.150000 0.500000 0.000000
0.150000 0.525000 0.000000
0.150000 0.550000 0.000000
0.150000 0.575000 0.000000
0.150000 0.600000 0.000000
0.150000 0.625000 0.000000
0.150000 0.650000 0.000000
0.150000 0.675000 0.000000
0.175000 -0.075000 0.000000
0.175000 -0.050000 0.000000
0.175000 -0.025000 0.000000
0.175000 0.000000 0.000000
0.175000 0.025000 0.000000
0.175000 0.050000 0.000000
0.175000 0.075000 0.000000
0.175000 0.100000 0.000000
0.175000 0.125000 0.000000
0.175000 0.150000 0.000000
0.175000 0.175000 0.000000
0.175000 0.200000 0.000000
0.175000 0.225000 0.000000
0.175000 0.250000 0.000000
0.175000 0.275000 0.000000
0.175000 0.300000 0.000000
0.175000 0.325000 0.000000
0.175000 0.350000 0.000000
0.175000 0.375000 0.000000
0.175000 0.400000 0.000000
0.175000 0.425000 0.000000
0.175000 0.450000 0.000000
0.175000 0.475000 0.000000
0.175000 0.500000 0.000000
0.175000 0.525000 0.000000
0.175000 0.550000 0.000000
0.175000 0.575000 0.000000
0.175000 0.600000 0.000000
0.175000 0.625000 0.000000
0.175000 0.650000 0.000000
0.175000 0.675000 0.000000
0.200000 -0.075000 0.000000
0.200000 -0.050000 0.000000
0.200000 -0.025000 0.000000
0.200000 0.000000 0.000000
0.200000 0.025000 0.000000
0.200000 0.050000 0.000000
0.200000 0.075000 0.000000
0.200000 0.100000 0.000000
0.200000 0.125000 0.000000
0.200000 0.150000 0.000000
0.200000 0.175000 0.000000
0.200000 0.200000 0.000000
0.200000 0.225000 0.000000
0.200000 0.250000 0.000000
[...]
<PointData>
<DataArray NumberOfComponents='1' type='Int32' Name='ParticleType' format='ascii'>
4
4
4
4
4
4
4
4
4
4
4
4
4
4
4
4
4
4
4
4
4
4
4
4
4
4
4
4
2
2
2
4
4
4
4
4
4
4
4
4
4
4
4
4
4
4
4
4
4
4
4
4
4
4
4
4
4
4
4
2
2
2
4
4
3
3
3
3
3
3
3
3
3
3
3
3
3
3
3
3
3
3
3
3
3
3
3
3
3
3
2
2
2
4
4
3
3
3
3
3
3
3
3
3
3
3
3
3
3
3
3
3
3
3
3
3
3
3
3
3
3
2
2
2
4
4
3
3
0
0
0
0
0
0
0
0
0
0
0
0
0
0
0
0
0
0
0
0
0
1
1
2
2
2
2
4
4
3
3
0
0
0
0
0
0
0
0
0
0
0
0
0
0
0
0
0
0
0
0
0
1
1
2
2
2
2
4
4
3
3
0
0
0
0
0
0
0
0
0
0
0
0
0
0
0
0
0
0
0
0
0
0
1
2
2
2
2
4
4
3
3
0
0
0
0
0
0
0
0
0
0
0
0
0
0
0
0
0
0
0
0
0
0
1
2
2
2
2
4
4
3
3
0
0
0
0
0
0
0
0
0
0
0
0
0
0
0
0
0
0
0
0
0
0
1
2
2
2
2
4
4
3
3
0
0
0
0
0
0
0
0
0
0
0
0
0
0
0
0
0
0
0
0
0
0
1
2
2
2
2
4
4
3
3
0
0
0
0
0
0
0
0
0
0
0
0
0
0
0
0
0
0
0
0
0
0
1
2
2
2
2
4
4
3
3
0
0
0
0
0
0
0
0
0
0
0
0
0
0
0
0
0
0
0
0
0
0
1
2
2
2
2
4
4
3
3
0
0
0
0
0
0
0
0
0
0
0
0
0
0
0
0
0
0
0
0
0
0
1
2
2
2
2
4
4
3
3
0
0
0
0
0
0
0
0
0
0
0
0
0
0
0
0
0
0
0
0
0
0
1
2
2
2
2
4
4
3
3
0
0
0
0
0
0
0
0
0
0
0
0
0
0
0
0
0
0
0
0
0
0
1
2
2
2
2
4
4
3
3
0
0
0
0
0
0
0
0
0
0
0
0
0
0
0
0
0
0
0
0
0
0
1
2
2
2
2
4
4
3
3
0
0
0
0
0
0
0
0
0
0
0
0
0
0
0
0
0
0
0
0
0
0
1
2
2
2
2
4
4
3
3
0
0
0
0
0
0
0
0
0
0
0
0
0
0
0
0
0
0
0
0
0
0
1
2
2
2
2
4
4
3
3
0
0
0
0
0
0
0
0
0
0
0
0
0
0
0
0
0
0
0
0
0
0
1
2
2
2
2
4
4
3
3
0
0
0
0
0
0
0
0
0
0
0
0
0
0
0
0
0
0
0
0
0
0
0
2
2
2
2
4
4
3
3
0
0
0
0
0
0
0
0
0
0
0
0
0
0
0
0
0
0
0
0
0
0
0
2
2
2
2
4
4
3
3
0
0
0
0
0
0
0
0
0
0
0
0
0
0
0
0
0
0
0
0
0
0
0
2
2
2
2
4
4
3
3
0
0
0
0
0
0
0
0
0
0
0
0
0
0
0
0
0
0
0
0
0
0
0
2
2
2
2
4
4
3
3
0
0
0
0
0
0
0
0
0
0
0
0
0
0
0
0
0
0
0
0
0
0
0
2
2
2
2
4
4
3
3
0
0
0
0
0
0
0
0
0
0
0
0
0
0
0
0
0
0
0
0
0
0
0
2
2
2
2
4
4
3
3
0
0
0
0
0
0
0
0
0
0
0
0
0
0
0
0
0
0
0
0
0
0
0
2
2
2
2
4
4
3
3
0
0
0
0
0
0
0
0
0
0
0
0
0
0
0
0
0
0
0
0
0
0
0
2
2
2
2
4
4
3
3
0
0
0
0
0
0
0
0
0
0
0
0
0
0
0
0
0
0
0
0
0
0
0
2
2
2
2
4
4
3
3
0
0
0
0
0
0
0
0
0
0
0
0
0
0
0
0
0
0
0
0
0
0
0
2
2
2
2
4
4
3
3
0
0
0
0
0
0
0
0
0
0
0
0
0
0
0
0
0
0
0
0
0
0
1
2
2
2
2
4
4
3
3
0
0
0
0
0
0
0
0
0
0
0
0
0
0
0
0
0
0
0
0
0
0
1
2
2
2
2
4
4
3
3
0
0
0
0
0
0
0
0
0
0
0
0
0
0
0
0
0
0
0
0
0
0
1
2
2
2
2
4
4
3
3
0
0
0
0
0
0
0
0
0
0
0
0
0
0
0
0
0
0
0
0
0
0
1
2
2
2
2
4
4
3
3
0
0
0
0
0
0
0
0
0
0
0
0
0
0
0
0
0
0
0
0
0
0
1
2
2
2
2
4
4
3
3
0
0
0
0
0
0
0
0
0
0
0
0
0
0
0
0
0
0
0
0
0
0
1
2
2
2
2
4
4
3
3
0
0
0
0
0
0
0
0
0
0
0
0
0
0
0
0
0
0
0
0
0
0
1
2
2
2
2
4
4
3
3
0
0
0
0
0
0
0
0
0
0
0
0
0
0
0
0
0
0
0
0
0
0
1
2
2
2
2
4
4
3
3
0
0
0
0
0
0
0
0
0
0
0
0
0
0
0
0
0
0
0
0
0
0
1
2
2
2
2
4
4
3
3
0
0
0
0
0
0
0
0
0
0
0
0
0
0
0
0
0
0
0
0
0
0
1
2
2
2
2
4
4
3
3
0
0
0
0
0
0
0
0
0
0
0
0
0
0
0
0
0
0
0
0
0
0
1
2
2
2
2
4
4
3
3
0
0
0
0
0
0
0
0
0
0
0
0
0
0
0
0
0
0
0
0
0
0
1
2
2
2
2
4
4
3
3
0
0
0
0
0
0
0
0
0
0
0
0
0
0
0
0
0
0
0
0
0
0
1
2
2
2
2
4
4
3
3
0
0
0
0
0
0
0
0
0
0
0
0
0
0
0
0
0
0
0
0
0
1
1
2
2
2
2
4
4
3
3
0
0
0
0
0
0
0
0
0
0
0
0
0
0
0
0
0
0
0
0
0
1
1
2
2
2
2
4
4
3
3
3
3
3
3
3
3
3
3
3
3
3
3
3
3
3
3
3
3
3
3
3
3
3
3
2
2
2
4
4
3
3
3
3
3
3
3
3
3
3
3
3
3
3
3
3
3
3
3
3
3
3
3
3
3
3
2
2
2
4
4
4
4
4
4
4
4
4
4
4
4
4
4
4
4
4
4
4
4
4
4
4
4
4
4
4
4
2
2
2
4
4
4
4
4
4
4
4
4
4
4
4
4
4
4
4
4
4
4
4
4
4
4
4
4
4
4
4
2
2
2
</DataArray>
<DataArray NumberOfComponents='1' type='Float32' Name='Temperature' format='ascii'>
0.000000
0.000000
0.000000
0.000000
0.000000
0.000000
0.000000
0.000000
0.000000
0.000000
0.000000
0.000000
0.000000
0.000000
0.000000
0.000000
0.000000
0.000000
0.000000
0.000000
0.000000
0.000000
0.000000
0.000000
0.000000
0.000000
0.000000
0.000000
-5.000000
-5.000000
-5.000000
0.000000
0.000000
0.000000
0.000000
0.000000
0.000000
0.000000
0.000000
0.000000
0.000000
0.000000
0.000000
0.000000
0.000000
0.000000
0.000000
0.000000
0.000000
0.000000
0.000000
0.000000
0.000000
0.000000
0.000000
0.000000
0.000000
0.000000
0.000000
-5.000000
-5.000000
-5.000000
0.000000
0.000000
0.000000
0.000000
0.000000
0.000000
0.000000
0.000000
0.000000
0.000000
0.000000
0.000000
0.000000
0.000000
0.000000
0.000000
0.000000
0.000000
0.000000
0.000000
0.000000
0.000000
0.000000
0.000000
0.000000
0.000000
0.000000
0.000000
-5.000000
-5.000000
-5.000000
0.000000
0.000000
0.000000
0.000000
0.000000
0.000000
0.000000
0.000000
0.000000
0.000000
0.000000
0.000000
0.000000
0.000000
0.000000
0.000000
0.000000
0.000000
0.000000
0.000000
0.000000
0.000000
0.000000
0.000000
0.000000
0.000000
0.000000
0.000000
-5.000000
-5.000000
-5.000000
0.000000
0.000000
0.000000
0.000000
0.148162
0.265406
0.383727
0.495530
0.600012
0.695218
0.779428
0.850959
0.908243
0.949864
0.974601
0.981464
0.969726
0.938940
0.888951
0.819884
0.732119
0.626175
0.502811
0.361200
0.207296
0.009828
-0.002919
-2.130441
-5.000000
-5.000000
-5.000000
0.000000
0.000000
0.000000
0.000000
0.268313
0.480315
0.694515
0.896914
1.086106
1.258546
1.411116
1.540766
1.644649
1.720197
1.765195
1.777854
1.756863
1.701432
1.611308
1.486769
1.328593
1.137893
0.916296
0.662986
0.389528
0.009990
-0.004675
-2.373033
-5.000000
-5.000000
-5.000000
0.000000
0.000000
0.000000
0.000000
0.394523
0.706317
1.021362
1.319131
1.597560
1.851431
2.076156
2.267230
2.420455
2.532039
2.598716
2.617856
2.587545
2.506653
2.374864
2.192684
1.961427
1.683052
1.360518
0.994132
0.600956
0.090603
-0.002804
-2.456069
-5.000000
-5.000000
-5.000000
0.000000
0.000000
0.000000
0.000000
0.521433
0.933570
1.350101
1.743921
2.112316
2.448387
2.746056
2.999346
3.202679
3.351017
3.440028
3.466233
3.427128
3.321263
3.148304
2.909056
2.605482
2.240596
1.818978
1.343242
0.834407
0.212245
-0.000659
-2.464703
-5.000000
-5.000000
-5.000000
0.000000
0.000000
0.000000
0.000000
0.650222
1.164238
1.683870
2.175364
2.635354
3.055237
3.427411
3.744385
3.999161
4.185419
4.297731
4.331757
4.284397
4.153906
3.939963
3.643725
3.267874
2.816580
2.296128
1.711770
1.087271
0.352156
0.001000
-2.454331
-5.000000
-5.000000
-5.000000
0.000000
0.000000
0.000000
0.000000
0.780701
1.397976
2.022181
2.612847
3.165962
3.671191
4.119376
4.501474
4.809026
5.034388
5.171010
5.213674
5.158688
5.004022
4.749396
4.396339
3.948266
3.410489
2.790901
2.097181
1.354923
0.503288
0.002509
-2.438046
-5.000000
-5.000000
-5.000000
0.000000
0.000000
0.000000
0.000000
0.912607
1.634319
2.364366
3.055517
3.703114
4.295075
4.820654
5.269218
5.630805
5.896413
6.058342
6.110482
6.048549
5.870242
5.575336
5.165736
4.645553
4.021145
3.301806
2.497331
1.634549
0.662384
0.004542
-2.419573
-5.000000
-5.000000
-5.000000
0.000000
0.000000
0.000000
0.000000
1.045348
1.872206
2.708888
3.501386
4.244402
4.924091
5.528100
6.044173
6.460812
6.767628
6.955747
7.018161
6.950001
6.748709
6.414129
5.948533
5.356667
4.645788
3.826334
2.909871
1.924036
0.827690
0.005820
-2.400085
-5.000000
-5.000000
-5.000000
0.000000
0.000000
0.000000
0.000000
1.178026
2.110022
3.053406
3.947415
4.786124
5.553924
6.236841
6.820979
7.293283
7.641956
7.856941
7.930333
7.856692
7.633228
7.259875
6.739267
6.076722
5.280229
4.361066
3.332169
2.221528
0.998081
0.007061
-2.379963
-5.000000
-5.000000
-5.000000
0.000000
0.000000
0.000000
0.000000
1.309427
2.345590
3.394756
4.389493
5.323264
6.178713
6.940249
7.592335
8.120350
8.511087
8.753310
8.838233
8.759869
8.515236
8.104395
7.530358
6.798965
5.918774
4.901568
3.761141
2.525205
1.172701
0.007825
-2.359346
-5.000000
-5.000000
-5.000000
0.000000
0.000000
0.000000
0.000000
1.438045
2.576204
3.729005
4.822509
5.849585
6.791166
7.630069
8.349132
8.932188
9.364635
9.634079
9.730879
9.648545
9.383956
8.937356
8.312182
7.514791
6.554188
5.442310
4.193174
2.833246
1.351000
0.008792
-2.338195
-5.000000
-5.000000
-5.000000
0.000000
0.000000
0.000000
0.000000
1.562121
2.798704
4.051561
5.240488
6.357790
7.382749
8.296636
9.080708
9.717292
10.190431
10.486610
10.595379
10.509801
10.226677
9.746517
9.073262
8.213844
7.177670
5.976555
4.624040
3.143906
1.532940
0.009238
-2.316249
-5.000000
-5.000000
-5.000000
0.000000
0.000000
0.000000
0.000000
1.679702
3.009582
4.357321
5.636793
6.839775
7.943980
8.929209
9.775210
10.462870
10.974938
11.296842
11.417380
11.329228
11.029185
10.518114
9.800575
8.884196
7.778870
6.496193
5.048668
3.455593
1.719865
0.009691
-2.292609
-5.000000
-5.000000
-5.000000
0.000000
0.000000
0.000000
0.000000
1.788716
3.205113
4.640870
6.004383
7.286940
8.464799
9.516391
10.420060
11.155345
11.703793
12.049851
12.181636
12.091505
11.776321
11.237388
10.480008
9.512678
8.345991
6.991501
5.460513
3.766682
1.915919
0.009899
-2.263292
-5.000000
-5.000000
-5.000000
0.000000
0.000000
0.000000
0.000000
1.887058
3.381517
4.896715
6.336109
7.690553
8.934992
10.046616
11.002492
11.780942
12.362419
12.730489
12.872669
12.781058
12.452641
11.889226
11.096953
10.085369
8.866060
7.450983
5.850620
4.073701
2.125667
0.009921
-2.221351
-5.000000
-5.000000
-5.000000
0.000000
0.000000
0.000000
0.000000
1.972688
3.535128
5.119524
6.625040
8.042150
9.344657
10.508667
11.510132
12.326305
12.936687
13.324076
13.475477
13.382786
13.043144
12.458881
11.637020
10.588267
9.325473
7.861532
6.206952
4.367358
2.346420
0.131998
-2.161077
-5.000000
-5.000000
-5.000000
0.000000
0.000000
0.000000
0.000000
2.043724
3.662567
5.304385
6.864784
8.333927
9.684667
10.892209
11.931576
12.779132
13.413585
13.817094
13.976246
13.882784
13.534002
12.932724
12.086804
11.008101
9.710837
8.209222
6.514490
4.631145
2.559292
0.283516
-2.091746
-5.000000
-5.000000
-5.000000
0.000000
0.000000
0.000000
0.000000
2.098537
3.760903
5.447038
7.049803
8.559121
9.947112
11.188286
12.256945
13.128766
13.781841
14.197839
14.363022
14.269018
13.913252
13.298948
12.434646
11.333182
10.010008
8.480665
6.757419
4.844566
2.739108
0.418506
-2.028437
-5.000000
-5.000000
-5.000000
0.000000
0.000000
0.000000
0.000000
2.135824
3.827801
5.544087
7.175681
8.712341
10.125689
11.389760
12.478366
13.366715
14.032481
14.456993
14.626290
14.531921
14.171390
13.548180
12.671287
11.554191
10.213164
8.664667
6.921745
4.988758
2.860720
0.511432
-1.984656
-5.000000
-5.000000
-5.000000
0.000000
0.000000
0.000000
0.000000
2.154683
3.861635
5.593173
7.239348
8.789839
10.216013
11.491668
12.590366
13.487079
14.159265
14.588081
14.759447
14.664857
14.301835
13.673956
12.790374
11.664784
10.313697
8.753787
6.998201
5.051221
2.907801
0.541478
-1.967879
-5.000000
-5.000000
-5.000000
0.000000
0.000000
0.000000
0.000000
2.154650
3.861575
5.593084
7.239231
8.789693
10.215840
11.491469
12.590145
13.486837
14.159002
14.587794
14.759119
14.664446
14.301251
13.673025
12.788776
11.661965
10.308743
8.745291
6.984267
5.030015
2.879432
0.511484
-1.979185
-5.000000
-5.000000
-5.000000
0.000000
0.000000
0.000000
0.000000
2.135726
3.827622
5.543825
7.175335
8.711912
10.125178
11.389173
12.477711
13.365999
14.031707
14.456149
14.625330
14.530723
14.169697
13.545497
12.666711
11.546178
10.199219
8.641067
6.883685
4.932016
2.786888
0.434777
-2.014667
-5.000000
-5.000000
-5.000000
0.000000
0.000000
0.000000
0.000000
2.098377
3.760614
5.446613
7.049242
8.558425
9.946285
11.187337
12.255885
13.127610
13.780595
14.196487
14.361494
14.267132
13.910621
13.294824
12.427696
11.321182
9.989497
8.446775
6.704450
4.768636
2.644812
0.326404
-2.067749
-5.000000
-5.000000
-5.000000
0.000000
0.000000
0.000000
0.000000
2.043511
3.662180
5.303816
6.864032
8.332995
9.683559
10.890938
11.930159
12.777589
13.411928
13.815309
13.974252
13.880363
13.530686
12.927617
12.078343
10.993763
9.686906
8.170894
6.456951
4.552720
2.467581
0.198882
-2.129767
-5.000000
-5.000000
-5.000000
0.000000
0.000000
0.000000
0.000000
1.972429
3.534659
5.118834
6.624129
8.041019
9.343314
10.507127
11.508417
12.324443
12.934698
13.321953
13.473141
13.380015
13.039444
12.453320
11.628002
10.573321
9.301188
7.823971
6.153051
4.298264
2.271167
0.067540
-2.189832
-5.000000
-5.000000
-5.000000
0.000000
0.000000
0.000000
0.000000
1.886764
3.380985
4.895932
6.335075
7.689270
8.933468
10.044870
11.000551
11.778840
12.360187
12.728133
12.870129
12.778129
12.448863
11.883724
11.088264
10.071317
8.843862
7.417866
5.805319
4.019604
2.072312
0.009927
-2.237545
-5.000000
-5.000000
-5.000000
0.000000
0.000000
0.000000
0.000000
1.788399
3.204538
4.640025
6.003266
7.285553
8.463153
9.514507
10.417968
11.153088
11.701413
12.047371
12.179022
12.088595
11.772729
11.232370
10.472336
9.500605
8.327450
6.964801
5.425680
3.728093
1.882001
0.009759
-2.271097
-5.000000
-5.000000
-5.000000
0.000000
0.000000
0.000000
0.000000
1.679374
3.008986
4.356444
5.635634
6.838337
7.942273
8.927255
9.773045
10.460541
10.972500
11.294336
11.414805
11.326479
11.025972
10.513861
9.794340
8.874681
7.764661
6.476394
5.023942
3.429926
1.699468
0.009576
-2.296280
-5.000000
-5.000000
-5.000000
0.000000
0.000000
0.000000
0.000000
1.561792
2.798108
4.050683
5.239327
6.356349
7.381039
8.294679
9.078543
9.714971
10.188017
10.484164
10.592930
10.507304
10.223947
9.743153
9.068598
8.206987
7.167714
5.963080
4.607820
3.127835
1.520985
0.009207
-2.318230
-5.000000
-5.000000
-5.000000
0.000000
0.000000
0.000000
0.000000
1.437726
2.575626
3.728153
4.821382
5.848185
6.789505
7.628169
8.347033
8.929944
9.362316
9.631759
9.728615
9.646346
9.381730
8.934860
8.308987
7.510322
6.547889
5.433987
4.183424
2.823879
1.344273
0.008708
-2.339259
-5.000000
-5.000000
-5.000000
0.000000
0.000000
0.000000
0.000000
1.309126
2.345045
3.393953
4.388431
5.321944
6.177146
6.938457
7.590355
8.118239
8.508917
8.751163
8.836186
8.757971
8.513471
8.102642
7.528369
6.796393
5.915283
4.897038
3.755916
2.520270
1.169233
0.008152
-2.359888
-5.000000
-5.000000
-5.000000
0.000000
0.000000
0.000000
0.000000
1.177751
2.109523
3.052670
3.946441
4.784912
5.552484
6.235195
6.819162
7.291349
7.639974
7.854997
7.928516
7.855075
7.631845
7.258691
6.738160
6.075492
5.278665
4.359062
3.329850
2.219333
0.996535
0.006889
-2.380231
-5.000000
-5.000000
-5.000000
0.000000
0.000000
0.000000
0.000000
1.045103
1.871761
2.708231
3.500516
4.243319
4.922805
5.526628
6.042548
6.459083
6.765860
6.954023
7.016571
6.948630
6.747619
6.413336
5.947991
5.356268
4.645393
3.825830
2.909242
1.923405
0.827236
0.005812
-2.400176
-5.000000
-5.000000
-5.000000
0.000000
0.000000
0.000000
0.000000
0.912394
1.633933
2.363795
3.054760
3.702172
4.293954
4.819371
5.267801
5.629296
5.894872
6.056843
6.109110
6.047389
5.869366
5.574786
5.165507
4.645589
4.021346
3.302062
2.497557
1.634717
0.662507
0.004545
-2.419536
-5.000000
-5.000000
-5.000000
0.000000
0.000000
0.000000
0.000000
0.780521
1.397650
2.021698
2.612207
3.165163
3.670240
4.118286
4.500269
4.807742
5.033076
5.169734
5.212508
5.157709
5.003300
4.748981
4.396246
3.948465
3.410910
2.791441
2.097738
1.355415
0.503677
0.003075
-2.437915
-5.000000
-5.000000
-5.000000
0.000000
0.000000
0.000000
0.000000
0.650075
1.163970
1.683473
2.174837
2.634697
3.054454
3.426512
3.743390
3.998100
4.184331
4.296670
4.330785
4.283579
4.153302
3.939622
3.643666
3.268083
2.817004
2.296685
1.712361
1.087807
0.352576
0.001368
-2.454192
-5.000000
-5.000000
-5.000000
0.000000
0.000000
0.000000
0.000000
0.521316
0.933358
1.349786
1.743503
2.111794
2.447765
2.745341
2.998553
3.201831
3.350146
3.439175
3.465446
3.426458
3.320761
3.148008
2.908986
2.605632
2.240928
1.819428
1.343728
0.834845
0.212577
-0.000544
-2.464601
-5.000000
-5.000000
-5.000000
0.000000
0.000000
0.000000
0.000000
0.394435
0.706156
1.021124
1.318816
1.597166
1.850961
2.075615
2.266629
2.419811
2.531375
2.598063
2.617248
2.587021
2.506249
2.374610
2.192596
1.961503
1.683267
1.360825
0.994468
0.601256
0.090816
-0.002916
-2.456008
-5.000000
-5.000000
-5.000000
0.000000
0.000000
0.000000
0.000000
0.268253
0.480204
0.694351
0.896696
1.085835
1.258222
1.410744
1.540351
1.644204
1.719737
1.764740
1.777427
1.756489
1.701136
1.611110
1.486680
1.328613
1.138006
0.916473
0.663183
0.389698
0.009995
-0.004234
-2.372987
-5.000000
-5.000000
-5.000000
0.000000
0.000000
0.000000
0.000000
0.148128
0.265343
0.383633
0.495406
0.599857
0.695033
0.779215
0.850722
0.907989
0.949600
0.974338
0.981216
0.969505
0.938760
0.888824
0.819816
0.732111
0.626218
0.502889
0.361289
0.207371
0.009844
-0.003154
-2.130433
-5.000000
-5.000000
-5.000000
0.000000
0.000000
0.000000
0.000000
0.000000
0.000000
0.000000
0.000000
0.000000
0.000000
0.000000
0.000000
0.000000
0.000000
0.000000
0.000000
0.000000
0.000000
0.000000
0.000000
0.000000
0.000000
0.000000
0.000000
0.000000
0.000000
0.000000
0.000000
-5.000000
-5.000000
-5.000000
0.000000
0.000000
0.000000
0.000000
0.000000
0.000000
0.000000
0.000000
0.000000
0.000000
0.000000
0.000000
0.000000
0.000000
0.000000
0.000000
0.000000
0.000000
0.000000
0.000000
0.000000
0.000000
0.000000
0.000000
0.000000
0.000000
0.000000
0.000000
-5.000000
-5.000000
-5.000000
0.000000
0.000000
0.000000
0.000000
0.000000
0.000000
0.000000
0.000000
0.000000
0.000000
0.000000
0.000000
0.000000
0.000000
0.000000
0.000000
0.000000
0.000000
0.000000
0.000000
0.000000
0.000000
0.000000
0.000000
0.000000
0.000000
0.000000
0.000000
-5.000000
-5.000000
-5.000000
0.000000
0.000000
0.000000
0.000000
0.000000
0.000000
0.000000
0.000000
0.000000
0.000000
0.000000
0.000000
0.000000
0.000000
0.000000
0.000000
0.000000
0.000000
0.000000
0.000000
0.000000
0.000000
0.000000
0.000000
0.000000
0.000000
0.000000
0.000000
-5.000000
-5.000000
-5.000000
</DataArray>
</PointData>
<Cells>
<DataArray type='Int32' Name='connectivity' format='ascii'>
0
1
2
3
4
5
6
7
8
9
10
11
12
13
14
15
16
17
18
19
20
21
22
23
24
25
26
27
28
29
30
31
32
33
34
35
36
37
38
39
40
41
42
43
44
45
46
47
48
49
50
51
52
53
54
55
56
57
58
59
60
61
62
63
64
65
66
67
68
69
70
71
72
73
74
75
76
77
78
79
80
81
82
83
84
85
86
87
88
89
90
91
92
93
94
95
96
97
98
99
100
101
102
103
104
105
106
107
108
109
110
111
112
113
114
115
116
117
118
119
120
121
122
123
124
125
126
127
128
129
130
131
132
133
134
135
136
137
138
139
140
141
142
143
144
145
146
147
148
149
150
151
152
153
154
155
156
157
158
159
160
161
162
163
164
165
166
167
168
169
170
171
172
173
174
175
176
177
178
179
180
181
182
183
184
185
186
187
188
189
190
191
192
193
194
195
196
197
198
199
200
201
202
203
204
205
206
207
208
209
210
211
212
213
214
215
216
217
218
219
220
221
222
223
224
225
226
227
228
229
230
231
232
233
234
235
236
237
238
239
240
241
242
243
244
245
246
247
248
249
250
251
252
253
254
255
256
257
258
259
260
261
262
263
264
265
266
267
268
269
270
271
272
273
274
275
276
277
278
279
280
281
282
283
284
285
286
287
288
289
290
291
292
293
294
295
296
297
298
299
300
301
302
303
304
305
306
307
308
309
310
311
312
313
314
315
316
317
318
319
320
321
322
323
324
325
326
327
328
329
330
331
332
333
334
335
336
337
338
339
340
341
342
343
344
345
346
347
348
349
350
351
352
353
354
355
356
357
358
359
360
361
362
363
364
365
366
367
368
369
370
371
372
373
374
375
376
377
378
379
380
381
382
383
384
385
386
387
388
389
390
391
392
393
394
395
396
397
398
399
400
401
402
403
404
405
406
407
408
409
410
411
412
413
414
415
416
417
418
419
420
421
422
423
424
425
426
427
428
429
430
431
432
433
434
435
436
437
438
439
440
441
442
443
444
445
446
447
448
449
450
451
452
453
454
455
456
457
458
459
460
461
462
463
464
465
466
467
468
469
470
471
472
473
474
475
476
477
478
479
480
481
482
483
484
485
486
487
488
489
490
491
492
493
494
495
496
497
498
499
500
501
502
503
504
505
506
507
508
509
510
511
512
513
514
515
516
517
518
519
520
521
522
523
524
525
526
527
528
529
530
531
532
533
534
535
536
537
538
539
540
541
542
543
544
545
546
547
548
549
550
551
552
553
554
555
556
557
558
559
560
561
562
563
564
565
566
567
568
569
570
571
572
573
574
575
576
577
578
579
580
581
582
583
584
585
586
587
588
589
590
591
592
593
594
595
596
597
598
599
600
601
602
603
604
605
606
607
608
609
610
611
612
613
614
615
616
617
618
619
620
621
622
623
624
625
626
627
628
629
630
631
632
633
634
635
636
637
638
639
640
641
642
643
644
645
646
647
648
649
650
651
652
653
654
655
656
657
658
659
660
661
662
663
664
665
666
667
668
669
670
671
672
673
674
675
676
677
678
679
680
681
682
683
684
685
686
687
688
689
690
691
692
693
694
695
696
697
698
699
700
701
702
703
704
705
706
707
708
709
710
711
712
713
714
715
716
717
718
719
720
721
722
723
724
725
726
727
728
729
730
731
732
733
734
735
736
737
738
739
740
741
742
743
744
745
746
747
748
749
750
751
752
753
754
755
756
757
758
759
760
761
762
763
764
765
766
767
768
769