<?xml version='1.0' encoding='UTF-8'?>
<VTKFile xmlns='VTK' byte_order='LittleEndian' version='0.1' type='UnstructuredGrid'>
<UnstructuredGrid>
<Piece NumberOfCells='1488' NumberOfPoints='1488'>
<Points>
<DataArray NumberOfComponents='3' type='Float32' Name='Position' format='ascii'>
-0.075000 -0.075000 0.000000
-0.075000 -0.050000 0.000000
-0.075000 -0.025000 0.000000
-0.075000 0.000000 0.000000
-0.075000 0.025000 0.000000
-0.075000 0.050000 0.000000
-0.075000 0.075000 0.000000
-0.075000 0.100000 0.000000
-0.075000 0.125000 0.000000
-0.075000 0.150000 0.000000
-0.075000 0.175000 0.000000
-0.075000 0.200000 0.000000
-0.075000 0.225000 0.000000
-0.075000 0.250000 0.000000
-0.075000 0.275000 0.000000
-0.075000 0.300000 0.000000
-0.075000 0.325000 0.000000
-0.075000 0.350000 0.000000
-0.075000 0.375000 0.000000
-0.075000 0.400000 0.000000
-0.075000 0.425000 0.000000
-0.075000 0.450000 0.000000
-0.075000 0.475000 0.000000
-0.075000 0.500000 0.000000
-0.075000 0.525000 0.000000
-0.075000 0.550000 0.000000
-0.075000 0.575000 0.000000
-0.075000 0.600000 0.000000
-0.075000 0.625000 0.000000
-0.075000 0.650000 0.000000
-0.075000 0.675000 0.000000
-0.050000 -0.075000 0.000000
-0.050000 -0.050000 0.000000
-0.050000 -0.025000 0.000000
-0.050000 0.000000 0.000000
-0.050000 0.025000 0.000000
-0.050000 0.050000 0.000000
-0.050000 0.075000 0.000000
-0.050000 0.100000 0.000000
-0.050000 0.125000 0.000000
-0.050000 0.150000 0.000000
-0.050000 0.175000 0.000000
-0.050000 0.200000 0.000000
-0.050000 0.225000 0.000000
-0.050000 0.250000 0.000000
-0.050000 0.275000 0.000000
-0.050000 0.300000 0.000000
-0.050000 0.325000 0.000000
-0.050000 0.350000 0.000000
-0.050000 0.375000 0.000000
-0.050000 0.400000 0.000000
-0.050000 0.425000 0.000000
-0.050000 0.450000 0.000000
-0.050000 0.475000 0.000000
-0.050000 0.500000 0.000000
-0.050000 0.525000 0.000000
-0.050000 0.550000 0.000000
-0.050000 0.575000 0.000000
-0.050000 0.600000 0.000000
-0.050000 0.625000 0.000000
-0.050000 0.650000 0.000000
-0.050000 0.675000 0.000000
-0.025000 -0.075000 0.000000
-0.025000 -0.050000 0.000000
-0.025000 -0.025000 0.000000
-0.025000 0.000000 0.000000
-0.025000 0.025000 0.000000
-0.025000 0.050000 0.000000
-0.025000 0.075000 0.000000
-0.025000 0.100000 0.000000
-0.025000 0.125000 0.000000
-0.025000 0.150000 0.000000
-0.025000 0.175000 0.000000
-0.025000 0.200000 0.000000
-0.025000 0.225000 0.000000
-0.025000 0.250000 0.000000
-0.025000 0.275000 0.000000
-0.025000 0.300000 0.000000
-0.025000 0.325000 0.000000
-0.025000 0.350000 0.000000
-0.025000 0.375000 0.000000
-0.025000 0.400000 0.000000
-0.025000 0.425000 0.000000
-0.025000 0.450000 0.000000
-0.025000 0.475000 0.000000
-0.025000 0.500000 0.000000
-0.025000 0.525000 0.000000
-0.025000 0.550000 0.000000
-0.025000 0.575000 0.000000
-0.025000 0.600000 0.000000
-0.025000 0.625000 0.000000
-0.025000 0.650000 0.000000
-0.025000 0.675000 0.000000
0.000000 -0.075000 0.000000
0.000000 -0.050000 0.000000
0.000000 -0.025000 0.000000
0.000000 0.000000 0.000000
0.000000 0.025000 0.000000
0.000000 0.050000 0.000000
0.000000 0.075000 0.000000
0.000000 0.100000 0.000000
0.000000 0.125000 0.000000
0.000000 0.150000 0.000000
0.000000 0.175000 0.000000
0.000000 0.200000 0.000000
0.000000 0.225000 0.000000
0.000000 0.250000 0.000000
0.000000 0.275000 0.000000
0.000000 0.300000 0.000000
0.000000 0.325000 0.000000
0.000000 0.350000 0.000000
0.000000 0.375000 0.000000
0.000000 0.400000 0.000000
0.000000 0.425000 0.000000
0.000000 0.450000 0.000000
0.000000 0.475000 0.000000
0.000000 0.500000 0.000000
0.000000 0.525000 0.000000
0.000000 0.550000 0.000000
0.000000 0.575000 0.000000
0.000000 0.600000 0.000000
0.000000 0.625000 0.000000
0.000000 0.650000 0.000000
0.000000 0.675000 0.000000
0.025000 -0.075000 0.000000
0.025000 -0.050000 0.000000
0.025000 -0.025000 0.000000
0.025000 0.000000 0.000000
0.025000 0.025000 0.000000
0.025000 0.050000 0.000000
0.025000 0.075000 0.000000
0.025000 0.100000 0.000000
0.025000 0.125000 0.000000
0.025000 0.150000 0.000000
0.025000 0.175000 0.000000
0.025000 0.200000 0.000000
0.025000 0.225000 0.000000
0.025000 0.250000 0.000000
0.025000 0.275000 0.000000
0.025000 0.300000 0.000000
0.025000 0.325000 0.000000
0.025000 0.350000 0.000000
0.025000 0.375000 0.000000
0.025000 0.400000 0.000000
0.025000 0.425000 0.000000
0.025000 0.450000 0.000000
0.025000 0.475000 0.000000
0.025000 0.500000 0.000000
0.025000 0.525000 0.000000
0.025000 0.550000 0.000000
0.025000 0.575000 0.000000
0.025000 0.600000 0.000000
0.025000 0.625000 0.000000
0.025000 0.650000 0.000000
0.025000 0.675000 0.000000
0.050000 -0.075000 0.000000
0.050000 -0.050000 0.000000
0.050000 -0.025000 0.000000
0.050000 0.000000 0.000000
0.050000 0.025000 0.000000
0.050000 0.050000 0.000000
0.050000 0.075000 0.000000
0.050000 0.100000 0.000000
0.050000 0.125000 0.000000
0.050000 0.150000 0.000000
0.050000 0.175000 0.000000
0.050000 0.200000 0.000000
0.050000 0.225000 0.000000
0.050000 0.250000 0.000000
0.050000 0.275000 0.000000
0.050000 0.300000 0.000000
0.050000 0.325000 0.000000
0.050000 0.350000 0.000000
0.050000 0.375000 0.000000
0.050000 0.400000 0.000000
0.050000 0.425000 0.000000
0.050000 0.450000 0.000000
0.050000 0.475000 0.000000
0.050000 0.500000 0.000000
0.050000 0.525000 0.000000
0.050000 0.550000 0.000000
0.050000 0.575000 0.000000
0.050000 0.600000 0.000000
0.050000 0.625000 0.000000
0.050000 0.650000 0.000000
0.050000 0.675000 0.000000
0.075000 -0.075000 0.000000
0.075000 -0.050000 0.000000
0.075000 -0.025000 0.000000
0.075000 0.000000 0.000000
0.075000 0.025000 0.000000
0.075000 0.050000 0.000000
0.075000 0.075000 0.000000
0.075000 0.100000 0.000000
0.075000 0.125000 0.000000
0.075000 0.150000 0.000000
0.075000 0.175000 0.000000
0.075000 0.200000 0.000000
0.075000 0.225000 0.000000
0.075000 0.250000 0.000000
0.075000 0.275000 0.000000
0.075000 0.300000 0.000000
0.075000 0.325000 0.000000
0.075000 0.350000 0.000000
0.075000 0.375000 0.000000
0.075000 0.400000 0.000000
0.075000 0.425000 0.000000
0.075000 0.450000 0.000000
0.075000 0.475000 0.000000
0.075000 0.500000 0.000000
0.075000 0.525000 0.000000
0.075000 0.550000 0.000000
0.075000 0.575000 0.000000
0.075000 0.600000 0.000000
0.075000 0.625000 0.000000
0.075000 0.650000 0.000000
0.075000 0.675000 0.000000
0.100000 -0.075000 0.000000
0.100000 -0.050000 0.000000
0.100000 -0.025000 0.000000
0.100000 0.000000 0.000000
0.100000 0.025000 0.000000
0.100000 0.050000 0.000000
0.100000 0.075000 0.000000
0.100000 0.100000 0.000000
0.100000 0.125000 0.000000
0.100000 0.150000 0.000000
0.100000 0.175000 0.000000
0.100000 0.200000 0.000000
0.100000 0.225000 0.000000
0.100000 0.250000 0.000000
0.100000 0.275000 0.000000
0.100000 0.300000 0.000000
0.100000 0.325000 0.000000
0.100000 0.350000 0.000000
0.100000 0.375000 0.000000
0.100000 0.400000 0.000000
0.100000 0.425000 0.000000
0.100000 0.450000 0.000000
0.100000 0.475000 0.000000
0.100000 0.500000 0.000000
0.100000 0.525000 0.000000
0.100000 0.550000 0.000000
0.100000 0.575000 0.000000
0.100000 0.600000 0.000000
0.100000 0.625000 0.000000
0.100000 0.650000 0.000000
0.100000 0.675000 0.000000
0.125000 -0.075000 0.000000
0.125000 -0.050000 0.000000
0.125000 -0.025000 0.000000
0.125000 0.000000 0.000000
0.125000 0.025000 0.000000
0.125000 0.050000 0.000000
0.125000 0.075000 0.000000
0.125000 0.100000 0.000000
0.125000 0.125000 0.000000
0.125000 0.150000 0.000000
0.125000 0.175000 0.000000
0.125000 0.200000 0.000000
0.125000 0.225000 0.000000
0.125000 0.250000 0.000000
0.125000 0.275000 0.000000
0.125000 0.300000 0.000000
0.125000 0.325000 0.000000
0.125000 0.350000 0.000000
0.125000 0.375000 0.000000
0.125000 0.400000 0.000000
0.125000 0.425000 0.000000
0.125000 0.450000 0.000000
0.125000 0.475000 0.000000
0.125000 0.500000 0.000000
0.125000 0.525000 0.000000
0.125000 0.550000 0.000000
0.125000 0.575000 0.000000
0.125000 0.600000 0.000000
0.125000 0.625000 0.000000
0.125000 0.650000 0.000000
0.125000 0.675000 0.000000
0.150000 -0.075000 0.000000
0.150000 -0.050000 0.000000
0.150000 -0.025000 0.000000
0.150000 0.000000 0.000000
0.150000 0.025000 0.000000
0.150000 0.050000 0.000000
0.150000 0.075000 0.000000
0.150000 0.100000 0.000000
0.150000 0.125000 0.000000
0.150000 0.150000 0.000000
0.150000 0.175000 0.000000
0.150000 0.200000 0.000000
0.150000 0.225000 0.000000
0.150000 0.250000 0.000000
0.150000 0.275000 0.000000
0.150000 0.300000 0.000000
0.150000 0.325000 0.000000
0.150000 0.350000 0.000000
0.150000 0.375000 0.000000
0.150000 0.400000 0.000000
0.150000 0.425000 0.000000
0.150000 0.450000 0.000000
0.150000 0.475000 0.000000
0.150000 0.500000 0.000000
0.150000 0.525000 0.000000
0.150000 0.550000 0.000000
0.150000 0.575000 0.000000
0.150000 0.600000 0.000000
0.150000 0.625000 0.000000
0.150000 0.650000 0.000000
0.150000 0.675000 0.000000
0.175000 -0.075000 0.000000
0.175000 -0.050000 0.000000
0.175000 -0.025000 0.000000
0.175000 0.000000 0.000000
0.175000 0.025000 0.000000
0.175000 0.050000 0.000000
0.175000 0.075000 0.000000
0.175000 0.100000 0.000000
0.175000 0.125000 0.000000
0.175000 0.150000 0.000000
0.175000 0.175000 0.000000
0.175000 0.200000 0.000000
0.175000 0.225000 0.000000
0.175000 0.250000 0.000000
0.175000 0.275000 0.000000
0.175000 0.300000 0.000000
0.175000 0.325000 0.000000
0.175000 0.350000 0.000000
0.175000 0.375000 0.000000
0.175000 0.400000 0.000000
0.175000 0.425000 0.000000
0.175000 0.450000 0.000000
0.175000 0.475000 0.000000
0.175000 0.500000 0.000000
0.175000 0.525000 0.000000
0.175000 0.550000 0.000000
0.175000 0.575000 0.000000
0.175000 0.600000 0.000000
0.175000 0.625000 0.000000
0.175000 0.650000 0.000000
0.175000 0.675000 0.000000
0.200000 -0.075000 0.000000
0.200000 -0.050000 0.000000
0.200000 -0.025000 0.000000
0.200000 0.000000 0.000000
0.200000 0.025000 0.000000
0.200000 0.050000 0.000000
0.200000 0.075000 0.000000
0.200000 0.100000 0.000000
0.200000 0.125000 0.000000
0.200000 0.150000 0.000000
0.200000 0.175000 0.000000
0.200000 0.200000 0.000000
0.200000 0.225000 0.000000
0.200000 0.250000 0.000000
[...]
<PointData>
<DataArray NumberOfComponents='1' type='Int32' Name='ParticleType' format='ascii'>
4
4
4
4
4
4
4
4
4
4
4
4
4
4
4
4
4
4
4
4
4
4
4
4
4
4
4
4
2
2
2
4
4
4
4
4
4
4
4
4
4
4
4
4
4
4
4
4
4
4
4
4
4
4
4
4
4
4
4
2
2
2
4
4
3
3
3
3
3
3
3
3
3
3
3
3
3
3
3
3
3
3
3
3
3
3
3
3
3
3
2
2
2
4
4
3
3
3
3
3
3
3
3
3
3
3
3
3
3
3
3
3
3
3
3
3
3
3
3
3
3
2
2
2
4
4
3
3
0
0
0
0
0
0
0
0
0
0
0
0
0
0
0
0
0
0
0
0
0
0
1
2
2
2
2
4
4
3
3
0
0
0
0
0
0
0
0
0
0
0
0
0
0
0
0
0
0
0
0
0
0
1
2
2
2
2
4
4
3
3
0
0
0
0
0
0
0
0
0
0
0
0
0
0
0
0
0
0
0
0
0
0
1
1
2
2
2
4
4
3
3
0
0
0
0
0
0
0
0
0
0
0
0
0
0
0
0
0
0
0
0
0
0
1
1
2
2
2
4
4
3
3
0
0
0
0
0
0
0
0
0
0
0
0
0
0
0
0
0
0
0
0
0
0
0
1
2
2
2
4
4
3
3
0
0
0
0
0
0
0
0
0
0
0
0
0
0
0
0
0
0
0
0
0
0
0
1
2
2
2
4
4
3
3
0
0
0
0
0
0
0
0
0
0
0
0
0
0
0
0
0
0
0
0
0
0
0
1
2
2
2
4
4
3
3
0
0
0
0
0
0
0
0
0
0
0
0
0
0
0
0
0
0
0
0
0
0
0
1
2
2
2
4
4
3
3
0
0
0
0
0
0
0
0
0
0
0
0
0
0
0
0
0
0
0
0
0
0
0
1
2
2
2
4
4
3
3
0
0
0
0
0
0
0
0
0
0
0
0
0
0
0
0
0
0
0
0
0
0
0
1
2
2
2
4
4
3
3
0
0
0
0
0
0
0
0
0
0
0
0
0
0
0
0
0
0
0
0
0
0
0
1
2
2
2
4
4
3
3
0
0
0
0
0
0
0
0
0
0
0
0
0
0
0
0
0
0
0
0
0
0
0
1
2
2
2
4
4
3
3
0
0
0
0
0
0
0
0
0
0
0
0
0
0
0
0
0
0
0
0
0
0
0
1
2
2
2
4
4
3
3
0
0
0
0
0
0
0
0
0
0
0
0
0
0
0
0
0
0
0
0
0
0
0
1
2
2
2
4
4
3
3
0
0
0
0
0
0
0
0
0
0
0
0
0
0
0
0
0
0
0
0
0
0
0
1
2
2
2
4
4
3
3
0
0
0
0
0
0
0
0
0
0
0
0
0
0
0
0
0
0
0
0
0
0
0
1
2
2
2
4
4
3
3
0
0
0
0
0
0
0
0
0
0
0
0
0
0
0
0
0
0
0
0
0
0
0
1
2
2
2
4
4
3
3
0
0
0
0
0
0
0
0
0
0
0
0
0
0
0
0
0
0
0
0
0
0
0
1
2
2
2
4
4
3
3
0
0
0
0
0
0
0
0
0
0
0
0
0
0
0
0
0
0
0
0
0
0
0
1
2
2
2
4
4
3
3
0
0
0
0
0
0
0
0
0
0
0
0
0
0
0
0
0
0
0
0
0
0
0
1
2
2
2
4
4
3
3
0
0
0
0
0
0
0
0
0
0
0
0
0
0
0
0
0
0
0
0
0
0
0
1
2
2
2
4
4
3
3
0
0
0
0
0
0
0
0
0
0
0
0
0
0
0
0
0
0
0
0
0
0
0
1
2
2
2
4
4
3
3
0
0
0
0
0
0
0
0
0
0
0
0
0
0
0
0
0
0
0
0
0
0
0
1
2
2
2
4
4
3
3
0
0
0
0
0
0
0
0
0
0
0
0
0
0
0
0
0
0
0
0
0
0
0
1
2
2
2
4
4
3
3
0
0
0
0
0
0
0
0
0
0
0
0
0
0
0
0
0
0
0
0
0
0
0
1
2
2
2
4
4
3
3
0
0
0
0
0
0
0
0
0
0
0
0
0
0
0
0
0
0
0
0
0
0
0
1
2
2
2
4
4
3
3
0
0
0
0
0
0
0
0
0
0
0
0
0
0
0
0
0
0
0
0
0
0
0
1
2
2
2
4
4
3
3
0
0
0
0
0
0
0
0
0
0
0
0
0
0
0
0
0
0
0
0
0
0
0
1
2
2
2
4
4
3
3
0
0
0
0
0
0
0
0
0
0
0
0
0
0
0
0
0
0
0
0
0
0
0
1
2
2
2
4
4
3
3
0
0
0
0
0
0
0
0
0
0
0
0
0
0
0
0
0
0
0
0
0
0
0
1
2
2
2
4
4
3
3
0
0
0
0
0
0
0
0
0
0
0
0
0
0
0
0
0
0
0
0
0
0
0
1
2
2
2
4
4
3
3
0
0
0
0
0
0
0
0
0
0
0
0
0
0
0
0
0
0
0
0
0
0
0
1
2
2
2
4
4
3
3
0
0
0
0
0
0
0
0
0
0
0
0
0
0
0
0
0
0
0
0
0
0
0
1
2
2
2
4
4
3
3
0
0
0
0
0
0
0
0
0
0
0
0
0
0
0
0
0
0
0
0
0
0
0
1
2
2
2
4
4
3
3
0
0
0
0
0
0
0
0
0
0
0
0
0
0
0
0
0
0
0
0
0
0
0
1
2
2
2
4
4
3
3
0
0
0
0
0
0
0
0
0
0
0
0
0
0
0
0
0
0
0
0
0
0
0
1
2
2
2
4
4
3
3
0
0
0
0
0
0
0
0
0
0
0
0
0
0
0
0
0
0
0
0
0
0
1
1
2
2
2
4
4
3
3
0
0
0
0
0
0
0
0
0
0
0
0
0
0
0
0
0
0
0
0
0
0
1
2
2
2
2
4
4
3
3
0
0
0
0
0
0
0
0
0
0
0
0
0
0
0
0
0
0
0
0
0
0
1
2
2
2
2
4
4
3
3
0
0
0
0
0
0
0
0
0
0
0
0
0
0
0
0
0
0
0
0
0
0
1
2
2
2
2
4
4
3
3
3
3
3
3
3
3
3
3
3
3
3
3
3
3
3
3
3
3
3
3
3
3
3
3
2
2
2
4
4
3
3
3
3
3
3
3
3
3
3
3
3
3
3
3
3
3
3
3
3
3
3
3
3
3
3
2
2
2
4
4
4
4
4
4
4
4
4
4
4
4
4
4
4
4
4
4
4
4
4
4
4
4
4
4
4
4
2
2
2
4
4
4
4
4
4
4
4
4
4
4
4
4
4
4
4
4
4
4
4
4
4
4
4
4
4
4
4
2
2
2
</DataArray>
<DataArray NumberOfComponents='1' type='Float32' Name='Temperature' format='ascii'>
0.000000
0.000000
0.000000
0.000000
0.000000
0.000000
0.000000
0.000000
0.000000
0.000000
0.000000
0.000000
0.000000
0.000000
0.000000
0.000000
0.000000
0.000000
0.000000
0.000000
0.000000
0.000000
0.000000
0.000000
0.000000
0.000000
0.000000
0.000000
-5.000000
-5.000000
-5.000000
0.000000
0.000000
0.000000
0.000000
0.000000
0.000000
0.000000
0.000000
0.000000
0.000000
0.000000
0.000000
0.000000
0.000000
0.000000
0.000000
0.000000
0.000000
0.000000
0.000000
0.000000
0.000000
0.000000
0.000000
0.000000
0.000000
0.000000
0.000000
-5.000000
-5.000000
-5.000000
0.000000
0.000000
0.000000
0.000000
0.000000
0.000000
0.000000
0.000000
0.000000
0.000000
0.000000
0.000000
0.000000
0.000000
0.000000
0.000000
0.000000
0.000000
0.000000
0.000000
0.000000
0.000000
0.000000
0.000000
0.000000
0.000000
0.000000
0.000000
-5.000000
-5.000000
-5.000000
0.000000
0.000000
0.000000
0.000000
0.000000
0.000000
0.000000
0.000000
0.000000
0.000000
0.000000
0.000000
0.000000
0.000000
0.000000
0.000000
0.000000
0.000000
0.000000
0.000000
0.000000
0.000000
0.000000
0.000000
0.000000
0.000000
0.000000
0.000000
-5.000000
-5.000000
-5.000000
0.000000
0.000000
0.000000
0.000000
0.180167
0.320974
0.460440
0.588831
0.705372
0.808490
0.897361
0.971444
1.030363
1.073762
1.101224
1.112246
1.106238
1.082545
1.040475
0.979337
0.898516
0.797586
0.676403
0.535063
0.372142
0.160804
0.008500
-1.941537
-5.000000
-5.000000
-5.000000
0.000000
0.000000
0.000000
0.000000
0.323707
0.576610
0.827892
1.059894
1.271314
1.459245
1.622031
1.758447
1.867509
1.948264
1.999684
2.020659
2.010029
1.966642
1.889394
1.777293
1.629542
1.445718
1.225908
0.970999
0.681298
0.342093
0.008883
-1.847259
-5.000000
-5.000000
-5.000000
0.000000
0.000000
0.000000
0.000000
0.470841
0.839475
1.206856
1.547665
1.860079
2.139709
2.383752
2.589848
2.755877
2.879737
2.959302
2.992489
2.977386
2.912360
2.796127
2.627793
2.406906
2.133604
1.808733
1.434595
1.011968
0.553010
0.009605
-0.009471
-5.000000
-5.000000
-5.000000
0.000000
0.000000
0.000000
0.000000
0.614552
1.097001
1.579883
2.030721
2.447282
2.823548
3.155155
3.437979
3.668008
3.841213
3.953669
4.001816
3.982740
3.894388
3.735660
3.506379
3.207227
2.839757
2.406339
1.911205
1.355070
0.767947
0.009879
-0.008636
-5.000000
-5.000000
-5.000000
0.000000
0.000000
0.000000
0.000000
0.756949
1.353222
1.953223
2.517853
3.044585
3.525565
3.954324
4.324167
4.628211
4.859493
5.011389
5.078193
5.055660
4.941381
4.734881
4.437477
4.051985
3.582462
3.033846
2.413006
1.721836
0.997557
0.052794
-0.007680
-5.000000
-5.000000
-5.000000
0.000000
0.000000
0.000000
0.000000
0.899472
1.610872
2.331200
3.015263
3.660381
4.256604
4.794712
5.264471
5.654971
5.955105
6.154472
6.244417
6.218963
6.075400
5.814396
5.439670
4.957338
4.375240
3.702138
2.948559
2.119282
1.256133
0.185286
-0.006009
-5.000000
-5.000000
-5.000000
0.000000
0.000000
0.000000
0.000000
1.044158
1.873705
2.719477
3.530670
4.304600
5.028922
5.690935
6.275792
6.767254
7.148726
7.404812
7.523006
7.495135
7.318238
6.994688
6.531590
5.939641
5.231850
4.422134
3.525708
2.551560
1.544514
0.340812
-0.005104
-5.000000
-5.000000
-5.000000
0.000000
0.000000
0.000000
0.000000
1.192841
2.145043
3.122940
4.070526
4.985269
5.852100
6.654079
7.370614
7.978774
8.455058
8.777800
8.929682
8.899839
8.685101
8.290115
7.726390
7.010516
6.162077
5.201452
4.149510
3.019970
1.859767
0.513275
-0.004899
-5.000000
-5.000000
-5.000000
0.000000
0.000000
0.000000
0.000000
1.346678
2.426903
3.544396
4.638285
5.706331
6.730423
7.688632
8.553518
9.294129
9.878670
10.277947
10.468890
10.437449
10.180272
9.704829
9.028011
8.173558
7.168977
6.042327
4.821005
3.523786
2.199191
0.699488
-0.003290
-5.000000
-5.000000
-5.000000
0.000000
0.000000
0.000000
0.000000
1.505705
2.719199
3.983407
5.232856
6.465732
7.660589
8.789843
9.818220
10.705556
11.410515
11.895249
12.130087
12.097347
11.793517
11.229369
10.428046
9.421554
8.246507
6.939718
5.535882
4.059191
2.559559
0.897120
-0.002912
-5.000000
-5.000000
-5.000000
0.000000
0.000000
0.000000
0.000000
1.668593
3.019313
4.435669
5.847812
7.254458
8.630602
9.942481
11.146209
12.191468
13.026397
13.603604
13.886139
13.852332
13.498527
12.839178
11.904361
10.735225
9.378425
7.880365
6.283659
4.618234
2.935327
1.103028
-0.001613
-5.000000
-5.000000
-5.000000
0.000000
0.000000
0.000000
0.000000
1.832652
3.322103
4.893054
6.471487
8.056726
9.620075
11.121270
12.507326
13.717176
14.687814
15.361736
15.694291
15.659598
15.253862
14.495466
13.421847
12.083854
10.538766
8.843104
7.047787
5.188677
3.318309
1.312693
-0.000914
-5.000000
-5.000000
-5.000000
0.000000
0.000000
0.000000
0.000000
1.994058
3.620345
5.344297
7.087961
8.851303
10.601926
12.292982
13.862249
15.237736
16.345107
17.116578
17.499672
17.464232
17.006338
16.148374
14.935278
13.427764
11.693908
9.800493
7.806832
5.754744
3.698034
1.520449
-0.000728
-5.000000
-5.000000
-5.000000
0.000000
0.000000
0.000000
0.000000
2.148259
3.905490
5.776172
7.678694
9.613659
11.545093
13.419740
15.166377
16.702369
17.942332
18.808459
19.240646
19.204573
18.696203
17.741829
16.393708
14.722174
12.805822
10.721429
8.536465
6.298520
4.062616
1.719890
0.000890
-5.000000
-5.000000
-5.000000
0.000000
0.000000
0.000000
0.000000
2.290468
4.168577
6.174884
8.224453
10.318490
12.417695
14.462838
16.374303
18.059522
19.422807
20.377006
20.854902
20.818295
20.263041
19.219084
17.745507
15.921615
13.835817
11.574198
9.211829
6.801664
4.399851
1.904307
0.001412
-5.000000
-5.000000
-5.000000
0.000000
0.000000
0.000000
0.000000
2.416128
4.401101
6.527387
8.707134
10.942084
13.189981
15.386291
17.443936
19.261528
20.734223
21.766573
22.285045
22.247995
21.651187
20.527804
18.942993
16.984025
14.748019
12.329330
9.809773
7.247059
4.698323
2.067494
0.002228
-5.000000
-5.000000
-5.000000
0.000000
0.000000
0.000000
0.000000
2.521274
4.595683
6.822403
9.111148
11.464106
13.836542
16.159471
18.339563
20.268036
21.832382
22.930199
23.482669
23.445264
22.813670
21.623785
19.945832
17.873750
15.511955
12.961724
10.310525
7.620052
4.948271
2.204118
0.001949
-5.000000
-5.000000
-5.000000
0.000000
0.000000
0.000000
0.000000
2.602749
4.746461
7.051003
9.424200
11.868584
14.337497
16.758503
19.033431
21.047774
22.683091
23.831603
24.410402
24.372730
23.714213
22.472847
20.722780
18.563112
16.103902
13.451786
10.698606
7.909144
5.142011
2.310060
0.003032
-5.000000
-5.000000
-5.000000
0.000000
0.000000
0.000000
0.000000
2.658269
4.849200
7.206759
9.637478
12.144120
14.678717
17.166482
19.505953
21.578728
23.262335
24.445338
25.042051
25.004201
24.327370
23.050983
21.251854
19.032589
16.507082
13.785611
10.962996
8.106118
5.274035
2.382251
0.003012
-5.000000
-5.000000
-5.000000
0.000000
0.000000
0.000000
0.000000
2.686382
4.901219
7.285610
9.745433
12.283564
14.851373
17.372886
19.744975
21.847277
23.555281
24.755709
25.361472
25.323531
24.637450
23.343371
21.519454
19.270074
16.711059
13.954527
11.096798
8.205817
5.340866
2.418803
0.003245
-5.000000
-5.000000
-5.000000
0.000000
0.000000
0.000000
0.000000
2.686390
4.901228
7.285612
9.745414
12.283513
14.851275
17.372732
19.744760
21.847000
23.554950
24.755339
25.361080
25.323139
24.637079
23.343038
21.519173
19.269852
16.710896
13.954418
11.096733
8.205784
5.340853
2.418800
0.003247
-5.000000
-5.000000
-5.000000
0.000000
0.000000
0.000000
0.000000
2.658292
4.849225
7.206759
9.637417
12.143958
14.678414
17.166010
19.505295
21.577886
23.261331
24.444214
25.040862
25.003010
24.326242
23.049971
21.250999
19.031912
16.506584
13.785276
10.962794
8.106013
5.273992
2.382241
0.003019
-5.000000
-5.000000
-5.000000
0.000000
0.000000
0.000000
0.000000
2.602783
4.746493
7.050989
9.424081
11.868292
14.336968
16.757688
19.032303
21.046338
22.681384
23.829694
24.408384
24.370710
23.712296
22.471125
20.721321
18.561953
16.103045
13.451203
10.698250
7.908955
5.141931
2.310039
0.003048
-5.000000
-5.000000
-5.000000
0.000000
0.000000
0.000000
0.000000
2.521312
4.595713
6.822363
9.110953
11.463664
13.835766
16.158292
18.337945
20.265986
21.829952
22.927487
23.479804
23.442396
22.810947
21.621336
19.943751
17.872089
15.510719
12.960876
10.309998
7.619765
4.948143
2.204081
0.001980
-5.000000
-5.000000
-5.000000
0.000000
0.000000
0.000000
0.000000
2.416167
4.401122
6.527311
8.706856
10.941488
13.188957
15.384753
17.441841
19.258883
20.731097
21.763088
22.281366
22.244312
21.647687
20.524652
18.940310
16.981876
14.746411
12.328217
9.809073
7.246670
4.698145
2.067441
0.002279
-5.000000
-5.000000
-5.000000
0.000000
0.000000
0.000000
0.000000
2.290507
4.168589
6.174776
8.224103
10.317761
12.416458
14.460992
16.371797
18.056367
19.419083
20.372858
20.850526
20.813914
20.258877
19.215331
17.742308
15.919047
13.833888
11.572857
9.210980
6.801187
4.399630
1.904242
0.001479
-5.000000
-5.000000
-5.000000
0.000000
0.000000
0.000000
0.000000
2.148302
3.905503
5.776053
7.678305
9.612850
11.543720
13.417692
15.163597
16.698868
17.938199
18.803855
19.235788
19.199709
18.691580
17.737661
16.390155
14.719320
12.803679
10.719938
8.535520
6.297990
4.062372
1.719822
0.000996
-5.000000
-5.000000
-5.000000
0.000000
0.000000
0.000000
0.000000
1.994113
3.620377
5.344198
7.087587
8.850494
10.600532
12.290884
13.859384
15.234118
16.340827
17.111805
17.494633
17.459186
17.001543
16.144055
14.931601
13.424819
11.691703
9.798968
7.805874
5.754215
3.697799
1.520393
-0.000599
-5.000000
-5.000000
-5.000000
0.000000
0.000000
0.000000
0.000000
1.832731
3.322177
4.893016
6.471192
8.056013
9.618793
11.119299
12.504601
13.713708
14.683692
15.357125
15.689416
15.654715
15.249227
14.491300
13.418313
12.081040
10.536678
8.841680
7.046912
5.188213
3.318119
1.312663
-0.000799
-5.000000
-5.000000
-5.000000
0.000000
0.000000
0.000000
0.000000
1.668704
3.019448
4.435728
5.847655
7.253932
8.629560
9.940807
11.143840
12.188409
13.022730
13.599480
13.881767
13.847952
13.494375
12.835462
11.901230
10.732758
9.376626
7.879171
6.282959
4.617894
2.935217
1.103038
-0.001506
-5.000000
-5.000000
-5.000000
0.000000
0.000000
0.000000
0.000000
1.505853
2.719408
3.983587
5.232880
6.465460
7.659886
8.788600
9.816377
10.703112
11.407538
11.891872
12.126491
12.093741
11.790108
11.226339
10.425524
9.419605
8.245131
6.938852
5.535425
4.059020
2.559553
0.897182
-0.002806
-5.000000
-5.000000
-5.000000
0.000000
0.000000
0.000000
0.000000
1.346862
2.427185
3.544700
4.638502
5.706339
6.730103
7.687888
8.552293
9.292418
9.876523
10.275470
10.466231
10.434779
10.177761
9.702624
9.026215
8.172221
7.168091
6.041836
4.820818
3.523796
2.199297
0.699605
-0.003221
-5.000000
-5.000000
-5.000000
0.000000
0.000000
0.000000
0.000000
1.193051
2.145383
3.123349
4.070916
4.985538
5.852150
6.653828
7.370010
7.977807
8.453761
8.776250
8.927990
8.898136
8.683514
8.288756
7.725332
7.009793
6.161674
5.201317
4.149566
3.020132
1.859959
0.513438
-0.004810
-5.000000
-5.000000
-5.000000
0.000000
0.000000
0.000000
0.000000
1.044379
1.874075
2.719952
3.531181
4.305070
5.029273
5.691101
6.275729
6.766945
7.148189
7.404098
7.522190
7.494307
7.317485
6.994086
6.531185
5.939449
5.231847
4.422267
3.525911
2.551777
1.544713
0.340986
-0.004981
-5.000000
-5.000000
-5.000000
0.000000
0.000000
0.000000
0.000000
0.899686
1.611237
2.331688
3.015826
3.660964
4.257150
4.795170
5.264805
5.655161
5.955157
6.154413
6.244291
6.218824
6.075301
5.814381
5.439760
4.957529
4.375492
3.702382
2.948711
2.119311
1.256112
0.185362
-0.005764
-5.000000
-5.000000
-5.000000
0.000000
0.000000
0.000000
0.000000
0.757135
1.353546
1.953671
2.518395
3.045185
3.526185
3.954929
4.324727
4.628708
4.859922
5.011760
5.078525
5.055979
4.941711
4.735241
4.437868
4.052380
3.582788
3.033971
2.412722
1.721068
0.996387
0.051371
-0.007078
-5.000000
-5.000000
-5.000000
0.000000
0.000000
0.000000
0.000000
0.614697
1.097259
1.580248
2.031179
2.447814
2.824132
3.155768
3.438600
3.668621
3.841807
3.954242
4.002370
3.983281
3.894923
3.736187
3.506882
3.207655
2.839980
2.406088
1.909872
1.352314
0.761016
0.009894
-0.007607
-5.000000
-5.000000
-5.000000
0.000000
0.000000
0.000000
0.000000
0.470940
0.839653
1.207115
1.548000
1.860485
2.140176
2.384268
2.590399
2.756449
2.880320
2.959885
2.993067
2.977953
2.912909
2.796648
2.628258
2.407243
2.133613
1.807943
1.431666
1.005828
0.531440
0.009561
-1.092319
-5.000000
-5.000000
-5.000000
0.000000
0.000000
0.000000
0.000000
0.323760
0.576709
0.828042
1.060097
1.271571
1.459554
1.622387
1.758843
1.867937
1.948712
2.000142
2.021117
2.010479
1.967072
1.889791
1.777627
1.629736
1.445539
1.224742
0.966903
0.671706
0.306190
0.009051
-2.022894
-5.000000
-5.000000
-5.000000
0.000000
0.000000
0.000000
0.000000
0.180187
0.321012
0.460502
0.588921
0.705492
0.808644
0.897546
0.971659
1.030602
1.074019
1.101491
1.112515
1.106502
1.082795
1.040699
0.979515
0.898588
0.797368
0.675368
0.531456
0.363492
0.127388
0.008411
-2.006942
-5.000000
-5.000000
-5.000000
0.000000
0.000000
0.000000
0.000000
0.000000
0.000000
0.000000
0.000000
0.000000
0.000000
0.000000
0.000000
0.000000
0.000000
0.000000
0.000000
0.000000
0.000000
0.000000
0.000000
0.000000
0.000000
0.000000
0.000000
0.000000
0.000000
0.000000
0.000000
-5.000000
-5.000000
-5.000000
0.000000
0.000000
0.000000
0.000000
0.000000
0.000000
0.000000
0.000000
0.000000
0.000000
0.000000
0.000000
0.000000
0.000000
0.000000
0.000000
0.000000
0.000000
0.000000
0.000000
0.000000
0.000000
0.000000
0.000000
0.000000
0.000000
0.000000
0.000000
-5.000000
-5.000000
-5.000000
0.000000
0.000000
0.000000
0.000000
0.000000
0.000000
0.000000
0.000000
0.000000
0.000000
0.000000
0.000000
0.000000
0.000000
0.000000
0.000000
0.000000
0.000000
0.000000
0.000000
0.000000
0.000000
0.000000
0.000000
0.000000
0.000000
0.000000
0.000000
-5.000000
-5.000000
-5.000000
0.000000
0.000000
0.000000
0.000000
0.000000
0.000000
0.000000
0.000000
0.000000
0.000000
0.000000
0.000000
0.000000
0.000000
0.000000
0.000000
0.000000
0.000000
0.000000
0.000000
0.000000
0.000000
0.000000
0.000000
0.000000
0.000000
0.000000
0.000000
-5.000000
-5.000000
-5.000000
</DataArray>
</PointData>
<Cells>
<DataArray type='Int32' Name='connectivity' format='ascii'>
0
1
2
3
4
5
6
7
8
9
10
11
12
13
14
15
16
17
18
19
20
21
22
23
24
25
26
27
28
29
30
31
32
33
34
35
36
37
38
39
40
41
42
43
44
45
46
47
48
49
50
51
52
53
54
55
56
57
58
59
60
61
62
63
64
65
66
67
68
69
70
71
72
73
74
75
76
77
78
79
80
81
82
83
84
85
86
87
88
89
90
91
92
93
94
95
96
97
98
99
100
101
102
103
104
105
106
107
108
109
110
111
112
113
114
115
116
117
118
119
120
121
122
123
124
125
126
127
128
129
130
131
132
133
134
135
136
137
138
139
140
141
142
143
144
145
146
147
148
149
150
151
152
153
154
155
156
157
158
159
160
161
162
163
164
165
166
167
168
169
170
171
172
173
174
175
176
177
178
179
180
181
182
183
184
185
186
187
188
189
190
191
192
193
194
195
196
197
198
199
200
201
202
203
204
205
206
207
208
209
210
211
212
213
214
215
216
217
218
219
220
221
222
223
224
225
226
227
228
229
230
231
232
233
234
235
236
237
238
239
240
241
242
243
244
245
246
247
248
249
250
251
252
253
254
255
256
257
258
259
260
261
262
263
264
265
266
267
268
269
270
271
272
273
274
275
276
277
278
279
280
281
282
283
284
285
286
287
288
289
290
291
292
293
294
295
296
297
298
299
300
301
302
303
304
305
306
307
308
309
310
311
312
313
314
315
316
317
318
319
320
321
322
323
324
325
326
327
328
329
330
331
332
333
334
335
336
337
338
339
340
341
342
343
344
345
346
347
348
349
350
351
352
353
354
355
356
357
358
359
360
361
362
363
364
365
366
367
368
369
370
371
372
373
374
375
376
377
378
379
380
381
382
383
384
385
386
387
388
389
390
391
392
393
394
395
396
397
398
399
400
401
402
403
404
405
406
407
408
409
410
411
412
413
414
415
416
417
418
419
420
421
422
423
424
425
426
427
428
429
430
431
432
433
434
435
436
437
438
439
440
441
442
443
444
445
446
447
448
449
450
451
452
453
454
455
456
457
458
459
460
461
462
463
464
465
466
467
468
469
470
471
472
473
474
475
476
477
478
479
480
481
482
483
484
485
486
487
488
489
490
491
492
493
494
495
496
497
498
499
500
501
502
503
504
505
506
507
508
509
510
511
512
513
514
515
516
517
518
519
520
521
522
523
524
525
526
527
528
529
530
531
532
533
534
535
536
537
538
539
540
541
542
543
544
545
546
547
548
549
550
551
552
553
554
555
556
557
558
559
560
561
562
563
564
565
566
567
568
569
570
571
572
573
574
575
576
577
578
579
580
581
582
583
584
585
586
587
588
589
590
591
592
593
594
595
596
597
598
599
600
601
602
603
604
605
606
607
608
609
610
611
612
613
614
615
616
617
618
619
620
621
622
623
624
625
626
627
628
629
630
631
632
633
634
635
636
637
638
639
640
641
642
643
644
645
646
647
648
649
650
651
652
653
654
655
656
657
658
659
660
661
662
663
664
665
666
667
668
669
670
671
672
673
674
675
676
677
678
679
680
681
682
683
684
685
686
687
688
689
690
691
692
693
694
695
696
697
698
699
700
701
702
703
704
705
706
707
708
709
710
711
712
713
714
715
716
717
718
719
720
721
722
723
724
725
726
727
728
729
730
731
732
733
734
735
736
737
738
739
740
741
742
743