<?xml version='1.0' encoding='UTF-8'?>
<VTKFile xmlns='VTK' byte_order='LittleEndian' version='0.1' type='UnstructuredGrid'>
<UnstructuredGrid>
<Piece NumberOfCells='1488' NumberOfPoints='1488'>
<Points>
<DataArray NumberOfComponents='3' type='Float32' Name='Position' format='ascii'>
-0.075000 -0.075000 0.000000
-0.075000 -0.050000 0.000000
-0.075000 -0.025000 0.000000
-0.075000 0.000000 0.000000
-0.075000 0.025000 0.000000
-0.075000 0.050000 0.000000
-0.075000 0.075000 0.000000
-0.075000 0.100000 0.000000
-0.075000 0.125000 0.000000
-0.075000 0.150000 0.000000
-0.075000 0.175000 0.000000
-0.075000 0.200000 0.000000
-0.075000 0.225000 0.000000
-0.075000 0.250000 0.000000
-0.075000 0.275000 0.000000
-0.075000 0.300000 0.000000
-0.075000 0.325000 0.000000
-0.075000 0.350000 0.000000
-0.075000 0.375000 0.000000
-0.075000 0.400000 0.000000
-0.075000 0.425000 0.000000
-0.075000 0.450000 0.000000
-0.075000 0.475000 0.000000
-0.075000 0.500000 0.000000
-0.075000 0.525000 0.000000
-0.075000 0.550000 0.000000
-0.075000 0.575000 0.000000
-0.075000 0.600000 0.000000
-0.075000 0.625000 0.000000
-0.075000 0.650000 0.000000
-0.075000 0.675000 0.000000
-0.050000 -0.075000 0.000000
-0.050000 -0.050000 0.000000
-0.050000 -0.025000 0.000000
-0.050000 0.000000 0.000000
-0.050000 0.025000 0.000000
-0.050000 0.050000 0.000000
-0.050000 0.075000 0.000000
-0.050000 0.100000 0.000000
-0.050000 0.125000 0.000000
-0.050000 0.150000 0.000000
-0.050000 0.175000 0.000000
-0.050000 0.200000 0.000000
-0.050000 0.225000 0.000000
-0.050000 0.250000 0.000000
-0.050000 0.275000 0.000000
-0.050000 0.300000 0.000000
-0.050000 0.325000 0.000000
-0.050000 0.350000 0.000000
-0.050000 0.375000 0.000000
-0.050000 0.400000 0.000000
-0.050000 0.425000 0.000000
-0.050000 0.450000 0.000000
-0.050000 0.475000 0.000000
-0.050000 0.500000 0.000000
-0.050000 0.525000 0.000000
-0.050000 0.550000 0.000000
-0.050000 0.575000 0.000000
-0.050000 0.600000 0.000000
-0.050000 0.625000 0.000000
-0.050000 0.650000 0.000000
-0.050000 0.675000 0.000000
-0.025000 -0.075000 0.000000
-0.025000 -0.050000 0.000000
-0.025000 -0.025000 0.000000
-0.025000 0.000000 0.000000
-0.025000 0.025000 0.000000
-0.025000 0.050000 0.000000
-0.025000 0.075000 0.000000
-0.025000 0.100000 0.000000
-0.025000 0.125000 0.000000
-0.025000 0.150000 0.000000
-0.025000 0.175000 0.000000
-0.025000 0.200000 0.000000
-0.025000 0.225000 0.000000
-0.025000 0.250000 0.000000
-0.025000 0.275000 0.000000
-0.025000 0.300000 0.000000
-0.025000 0.325000 0.000000
-0.025000 0.350000 0.000000
-0.025000 0.375000 0.000000
-0.025000 0.400000 0.000000
-0.025000 0.425000 0.000000
-0.025000 0.450000 0.000000
-0.025000 0.475000 0.000000
-0.025000 0.500000 0.000000
-0.025000 0.525000 0.000000
-0.025000 0.550000 0.000000
-0.025000 0.575000 0.000000
-0.025000 0.600000 0.000000
-0.025000 0.625000 0.000000
-0.025000 0.650000 0.000000
-0.025000 0.675000 0.000000
0.000000 -0.075000 0.000000
0.000000 -0.050000 0.000000
0.000000 -0.025000 0.000000
0.000000 0.000000 0.000000
0.000000 0.025000 0.000000
0.000000 0.050000 0.000000
0.000000 0.075000 0.000000
0.000000 0.100000 0.000000
0.000000 0.125000 0.000000
0.000000 0.150000 0.000000
0.000000 0.175000 0.000000
0.000000 0.200000 0.000000
0.000000 0.225000 0.000000
0.000000 0.250000 0.000000
0.000000 0.275000 0.000000
0.000000 0.300000 0.000000
0.000000 0.325000 0.000000
0.000000 0.350000 0.000000
0.000000 0.375000 0.000000
0.000000 0.400000 0.000000
0.000000 0.425000 0.000000
0.000000 0.450000 0.000000
0.000000 0.475000 0.000000
0.000000 0.500000 0.000000
0.000000 0.525000 0.000000
0.000000 0.550000 0.000000
0.000000 0.575000 0.000000
0.000000 0.600000 0.000000
0.000000 0.625000 0.000000
0.000000 0.650000 0.000000
0.000000 0.675000 0.000000
0.025000 -0.075000 0.000000
0.025000 -0.050000 0.000000
0.025000 -0.025000 0.000000
0.025000 0.000000 0.000000
0.025000 0.025000 0.000000
0.025000 0.050000 0.000000
0.025000 0.075000 0.000000
0.025000 0.100000 0.000000
0.025000 0.125000 0.000000
0.025000 0.150000 0.000000
0.025000 0.175000 0.000000
0.025000 0.200000 0.000000
0.025000 0.225000 0.000000
0.025000 0.250000 0.000000
0.025000 0.275000 0.000000
0.025000 0.300000 0.000000
0.025000 0.325000 0.000000
0.025000 0.350000 0.000000
0.025000 0.375000 0.000000
0.025000 0.400000 0.000000
0.025000 0.425000 0.000000
0.025000 0.450000 0.000000
0.025000 0.475000 0.000000
0.025000 0.500000 0.000000
0.025000 0.525000 0.000000
0.025000 0.550000 0.000000
0.025000 0.575000 0.000000
0.025000 0.600000 0.000000
0.025000 0.625000 0.000000
0.025000 0.650000 0.000000
0.025000 0.675000 0.000000
0.050000 -0.075000 0.000000
0.050000 -0.050000 0.000000
0.050000 -0.025000 0.000000
0.050000 0.000000 0.000000
0.050000 0.025000 0.000000
0.050000 0.050000 0.000000
0.050000 0.075000 0.000000
0.050000 0.100000 0.000000
0.050000 0.125000 0.000000
0.050000 0.150000 0.000000
0.050000 0.175000 0.000000
0.050000 0.200000 0.000000
0.050000 0.225000 0.000000
0.050000 0.250000 0.000000
0.050000 0.275000 0.000000
0.050000 0.300000 0.000000
0.050000 0.325000 0.000000
0.050000 0.350000 0.000000
0.050000 0.375000 0.000000
0.050000 0.400000 0.000000
0.050000 0.425000 0.000000
0.050000 0.450000 0.000000
0.050000 0.475000 0.000000
0.050000 0.500000 0.000000
0.050000 0.525000 0.000000
0.050000 0.550000 0.000000
0.050000 0.575000 0.000000
0.050000 0.600000 0.000000
0.050000 0.625000 0.000000
0.050000 0.650000 0.000000
0.050000 0.675000 0.000000
0.075000 -0.075000 0.000000
0.075000 -0.050000 0.000000
0.075000 -0.025000 0.000000
0.075000 0.000000 0.000000
0.075000 0.025000 0.000000
0.075000 0.050000 0.000000
0.075000 0.075000 0.000000
0.075000 0.100000 0.000000
0.075000 0.125000 0.000000
0.075000 0.150000 0.000000
0.075000 0.175000 0.000000
0.075000 0.200000 0.000000
0.075000 0.225000 0.000000
0.075000 0.250000 0.000000
0.075000 0.275000 0.000000
0.075000 0.300000 0.000000
0.075000 0.325000 0.000000
0.075000 0.350000 0.000000
0.075000 0.375000 0.000000
0.075000 0.400000 0.000000
0.075000 0.425000 0.000000
0.075000 0.450000 0.000000
0.075000 0.475000 0.000000
0.075000 0.500000 0.000000
0.075000 0.525000 0.000000
0.075000 0.550000 0.000000
0.075000 0.575000 0.000000
0.075000 0.600000 0.000000
0.075000 0.625000 0.000000
0.075000 0.650000 0.000000
0.075000 0.675000 0.000000
0.100000 -0.075000 0.000000
0.100000 -0.050000 0.000000
0.100000 -0.025000 0.000000
0.100000 0.000000 0.000000
0.100000 0.025000 0.000000
0.100000 0.050000 0.000000
0.100000 0.075000 0.000000
0.100000 0.100000 0.000000
0.100000 0.125000 0.000000
0.100000 0.150000 0.000000
0.100000 0.175000 0.000000
0.100000 0.200000 0.000000
0.100000 0.225000 0.000000
0.100000 0.250000 0.000000
0.100000 0.275000 0.000000
0.100000 0.300000 0.000000
0.100000 0.325000 0.000000
0.100000 0.350000 0.000000
0.100000 0.375000 0.000000
0.100000 0.400000 0.000000
0.100000 0.425000 0.000000
0.100000 0.450000 0.000000
0.100000 0.475000 0.000000
0.100000 0.500000 0.000000
0.100000 0.525000 0.000000
0.100000 0.550000 0.000000
0.100000 0.575000 0.000000
0.100000 0.600000 0.000000
0.100000 0.625000 0.000000
0.100000 0.650000 0.000000
0.100000 0.675000 0.000000
0.125000 -0.075000 0.000000
0.125000 -0.050000 0.000000
0.125000 -0.025000 0.000000
0.125000 0.000000 0.000000
0.125000 0.025000 0.000000
0.125000 0.050000 0.000000
0.125000 0.075000 0.000000
0.125000 0.100000 0.000000
0.125000 0.125000 0.000000
0.125000 0.150000 0.000000
0.125000 0.175000 0.000000
0.125000 0.200000 0.000000
0.125000 0.225000 0.000000
0.125000 0.250000 0.000000
0.125000 0.275000 0.000000
0.125000 0.300000 0.000000
0.125000 0.325000 0.000000
0.125000 0.350000 0.000000
0.125000 0.375000 0.000000
0.125000 0.400000 0.000000
0.125000 0.425000 0.000000
0.125000 0.450000 0.000000
0.125000 0.475000 0.000000
0.125000 0.500000 0.000000
0.125000 0.525000 0.000000
0.125000 0.550000 0.000000
0.125000 0.575000 0.000000
0.125000 0.600000 0.000000
0.125000 0.625000 0.000000
0.125000 0.650000 0.000000
0.125000 0.675000 0.000000
0.150000 -0.075000 0.000000
0.150000 -0.050000 0.000000
0.150000 -0.025000 0.000000
0.150000 0.000000 0.000000
0.150000 0.025000 0.000000
0.150000 0.050000 0.000000
0.150000 0.075000 0.000000
0.150000 0.100000 0.000000
0.150000 0.125000 0.000000
0.150000 0.150000 0.000000
0.150000 0.175000 0.000000
0.150000 0.200000 0.000000
0.150000 0.225000 0.000000
0.150000 0.250000 0.000000
0.150000 0.275000 0.000000
0.150000 0.300000 0.000000
0.150000 0.325000 0.000000
0.150000 0.350000 0.000000
0.150000 0.375000 0.000000
0.150000 0.400000 0.000000
0.150000 0.425000 0.000000
0.150000 0.450000 0.000000
0.150000 0.475000 0.000000
0.150000 0.500000 0.000000
0.150000 0.525000 0.000000
0.150000 0.550000 0.000000
0.150000 0.575000 0.000000
0.150000 0.600000 0.000000
0.150000 0.625000 0.000000
0.150000 0.650000 0.000000
0.150000 0.675000 0.000000
0.175000 -0.075000 0.000000
0.175000 -0.050000 0.000000
0.175000 -0.025000 0.000000
0.175000 0.000000 0.000000
0.175000 0.025000 0.000000
0.175000 0.050000 0.000000
0.175000 0.075000 0.000000
0.175000 0.100000 0.000000
0.175000 0.125000 0.000000
0.175000 0.150000 0.000000
0.175000 0.175000 0.000000
0.175000 0.200000 0.000000
0.175000 0.225000 0.000000
0.175000 0.250000 0.000000
0.175000 0.275000 0.000000
0.175000 0.300000 0.000000
0.175000 0.325000 0.000000
0.175000 0.350000 0.000000
0.175000 0.375000 0.000000
0.175000 0.400000 0.000000
0.175000 0.425000 0.000000
0.175000 0.450000 0.000000
0.175000 0.475000 0.000000
0.175000 0.500000 0.000000
0.175000 0.525000 0.000000
0.175000 0.550000 0.000000
0.175000 0.575000 0.000000
0.175000 0.600000 0.000000
0.175000 0.625000 0.000000
0.175000 0.650000 0.000000
0.175000 0.675000 0.000000
0.200000 -0.075000 0.000000
0.200000 -0.050000 0.000000
0.200000 -0.025000 0.000000
0.200000 0.000000 0.000000
0.200000 0.025000 0.000000
0.200000 0.050000 0.000000
0.200000 0.075000 0.000000
0.200000 0.100000 0.000000
0.200000 0.125000 0.000000
0.200000 0.150000 0.000000
0.200000 0.175000 0.000000
0.200000 0.200000 0.000000
0.200000 0.225000 0.000000
0.200000 0.250000 0.000000
[...]
<PointData>
<DataArray NumberOfComponents='1' type='Int32' Name='ParticleType' format='ascii'>
4
4
4
4
4
4
4
4
4
4
4
4
4
4
4
4
4
4
4
4
4
4
4
4
4
4
4
4
2
2
2
4
4
4
4
4
4
4
4
4
4
4
4
4
4
4
4
4
4
4
4
4
4
4
4
4
4
4
4
2
2
2
4
4
3
3
3
3
3
3
3
3
3
3
3
3
3
3
3
3
3
3
3
3
3
3
3
3
3
3
2
2
2
4
4
3
3
3
3
3
3
3
3
3
3
3
3
3
3
3
3
3
3
3
3
3
3
3
3
3
3
2
2
2
4
4
3
3
0
0
0
0
0
0
0
0
0
0
0
0
0
0
0
0
0
0
0
0
0
1
1
2
2
2
2
4
4
3
3
0
0
0
0
0
0
0
0
0
0
0
0
0
0
0
0
0
0
0
0
0
0
1
2
2
2
2
4
4
3
3
0
0
0
0
0
0
0
0
0
0
0
0
0
0
0
0
0
0
0
0
0
0
1
2
2
2
2
4
4
3
3
0
0
0
0
0
0
0
0
0
0
0
0
0
0
0
0
0
0
0
0
0
0
1
2
2
2
2
4
4
3
3
0
0
0
0
0
0
0
0
0
0
0
0
0
0
0
0
0
0
0
0
0
0
1
2
2
2
2
4
4
3
3
0
0
0
0
0
0
0
0
0
0
0
0
0
0
0
0
0
0
0
0
0
0
1
2
2
2
2
4
4
3
3
0
0
0
0
0
0
0
0
0
0
0
0
0
0
0
0
0
0
0
0
0
0
1
2
2
2
2
4
4
3
3
0
0
0
0
0
0
0
0
0
0
0
0
0
0
0
0
0
0
0
0
0
0
1
2
2
2
2
4
4
3
3
0
0
0
0
0
0
0
0
0
0
0
0
0
0
0
0
0
0
0
0
0
0
1
2
2
2
2
4
4
3
3
0
0
0
0
0
0
0
0
0
0
0
0
0
0
0
0
0
0
0
0
0
0
1
2
2
2
2
4
4
3
3
0
0
0
0
0
0
0
0
0
0
0
0
0
0
0
0
0
0
0
0
0
0
1
2
2
2
2
4
4
3
3
0
0
0
0
0
0
0
0
0
0
0
0
0
0
0
0
0
0
0
0
0
0
1
2
2
2
2
4
4
3
3
0
0
0
0
0
0
0
0
0
0
0
0
0
0
0
0
0
0
0
0
0
0
1
2
2
2
2
4
4
3
3
0
0
0
0
0
0
0
0
0
0
0
0
0
0
0
0
0
0
0
0
0
0
0
2
2
2
2
4
4
3
3
0
0
0
0
0
0
0
0
0
0
0
0
0
0
0
0
0
0
0
0
0
0
0
2
2
2
2
4
4
3
3
0
0
0
0
0
0
0
0
0
0
0
0
0
0
0
0
0
0
0
0
0
0
0
2
2
2
2
4
4
3
3
0
0
0
0
0
0
0
0
0
0
0
0
0
0
0
0
0
0
0
0
0
0
0
2
2
2
2
4
4
3
3
0
0
0
0
0
0
0
0
0
0
0
0
0
0
0
0
0
0
0
0
0
0
0
2
2
2
2
4
4
3
3
0
0
0
0
0
0
0
0
0
0
0
0
0
0
0
0
0
0
0
0
0
0
0
1
2
2
2
4
4
3
3
0
0
0
0
0
0
0
0
0
0
0
0
0
0
0
0
0
0
0
0
0
0
0
1
2
2
2
4
4
3
3
0
0
0
0
0
0
0
0
0
0
0
0
0
0
0
0
0
0
0
0
0
0
0
2
2
2
2
4
4
3
3
0
0
0
0
0
0
0
0
0
0
0
0
0
0
0
0
0
0
0
0
0
0
0
2
2
2
2
4
4
3
3
0
0
0
0
0
0
0
0
0
0
0
0
0
0
0
0
0
0
0
0
0
0
0
2
2
2
2
4
4
3
3
0
0
0
0
0
0
0
0
0
0
0
0
0
0
0
0
0
0
0
0
0
0
0
2
2
2
2
4
4
3
3
0
0
0
0
0
0
0
0
0
0
0
0
0
0
0
0
0
0
0
0
0
0
0
2
2
2
2
4
4
3
3
0
0
0
0
0
0
0
0
0
0
0
0
0
0
0
0
0
0
0
0
0
0
0
2
2
2
2
4
4
3
3
0
0
0
0
0
0
0
0
0
0
0
0
0
0
0
0
0
0
0
0
0
0
0
2
2
2
2
4
4
3
3
0
0
0
0
0
0
0
0
0
0
0
0
0
0
0
0
0
0
0
0
0
0
1
2
2
2
2
4
4
3
3
0
0
0
0
0
0
0
0
0
0
0
0
0
0
0
0
0
0
0
0
0
0
1
2
2
2
2
4
4
3
3
0
0
0
0
0
0
0
0
0
0
0
0
0
0
0
0
0
0
0
0
0
0
1
2
2
2
2
4
4
3
3
0
0
0
0
0
0
0
0
0
0
0
0
0
0
0
0
0
0
0
0
0
0
1
2
2
2
2
4
4
3
3
0
0
0
0
0
0
0
0
0
0
0
0
0
0
0
0
0
0
0
0
0
0
1
2
2
2
2
4
4
3
3
0
0
0
0
0
0
0
0
0
0
0
0
0
0
0
0
0
0
0
0
0
0
1
2
2
2
2
4
4
3
3
0
0
0
0
0
0
0
0
0
0
0
0
0
0
0
0
0
0
0
0
0
0
1
2
2
2
2
4
4
3
3
0
0
0
0
0
0
0
0
0
0
0
0
0
0
0
0
0
0
0
0
0
0
1
2
2
2
2
4
4
3
3
0
0
0
0
0
0
0
0
0
0
0
0
0
0
0
0
0
0
0
0
0
0
1
2
2
2
2
4
4
3
3
0
0
0
0
0
0
0
0
0
0
0
0
0
0
0
0
0
0
0
0
0
0
1
2
2
2
2
4
4
3
3
0
0
0
0
0
0
0
0
0
0
0
0
0
0
0
0
0
0
0
0
0
0
1
2
2
2
2
4
4
3
3
0
0
0
0
0
0
0
0
0
0
0
0
0
0
0
0
0
0
0
0
0
0
1
2
2
2
2
4
4
3
3
0
0
0
0
0
0
0
0
0
0
0
0
0
0
0
0
0
0
0
0
0
1
1
2
2
2
2
4
4
3
3
3
3
3
3
3
3
3
3
3
3
3
3
3
3
3
3
3
3
3
3
3
3
3
3
2
2
2
4
4
3
3
3
3
3
3
3
3
3
3
3
3
3
3
3
3
3
3
3
3
3
3
3
3
3
3
2
2
2
4
4
4
4
4
4
4
4
4
4
4
4
4
4
4
4
4
4
4
4
4
4
4
4
4
4
4
4
2
2
2
4
4
4
4
4
4
4
4
4
4
4
4
4
4
4
4
4
4
4
4
4
4
4
4
4
4
4
4
2
2
2
</DataArray>
<DataArray NumberOfComponents='1' type='Float32' Name='Temperature' format='ascii'>
0.000000
0.000000
0.000000
0.000000
0.000000
0.000000
0.000000
0.000000
0.000000
0.000000
0.000000
0.000000
0.000000
0.000000
0.000000
0.000000
0.000000
0.000000
0.000000
0.000000
0.000000
0.000000
0.000000
0.000000
0.000000
0.000000
0.000000
0.000000
-5.000000
-5.000000
-5.000000
0.000000
0.000000
0.000000
0.000000
0.000000
0.000000
0.000000
0.000000
0.000000
0.000000
0.000000
0.000000
0.000000
0.000000
0.000000
0.000000
0.000000
0.000000
0.000000
0.000000
0.000000
0.000000
0.000000
0.000000
0.000000
0.000000
0.000000
0.000000
-5.000000
-5.000000
-5.000000
0.000000
0.000000
0.000000
0.000000
0.000000
0.000000
0.000000
0.000000
0.000000
0.000000
0.000000
0.000000
0.000000
0.000000
0.000000
0.000000
0.000000
0.000000
0.000000
0.000000
0.000000
0.000000
0.000000
0.000000
0.000000
0.000000
0.000000
0.000000
-5.000000
-5.000000
-5.000000
0.000000
0.000000
0.000000
0.000000
0.000000
0.000000
0.000000
0.000000
0.000000
0.000000
0.000000
0.000000
0.000000
0.000000
0.000000
0.000000
0.000000
0.000000
0.000000
0.000000
0.000000
0.000000
0.000000
0.000000
0.000000
0.000000
0.000000
0.000000
-5.000000
-5.000000
-5.000000
0.000000
0.000000
0.000000
0.000000
0.151948
0.272257
0.393780
0.508768
0.616416
0.714725
0.801919
0.876245
0.936062
0.979876
1.006392
1.014553
1.003570
0.972941
0.922448
0.852153
0.762365
0.653525
0.526316
0.379722
0.219764
0.009880
-0.000352
-2.129235
-5.000000
-5.000000
-5.000000
0.000000
0.000000
0.000000
0.000000
0.275332
0.493013
0.713164
0.921491
1.116591
1.294829
1.452983
1.587867
1.696490
1.776133
1.824441
1.839497
1.819879
1.764692
1.673582
1.546716
1.384752
1.188681
0.960034
0.697843
0.413858
0.017203
-0.001426
-2.370722
-5.000000
-5.000000
-5.000000
0.000000
0.000000
0.000000
0.000000
0.405211
0.725667
1.049808
1.356664
1.644174
1.906983
2.140327
2.339488
2.500030
2.617919
2.689664
2.712435
2.684150
2.603533
2.470126
2.284290
2.047177
1.760593
1.427389
1.047854
0.639278
0.113021
0.000231
-2.452555
-5.000000
-5.000000
-5.000000
0.000000
0.000000
0.000000
0.000000
0.536222
0.960367
1.389541
1.796034
2.177136
2.525750
2.835540
3.100208
3.313825
3.470995
3.567056
3.598247
3.561833
3.456178
3.280783
3.036285
2.724462
2.348141
1.911775
1.418054
0.888153
0.243930
0.001928
-2.460040
-5.000000
-5.000000
-5.000000
0.000000
0.000000
0.000000
0.000000
0.669699
1.199560
1.735919
2.244241
2.721161
3.157804
3.546205
3.878421
4.146955
4.344983
4.466619
4.507140
4.463149
4.332681
4.115246
3.811826
3.424910
2.958452
2.418562
1.810566
1.158299
0.393875
0.003196
-2.448541
-5.000000
-5.000000
-5.000000
0.000000
0.000000
0.000000
0.000000
0.805558
1.443094
2.088745
2.701057
3.276018
3.802932
4.272148
4.674007
4.999368
5.239905
5.388453
5.439290
5.388356
5.233382
4.973926
4.611374
4.148955
3.591739
2.947368
2.223524
1.445735
0.556417
0.004345
-2.431008
-5.000000
-5.000000
-5.000000
0.000000
0.000000
0.000000
0.000000
0.943621
1.690653
2.447565
3.165911
3.841034
4.460376
5.012547
5.486099
5.870167
6.154854
6.331654
6.393816
6.336614
6.157496
5.856118
5.434305
4.896025
4.247379
3.497299
2.655435
1.748313
0.728832
0.005980
-2.411051
-5.000000
-5.000000
-5.000000
0.000000
0.000000
0.000000
0.000000
1.083333
1.941245
2.810942
3.636941
4.413943
5.127502
5.764434
6.311439
6.755859
7.086154
7.292428
7.366873
7.304099
7.101303
6.758287
6.277359
5.663219
4.922875
4.066260
3.104525
2.064549
0.909876
0.006980
-2.389733
-5.000000
-5.000000
-5.000000
0.000000
0.000000
0.000000
0.000000
1.223780
2.193225
3.176484
4.111034
4.990943
5.799856
6.522763
7.144457
7.650429
8.027444
8.264174
8.351736
8.284089
8.058221
7.674144
7.134711
6.445372
5.613939
4.651024
3.568707
2.393367
1.099136
0.007971
-2.367249
-5.000000
-5.000000
-5.000000
0.000000
0.000000
0.000000
0.000000
1.363673
2.444271
3.540810
4.583782
5.566634
6.471106
7.280340
7.977192
8.545268
8.969601
9.237408
9.338729
9.266892
9.018734
8.594561
7.997869
7.234927
6.314322
5.247056
4.045459
2.734086
1.297007
0.008549
-2.343296
-5.000000
-5.000000
-5.000000
0.000000
0.000000
0.000000
0.000000
1.501361
2.691417
3.899595
5.049539
6.134100
7.133129
8.027931
8.799422
9.429310
9.900892
10.199925
10.315385
10.240007
9.970542
9.507694
8.855737
8.021912
7.015673
5.848283
4.531680
3.086609
1.505336
0.009332
-2.316692
-5.000000
-5.000000
-5.000000
0.000000
0.000000
0.000000
0.000000
1.634878
2.931123
4.247679
5.501575
6.685087
7.776232
8.754513
9.598936
10.289339
10.807297
11.137139
11.266803
11.188479
10.898903
10.399285
9.694846
8.794026
7.707411
6.446704
5.023178
3.451836
1.730268
0.009638
-2.282809
-5.000000
-5.000000
-5.000000
0.000000
0.000000
0.000000
0.000000
1.762010
3.159402
4.579249
5.932301
7.210292
8.389488
9.447660
10.361972
11.110452
11.673016
12.032609
12.176187
12.095441
11.787161
11.253164
10.499780
9.536915
8.376705
7.031874
5.513473
3.830932
1.982714
0.009947
-2.231154
-5.000000
-5.000000
-5.000000
0.000000
0.000000
0.000000
0.000000
1.880379
3.371975
4.888071
6.333581
7.699740
8.961182
10.094049
11.073776
11.876682
12.481117
12.868724
13.025542
12.942822
12.617455
12.051932
11.253811
10.234703
9.008758
7.590583
5.992422
4.220652
2.272678
0.118033
-2.147920
-5.000000
-5.000000
-5.000000
0.000000
0.000000
0.000000
0.000000
1.987556
3.564468
5.167766
6.697092
8.143231
9.479334
10.680063
11.719269
12.571709
13.214300
13.627496
13.796500
13.712177
13.371549
12.777796
11.939740
10.870820
9.587544
8.107255
6.445126
4.608473
2.593282
0.361003
-2.029204
-5.000000
-5.000000
-5.000000
0.000000
0.000000
0.000000
0.000000
2.081168
3.732615
5.412117
7.014720
8.530820
9.932269
11.192429
12.283760
13.179641
13.855726
14.291419
14.471191
14.385574
14.031726
13.413473
12.540832
11.429025
10.097004
8.565335
6.853492
4.973084
2.922778
0.643760
-1.880855
-5.000000
-5.000000
-5.000000
0.000000
0.000000
0.000000
0.000000
2.159023
3.872466
5.615369
7.278959
8.853308
10.309189
11.618878
12.753668
13.685789
14.389832
14.844325
15.033123
14.946482
14.581676
13.943085
13.041757
11.894470
10.522391
8.949207
7.199165
5.290083
3.229732
0.945774
-1.688208
-5.000000
-5.000000
-5.000000
0.000000
0.000000
0.000000
0.000000
2.219213
3.980591
5.772524
7.483288
9.102707
10.600718
11.948753
13.117204
14.077403
14.803119
15.272193
15.468003
15.380588
15.007307
14.352966
13.429400
12.254586
10.851403
9.245994
7.466557
5.536356
3.482582
1.214987
-1.419198
-5.000000
-5.000000
-5.000000
0.000000
0.000000
0.000000
0.000000
2.260216
4.054251
5.879591
7.622502
9.272640
10.799370
12.173554
13.364961
14.344315
15.084819
15.563847
15.764448
15.676507
15.297435
14.632311
13.693481
12.499682
11.074848
9.446575
7.645380
5.698864
3.652652
1.425779
-0.009779
-5.000000
-5.000000
-5.000000
0.000000
0.000000
0.000000
0.000000
2.280972
4.091540
5.933791
7.692977
9.358668
10.899940
12.287363
13.490397
14.479452
15.227447
15.711519
15.914547
15.826335
15.444311
14.773668
13.826965
12.623237
11.186782
9.545569
7.730399
5.769077
3.716971
1.489217
-0.008961
-5.000000
-5.000000
-5.000000
0.000000
0.000000
0.000000
0.000000
2.280939
4.091479
5.933701
7.692857
9.358516
10.899758
12.287151
13.490158
14.479190
15.227169
15.711231
15.914255
15.826036
15.443983
14.773248
13.826301
12.622015
11.184375
9.540715
7.720322
5.748281
3.665231
1.400448
-0.241657
-5.000000
-5.000000
-5.000000
0.000000
0.000000
0.000000
0.000000
2.260118
4.054072
5.879325
7.622147
9.272193
10.798832
12.172928
13.364255
14.343543
15.083998
15.562998
15.763587
15.675629
15.296479
14.631087
13.691543
12.496101
11.067789
9.432444
7.616489
5.639041
3.520044
1.178081
-1.421922
-5.000000
-5.000000
-5.000000
0.000000
0.000000
0.000000
0.000000
2.219054
3.980301
5.772094
7.482714
9.101985
10.599847
11.947741
13.116062
14.076154
14.801793
15.270825
15.466623
15.379191
15.005800
14.351049
13.426360
12.248939
10.840266
9.223944
7.422934
5.452064
3.312934
0.946017
-1.675353
-5.000000
-5.000000
-5.000000
0.000000
0.000000
0.000000
0.000000
2.158811
3.872079
5.614794
7.278191
8.852341
10.308024
11.617523
12.752141
13.684120
14.388063
14.842506
15.031300
14.944660
14.579743
13.940665
13.037932
11.887327
10.508294
8.921669
7.146661
5.194297
3.062570
0.703703
-1.847378
-5.000000
-5.000000
-5.000000
0.000000
0.000000
0.000000
0.000000
2.080912
3.732147
5.411422
7.013791
8.529650
9.930859
11.190790
12.281913
13.177625
13.853593
14.289237
14.469024
14.383446
14.029531
13.410805
12.536674
11.421245
10.081642
8.535726
6.799228
4.880620
2.779488
0.466483
-1.979678
-5.000000
-5.000000
-5.000000
0.000000
0.000000
0.000000
0.000000
1.987267
3.563941
5.166981
6.696042
8.141909
9.477740
10.678209
11.717181
12.569432
13.211898
13.625053
13.794101
13.709873
13.369269
12.775165
11.935769
10.863420
9.572917
8.079401
6.395896
4.529900
2.484251
0.240222
-2.094605
-5.000000
-5.000000
-5.000000
0.000000
0.000000
0.000000
0.000000
1.880070
3.371409
4.887229
6.332454
7.698320
8.959469
10.092056
11.071532
11.874237
12.478545
12.866124
13.023023
12.940470
12.615252
12.049593
11.250498
10.228609
8.996664
7.567723
5.953268
4.162247
2.199470
0.046540
-2.186910
-5.000000
-5.000000
-5.000000
0.000000
0.000000
0.000000
0.000000
1.761692
3.158820
4.578383
5.931142
7.208830
8.387724
9.445605
10.359659
11.107935
11.670376
12.029956
12.173650
12.093146
11.785156
11.251286
10.497423
9.532708
8.368233
7.015784
5.486566
3.793438
1.941026
0.009859
-2.249667
-5.000000
-5.000000
-5.000000
0.000000
0.000000
0.000000
0.000000
1.634564
2.930548
4.246822
5.500426
6.683637
7.774481
8.752472
9.596638
10.286840
10.804683
11.134525
11.264338
11.186317
10.897158
10.397923
9.693512
8.791815
7.702712
6.437401
5.007595
3.431368
1.709894
0.009619
-2.290085
-5.000000
-5.000000
-5.000000
0.000000
0.000000
0.000000
0.000000
1.501060
2.690868
3.898775
5.048439
6.132710
7.131448
8.025971
8.797214
9.426910
9.898385
10.197431
10.313058
10.238023
9.969064
9.506795
8.855277
8.021384
7.014112
5.844443
4.524682
3.077445
1.496881
0.009259
-2.319199
-5.000000
-5.000000
-5.000000
0.000000
0.000000
0.000000
0.000000
1.363395
2.443764
3.540052
4.582762
5.565344
6.469544
7.278516
7.975137
8.543033
8.967269
9.235094
9.336587
9.265105
9.017491
8.594004
7.998008
7.235535
6.314867
5.246809
4.043850
2.731386
1.294333
0.008853
-2.344193
-5.000000
-5.000000
-5.000000
0.000000
0.000000
0.000000
0.000000
1.223532
2.192770
3.175804
4.110118
4.989782
5.798449
6.521118
7.142600
7.648409
8.025336
8.262085
8.349811
8.282502
8.057164
7.673791
7.135153
6.446543
5.615560
4.652637
3.569842
2.393829
1.099097
0.007817
-2.367500
-5.000000
-5.000000
-5.000000
0.000000
0.000000
0.000000
0.000000
1.083118
1.940850
2.810350
3.636143
4.412930
5.126271
5.762993
6.309810
6.754085
7.084301
7.290590
7.365179
7.302705
7.100387
6.758020
6.277861
5.664500
4.924786
4.068485
3.106650
2.066191
0.910832
0.006973
-2.389715
-5.000000
-5.000000
-5.000000
0.000000
0.000000
0.000000
0.000000
0.943440
1.690321
2.447066
3.165237
3.840176
4.459332
5.011322
5.484711
5.868653
6.153269
6.330078
6.392357
6.335406
6.156689
5.855862
5.434715
4.897139
4.249108
3.499413
2.657590
1.750119
0.730000
0.005982
-2.410913
-5.000000
-5.000000
-5.000000
0.000000
0.000000
0.000000
0.000000
0.805410
1.442822
2.088336
2.700504
3.275313
3.802072
4.271137
4.672860
4.998112
5.238587
5.387137
5.438063
5.387326
5.232668
4.973649
4.611630
4.149781
3.593080
2.949056
2.225294
1.447270
0.557474
0.004837
-2.430811
-5.000000
-5.000000
-5.000000
0.000000
0.000000
0.000000
0.000000
0.669582
1.199344
1.735595
2.243801
2.720600
3.157117
3.545396
3.877501
4.145945
4.343919
4.465552
4.506135
4.462289
4.332058
4.114949
3.811929
3.425442
2.959375
2.419759
1.811846
1.159433
0.394677
0.003510
-2.448364
-5.000000
-5.000000
-5.000000
0.000000
0.000000
0.000000
0.000000
0.536132
0.960202
1.389292
1.795696
2.176704
2.525220
2.834915
3.099496
3.313041
3.470166
3.566219
3.597452
3.561138
3.455650
3.280487
3.036271
2.724752
2.348710
1.912543
1.418894
0.888905
0.244466
0.002025
-2.459917
-5.000000
-5.000000
-5.000000
0.000000
0.000000
0.000000
0.000000
0.405145
0.725546
1.049626
1.356417
1.643857
1.906594
2.139867
2.338963
2.499451
2.617304
2.689039
2.711835
2.683616
2.603109
2.469857
2.284208
2.047298
1.760901
1.427834
1.048354
0.639731
0.113343
0.000137
-2.452481
-5.000000
-5.000000
-5.000000
0.000000
0.000000
0.000000
0.000000
0.275288
0.492932
0.713041
0.921324
1.116377
1.294567
1.452673
1.587512
1.696098
1.775716
1.824016
1.839084
1.819505
1.764385
1.673368
1.546617
1.384776
1.188821
0.960259
0.698106
0.414101
0.017383
-0.001055
-2.370669
-5.000000
-5.000000
-5.000000
0.000000
0.000000
0.000000
0.000000
0.151924
0.272211
0.393711
0.508674
0.616296
0.714578
0.801744
0.876046
0.935842
0.979641
1.006150
1.014317
1.003353
0.972757
0.922312
0.852076
0.762351
0.653571
0.526407
0.379834
0.219866
0.009896
-0.000555
-2.129222
-5.000000
-5.000000
-5.000000
0.000000
0.000000
0.000000
0.000000
0.000000
0.000000
0.000000
0.000000
0.000000
0.000000
0.000000
0.000000
0.000000
0.000000
0.000000
0.000000
0.000000
0.000000
0.000000
0.000000
0.000000
0.000000
0.000000
0.000000
0.000000
0.000000
0.000000
0.000000
-5.000000
-5.000000
-5.000000
0.000000
0.000000
0.000000
0.000000
0.000000
0.000000
0.000000
0.000000
0.000000
0.000000
0.000000
0.000000
0.000000
0.000000
0.000000
0.000000
0.000000
0.000000
0.000000
0.000000
0.000000
0.000000
0.000000
0.000000
0.000000
0.000000
0.000000
0.000000
-5.000000
-5.000000
-5.000000
0.000000
0.000000
0.000000
0.000000
0.000000
0.000000
0.000000
0.000000
0.000000
0.000000
0.000000
0.000000
0.000000
0.000000
0.000000
0.000000
0.000000
0.000000
0.000000
0.000000
0.000000
0.000000
0.000000
0.000000
0.000000
0.000000
0.000000
0.000000
-5.000000
-5.000000
-5.000000
0.000000
0.000000
0.000000
0.000000
0.000000
0.000000
0.000000
0.000000
0.000000
0.000000
0.000000
0.000000
0.000000
0.000000
0.000000
0.000000
0.000000
0.000000
0.000000
0.000000
0.000000
0.000000
0.000000
0.000000
0.000000
0.000000
0.000000
0.000000
-5.000000
-5.000000
-5.000000
</DataArray>
</PointData>
<Cells>
<DataArray type='Int32' Name='connectivity' format='ascii'>
0
1
2
3
4
5
6
7
8
9
10
11
12
13
14
15
16
17
18
19
20
21
22
23
24
25
26
27
28
29
30
31
32
33
34
35
36
37
38
39
40
41
42
43
44
45
46
47
48
49
50
51
52
53
54
55
56
57
58
59
60
61
62
63
64
65
66
67
68
69
70
71
72
73
74
75
76
77
78
79
80
81
82
83
84
85
86
87
88
89
90
91
92
93
94
95
96
97
98
99
100
101
102
103
104
105
106
107
108
109
110
111
112
113
114
115
116
117
118
119
120
121
122
123
124
125
126
127
128
129
130
131
132
133
134
135
136
137
138
139
140
141
142
143
144
145
146
147
148
149
150
151
152
153
154
155
156
157
158
159
160
161
162
163
164
165
166
167
168
169
170
171
172
173
174
175
176
177
178
179
180
181
182
183
184
185
186
187
188
189
190
191
192
193
194
195
196
197
198
199
200
201
202
203
204
205
206
207
208
209
210
211
212
213
214
215
216
217
218
219
220
221
222
223
224
225
226
227
228
229
230
231
232
233
234
235
236
237
238
239
240
241
242
243
244
245
246
247
248
249
250
251
252
253
254
255
256
257
258
259
260
261
262
263
264
265
266
267
268
269
270
271
272
273
274
275
276
277
278
279
280
281
282
283
284
285
286
287
288
289
290
291
292
293
294
295
296
297
298
299
300
301
302
303
304
305
306
307
308
309
310
311
312
313
314
315
316
317
318
319
320
321
322
323
324
325
326
327
328
329
330
331
332
333
334
335
336
337
338
339
340
341
342
343
344
345
346
347
348
349
350
351
352
353
354
355
356
357
358
359
360
361
362
363
364
365
366
367
368
369
370
371
372
373
374
375
376
377
378
379
380
381
382
383
384
385
386
387
388
389
390
391
392
393
394
395
396
397
398
399
400
401
402
403
404
405
406
407
408
409
410
411
412
413
414
415
416
417
418
419
420
421
422
423
424
425
426
427
428
429
430
431
432
433
434
435
436
437
438
439
440
441
442
443
444
445
446
447
448
449
450
451
452
453
454
455
456
457
458
459
460
461
462
463
464
465
466
467
468
469
470
471
472
473
474
475
476
477
478
479
480
481
482
483
484
485
486
487
488
489
490
491
492
493
494
495
496
497
498
499
500
501
502
503
504
505
506
507
508
509
510
511
512
513
514
515
516
517
518
519
520
521
522
523
524
525
526
527
528
529
530
531
532
533
534
535
536
537
538
539
540
541
542
543
544
545
546
547
548
549
550
551
552
553
554
555
556
557
558
559
560
561
562
563
564
565
566
567
568
569
570
571
572
573
574
575
576
577
578
579
580
581
582
583
584
585
586
587
588
589
590
591
592
593
594
595
596
597
598
599
600
601
602
603
604
605
606
607
608
609
610
611
612
613
614
615
616
617
618
619
620
621
622
623
624
625
626
627
628
629
630
631
632
633
634
635
636
637
638
639
640
641
642
643
644
645
646
647
648
649
650
651
652
653
654
655
656
657
658
659
660
661
662
663
664
665
666
667
668
669
670
671
672
673
674
675
676
677
678
679
680
681
682
683
684
685
686
687
688
689
690
691
692
693
694
695
696
697
698
699
700
701
702
703
704
705
706
707
708
709
710
711
712
713
714
715
716
717
718
719
720
721
722
723
724
725
726
727
728
729
730
731
732
733
734
735
736
737
738
739
740
741
742
743
744
745
746
747
748
749
750
751
752
753
754
755
756
757
758
759
760
761
762
763