<?xml version='1.0' encoding='UTF-8'?>
<VTKFile xmlns='VTK' byte_order='LittleEndian' version='0.1' type='UnstructuredGrid'>
<UnstructuredGrid>
<Piece NumberOfCells='1488' NumberOfPoints='1488'>
<Points>
<DataArray NumberOfComponents='3' type='Float32' Name='Position' format='ascii'>
-0.075000 -0.075000 0.000000
-0.075000 -0.050000 0.000000
-0.075000 -0.025000 0.000000
-0.075000 0.000000 0.000000
-0.075000 0.025000 0.000000
-0.075000 0.050000 0.000000
-0.075000 0.075000 0.000000
-0.075000 0.100000 0.000000
-0.075000 0.125000 0.000000
-0.075000 0.150000 0.000000
-0.075000 0.175000 0.000000
-0.075000 0.200000 0.000000
-0.075000 0.225000 0.000000
-0.075000 0.250000 0.000000
-0.075000 0.275000 0.000000
-0.075000 0.300000 0.000000
-0.075000 0.325000 0.000000
-0.075000 0.350000 0.000000
-0.075000 0.375000 0.000000
-0.075000 0.400000 0.000000
-0.075000 0.425000 0.000000
-0.075000 0.450000 0.000000
-0.075000 0.475000 0.000000
-0.075000 0.500000 0.000000
-0.075000 0.525000 0.000000
-0.075000 0.550000 0.000000
-0.075000 0.575000 0.000000
-0.075000 0.600000 0.000000
-0.075000 0.625000 0.000000
-0.075000 0.650000 0.000000
-0.075000 0.675000 0.000000
-0.050000 -0.075000 0.000000
-0.050000 -0.050000 0.000000
-0.050000 -0.025000 0.000000
-0.050000 0.000000 0.000000
-0.050000 0.025000 0.000000
-0.050000 0.050000 0.000000
-0.050000 0.075000 0.000000
-0.050000 0.100000 0.000000
-0.050000 0.125000 0.000000
-0.050000 0.150000 0.000000
-0.050000 0.175000 0.000000
-0.050000 0.200000 0.000000
-0.050000 0.225000 0.000000
-0.050000 0.250000 0.000000
-0.050000 0.275000 0.000000
-0.050000 0.300000 0.000000
-0.050000 0.325000 0.000000
-0.050000 0.350000 0.000000
-0.050000 0.375000 0.000000
-0.050000 0.400000 0.000000
-0.050000 0.425000 0.000000
-0.050000 0.450000 0.000000
-0.050000 0.475000 0.000000
-0.050000 0.500000 0.000000
-0.050000 0.525000 0.000000
-0.050000 0.550000 0.000000
-0.050000 0.575000 0.000000
-0.050000 0.600000 0.000000
-0.050000 0.625000 0.000000
-0.050000 0.650000 0.000000
-0.050000 0.675000 0.000000
-0.025000 -0.075000 0.000000
-0.025000 -0.050000 0.000000
-0.025000 -0.025000 0.000000
-0.025000 0.000000 0.000000
-0.025000 0.025000 0.000000
-0.025000 0.050000 0.000000
-0.025000 0.075000 0.000000
-0.025000 0.100000 0.000000
-0.025000 0.125000 0.000000
-0.025000 0.150000 0.000000
-0.025000 0.175000 0.000000
-0.025000 0.200000 0.000000
-0.025000 0.225000 0.000000
-0.025000 0.250000 0.000000
-0.025000 0.275000 0.000000
-0.025000 0.300000 0.000000
-0.025000 0.325000 0.000000
-0.025000 0.350000 0.000000
-0.025000 0.375000 0.000000
-0.025000 0.400000 0.000000
-0.025000 0.425000 0.000000
-0.025000 0.450000 0.000000
-0.025000 0.475000 0.000000
-0.025000 0.500000 0.000000
-0.025000 0.525000 0.000000
-0.025000 0.550000 0.000000
-0.025000 0.575000 0.000000
-0.025000 0.600000 0.000000
-0.025000 0.625000 0.000000
-0.025000 0.650000 0.000000
-0.025000 0.675000 0.000000
0.000000 -0.075000 0.000000
0.000000 -0.050000 0.000000
0.000000 -0.025000 0.000000
0.000000 0.000000 0.000000
0.000000 0.025000 0.000000
0.000000 0.050000 0.000000
0.000000 0.075000 0.000000
0.000000 0.100000 0.000000
0.000000 0.125000 0.000000
0.000000 0.150000 0.000000
0.000000 0.175000 0.000000
0.000000 0.200000 0.000000
0.000000 0.225000 0.000000
0.000000 0.250000 0.000000
0.000000 0.275000 0.000000
0.000000 0.300000 0.000000
0.000000 0.325000 0.000000
0.000000 0.350000 0.000000
0.000000 0.375000 0.000000
0.000000 0.400000 0.000000
0.000000 0.425000 0.000000
0.000000 0.450000 0.000000
0.000000 0.475000 0.000000
0.000000 0.500000 0.000000
0.000000 0.525000 0.000000
0.000000 0.550000 0.000000
0.000000 0.575000 0.000000
0.000000 0.600000 0.000000
0.000000 0.625000 0.000000
0.000000 0.650000 0.000000
0.000000 0.675000 0.000000
0.025000 -0.075000 0.000000
0.025000 -0.050000 0.000000
0.025000 -0.025000 0.000000
0.025000 0.000000 0.000000
0.025000 0.025000 0.000000
0.025000 0.050000 0.000000
0.025000 0.075000 0.000000
0.025000 0.100000 0.000000
0.025000 0.125000 0.000000
0.025000 0.150000 0.000000
0.025000 0.175000 0.000000
0.025000 0.200000 0.000000
0.025000 0.225000 0.000000
0.025000 0.250000 0.000000
0.025000 0.275000 0.000000
0.025000 0.300000 0.000000
0.025000 0.325000 0.000000
0.025000 0.350000 0.000000
0.025000 0.375000 0.000000
0.025000 0.400000 0.000000
0.025000 0.425000 0.000000
0.025000 0.450000 0.000000
0.025000 0.475000 0.000000
0.025000 0.500000 0.000000
0.025000 0.525000 0.000000
0.025000 0.550000 0.000000
0.025000 0.575000 0.000000
0.025000 0.600000 0.000000
0.025000 0.625000 0.000000
0.025000 0.650000 0.000000
0.025000 0.675000 0.000000
0.050000 -0.075000 0.000000
0.050000 -0.050000 0.000000
0.050000 -0.025000 0.000000
0.050000 0.000000 0.000000
0.050000 0.025000 0.000000
0.050000 0.050000 0.000000
0.050000 0.075000 0.000000
0.050000 0.100000 0.000000
0.050000 0.125000 0.000000
0.050000 0.150000 0.000000
0.050000 0.175000 0.000000
0.050000 0.200000 0.000000
0.050000 0.225000 0.000000
0.050000 0.250000 0.000000
0.050000 0.275000 0.000000
0.050000 0.300000 0.000000
0.050000 0.325000 0.000000
0.050000 0.350000 0.000000
0.050000 0.375000 0.000000
0.050000 0.400000 0.000000
0.050000 0.425000 0.000000
0.050000 0.450000 0.000000
0.050000 0.475000 0.000000
0.050000 0.500000 0.000000
0.050000 0.525000 0.000000
0.050000 0.550000 0.000000
0.050000 0.575000 0.000000
0.050000 0.600000 0.000000
0.050000 0.625000 0.000000
0.050000 0.650000 0.000000
0.050000 0.675000 0.000000
0.075000 -0.075000 0.000000
0.075000 -0.050000 0.000000
0.075000 -0.025000 0.000000
0.075000 0.000000 0.000000
0.075000 0.025000 0.000000
0.075000 0.050000 0.000000
0.075000 0.075000 0.000000
0.075000 0.100000 0.000000
0.075000 0.125000 0.000000
0.075000 0.150000 0.000000
0.075000 0.175000 0.000000
0.075000 0.200000 0.000000
0.075000 0.225000 0.000000
0.075000 0.250000 0.000000
0.075000 0.275000 0.000000
0.075000 0.300000 0.000000
0.075000 0.325000 0.000000
0.075000 0.350000 0.000000
0.075000 0.375000 0.000000
0.075000 0.400000 0.000000
0.075000 0.425000 0.000000
0.075000 0.450000 0.000000
0.075000 0.475000 0.000000
0.075000 0.500000 0.000000
0.075000 0.525000 0.000000
0.075000 0.550000 0.000000
0.075000 0.575000 0.000000
0.075000 0.600000 0.000000
0.075000 0.625000 0.000000
0.075000 0.650000 0.000000
0.075000 0.675000 0.000000
0.100000 -0.075000 0.000000
0.100000 -0.050000 0.000000
0.100000 -0.025000 0.000000
0.100000 0.000000 0.000000
0.100000 0.025000 0.000000
0.100000 0.050000 0.000000
0.100000 0.075000 0.000000
0.100000 0.100000 0.000000
0.100000 0.125000 0.000000
0.100000 0.150000 0.000000
0.100000 0.175000 0.000000
0.100000 0.200000 0.000000
0.100000 0.225000 0.000000
0.100000 0.250000 0.000000
0.100000 0.275000 0.000000
0.100000 0.300000 0.000000
0.100000 0.325000 0.000000
0.100000 0.350000 0.000000
0.100000 0.375000 0.000000
0.100000 0.400000 0.000000
0.100000 0.425000 0.000000
0.100000 0.450000 0.000000
0.100000 0.475000 0.000000
0.100000 0.500000 0.000000
0.100000 0.525000 0.000000
0.100000 0.550000 0.000000
0.100000 0.575000 0.000000
0.100000 0.600000 0.000000
0.100000 0.625000 0.000000
0.100000 0.650000 0.000000
0.100000 0.675000 0.000000
0.125000 -0.075000 0.000000
0.125000 -0.050000 0.000000
0.125000 -0.025000 0.000000
0.125000 0.000000 0.000000
0.125000 0.025000 0.000000
0.125000 0.050000 0.000000
0.125000 0.075000 0.000000
0.125000 0.100000 0.000000
0.125000 0.125000 0.000000
0.125000 0.150000 0.000000
0.125000 0.175000 0.000000
0.125000 0.200000 0.000000
0.125000 0.225000 0.000000
0.125000 0.250000 0.000000
0.125000 0.275000 0.000000
0.125000 0.300000 0.000000
0.125000 0.325000 0.000000
0.125000 0.350000 0.000000
0.125000 0.375000 0.000000
0.125000 0.400000 0.000000
0.125000 0.425000 0.000000
0.125000 0.450000 0.000000
0.125000 0.475000 0.000000
0.125000 0.500000 0.000000
0.125000 0.525000 0.000000
0.125000 0.550000 0.000000
0.125000 0.575000 0.000000
0.125000 0.600000 0.000000
0.125000 0.625000 0.000000
0.125000 0.650000 0.000000
0.125000 0.675000 0.000000
0.150000 -0.075000 0.000000
0.150000 -0.050000 0.000000
0.150000 -0.025000 0.000000
0.150000 0.000000 0.000000
0.150000 0.025000 0.000000
0.150000 0.050000 0.000000
0.150000 0.075000 0.000000
0.150000 0.100000 0.000000
0.150000 0.125000 0.000000
0.150000 0.150000 0.000000
0.150000 0.175000 0.000000
0.150000 0.200000 0.000000
0.150000 0.225000 0.000000
0.150000 0.250000 0.000000
0.150000 0.275000 0.000000
0.150000 0.300000 0.000000
0.150000 0.325000 0.000000
0.150000 0.350000 0.000000
0.150000 0.375000 0.000000
0.150000 0.400000 0.000000
0.150000 0.425000 0.000000
0.150000 0.450000 0.000000
0.150000 0.475000 0.000000
0.150000 0.500000 0.000000
0.150000 0.525000 0.000000
0.150000 0.550000 0.000000
0.150000 0.575000 0.000000
0.150000 0.600000 0.000000
0.150000 0.625000 0.000000
0.150000 0.650000 0.000000
0.150000 0.675000 0.000000
0.175000 -0.075000 0.000000
0.175000 -0.050000 0.000000
0.175000 -0.025000 0.000000
0.175000 0.000000 0.000000
0.175000 0.025000 0.000000
0.175000 0.050000 0.000000
0.175000 0.075000 0.000000
0.175000 0.100000 0.000000
0.175000 0.125000 0.000000
0.175000 0.150000 0.000000
0.175000 0.175000 0.000000
0.175000 0.200000 0.000000
0.175000 0.225000 0.000000
0.175000 0.250000 0.000000
0.175000 0.275000 0.000000
0.175000 0.300000 0.000000
0.175000 0.325000 0.000000
0.175000 0.350000 0.000000
0.175000 0.375000 0.000000
0.175000 0.400000 0.000000
0.175000 0.425000 0.000000
0.175000 0.450000 0.000000
0.175000 0.475000 0.000000
0.175000 0.500000 0.000000
0.175000 0.525000 0.000000
0.175000 0.550000 0.000000
0.175000 0.575000 0.000000
0.175000 0.600000 0.000000
0.175000 0.625000 0.000000
0.175000 0.650000 0.000000
0.175000 0.675000 0.000000
0.200000 -0.075000 0.000000
0.200000 -0.050000 0.000000
0.200000 -0.025000 0.000000
0.200000 0.000000 0.000000
0.200000 0.025000 0.000000
0.200000 0.050000 0.000000
0.200000 0.075000 0.000000
0.200000 0.100000 0.000000
0.200000 0.125000 0.000000
0.200000 0.150000 0.000000
0.200000 0.175000 0.000000
0.200000 0.200000 0.000000
0.200000 0.225000 0.000000
0.200000 0.250000 0.000000
[...]
<PointData>
<DataArray NumberOfComponents='1' type='Int32' Name='ParticleType' format='ascii'>
4
4
4
4
4
4
4
4
4
4
4
4
4
4
4
4
4
4
4
4
4
4
4
4
4
4
4
4
2
2
2
4
4
4
4
4
4
4
4
4
4
4
4
4
4
4
4
4
4
4
4
4
4
4
4
4
4
4
4
2
2
2
4
4
3
3
3
3
3
3
3
3
3
3
3
3
3
3
3
3
3
3
3
3
3
3
3
3
3
3
2
2
2
4
4
3
3
3
3
3
3
3
3
3
3
3
3
3
3
3
3
3
3
3
3
3
3
3
3
3
3
2
2
2
4
4
3
3
0
0
0
0
0
0
0
0
0
0
0
0
0
0
0
0
0
0
0
0
0
0
1
2
2
2
2
4
4
3
3
0
0
0
0
0
0
0
0
0
0
0
0
0
0
0
0
0
0
0
0
0
0
1
2
2
2
2
4
4
3
3
0
0
0
0
0
0
0
0
0
0
0
0
0
0
0
0
0
0
0
0
0
0
1
2
2
2
2
4
4
3
3
0
0
0
0
0
0
0
0
0
0
0
0
0
0
0
0
0
0
0
0
0
0
1
2
2
2
2
4
4
3
3
0
0
0
0
0
0
0
0
0
0
0
0
0
0
0
0
0
0
0
0
0
0
1
2
2
2
2
4
4
3
3
0
0
0
0
0
0
0
0
0
0
0
0
0
0
0
0
0
0
0
0
0
0
0
1
2
2
2
4
4
3
3
0
0
0
0
0
0
0
0
0
0
0
0
0
0
0
0
0
0
0
0
0
0
0
1
2
2
2
4
4
3
3
0
0
0
0
0
0
0
0
0
0
0
0
0
0
0
0
0
0
0
0
0
0
0
1
2
2
2
4
4
3
3
0
0
0
0
0
0
0
0
0
0
0
0
0
0
0
0
0
0
0
0
0
0
0
1
2
2
2
4
4
3
3
0
0
0
0
0
0
0
0
0
0
0
0
0
0
0
0
0
0
0
0
0
0
0
1
2
2
2
4
4
3
3
0
0
0
0
0
0
0
0
0
0
0
0
0
0
0
0
0
0
0
0
0
0
0
1
2
2
2
4
4
3
3
0
0
0
0
0
0
0
0
0
0
0
0
0
0
0
0
0
0
0
0
0
0
0
1
2
2
2
4
4
3
3
0
0
0
0
0
0
0
0
0
0
0
0
0
0
0
0
0
0
0
0
0
0
0
1
2
2
2
4
4
3
3
0
0
0
0
0
0
0
0
0
0
0
0
0
0
0
0
0
0
0
0
0
0
0
1
2
2
2
4
4
3
3
0
0
0
0
0
0
0
0
0
0
0
0
0
0
0
0
0
0
0
0
0
0
0
1
2
2
2
4
4
3
3
0
0
0
0
0
0
0
0
0
0
0
0
0
0
0
0
0
0
0
0
0
0
0
1
2
2
2
4
4
3
3
0
0
0
0
0
0
0
0
0
0
0
0
0
0
0
0
0
0
0
0
0
0
0
1
2
2
2
4
4
3
3
0
0
0
0
0
0
0
0
0
0
0
0
0
0
0
0
0
0
0
0
0
0
0
1
2
2
2
4
4
3
3
0
0
0
0
0
0
0
0
0
0
0
0
0
0
0
0
0
0
0
0
0
0
0
1
2
2
2
4
4
3
3
0
0
0
0
0
0
0
0
0
0
0
0
0
0
0
0
0
0
0
0
0
0
0
1
2
2
2
4
4
3
3
0
0
0
0
0
0
0
0
0
0
0
0
0
0
0
0
0
0
0
0
0
0
0
1
2
2
2
4
4
3
3
0
0
0
0
0
0
0
0
0
0
0
0
0
0
0
0
0
0
0
0
0
0
0
1
2
2
2
4
4
3
3
0
0
0
0
0
0
0
0
0
0
0
0
0
0
0
0
0
0
0
0
0
0
0
1
2
2
2
4
4
3
3
0
0
0
0
0
0
0
0
0
0
0
0
0
0
0
0
0
0
0
0
0
0
0
1
2
2
2
4
4
3
3
0
0
0
0
0
0
0
0
0
0
0
0
0
0
0
0
0
0
0
0
0
0
0
1
2
2
2
4
4
3
3
0
0
0
0
0
0
0
0
0
0
0
0
0
0
0
0
0
0
0
0
0
0
0
1
2
2
2
4
4
3
3
0
0
0
0
0
0
0
0
0
0
0
0
0
0
0
0
0
0
0
0
0
0
0
1
2
2
2
4
4
3
3
0
0
0
0
0
0
0
0
0
0
0
0
0
0
0
0
0
0
0
0
0
0
0
1
2
2
2
4
4
3
3
0
0
0
0
0
0
0
0
0
0
0
0
0
0
0
0
0
0
0
0
0
0
0
1
2
2
2
4
4
3
3
0
0
0
0
0
0
0
0
0
0
0
0
0
0
0
0
0
0
0
0
0
0
0
1
2
2
2
4
4
3
3
0
0
0
0
0
0
0
0
0
0
0
0
0
0
0
0
0
0
0
0
0
0
0
1
2
2
2
4
4
3
3
0
0
0
0
0
0
0
0
0
0
0
0
0
0
0
0
0
0
0
0
0
0
0
1
2
2
2
4
4
3
3
0
0
0
0
0
0
0
0
0
0
0
0
0
0
0
0
0
0
0
0
0
0
0
1
2
2
2
4
4
3
3
0
0
0
0
0
0
0
0
0
0
0
0
0
0
0
0
0
0
0
0
0
0
0
1
2
2
2
4
4
3
3
0
0
0
0
0
0
0
0
0
0
0
0
0
0
0
0
0
0
0
0
0
0
0
1
2
2
2
4
4
3
3
0
0
0
0
0
0
0
0
0
0
0
0
0
0
0
0
0
0
0
0
0
0
1
2
2
2
2
4
4
3
3
0
0
0
0
0
0
0
0
0
0
0
0
0
0
0
0
0
0
0
0
0
0
1
2
2
2
2
4
4
3
3
0
0
0
0
0
0
0
0
0
0
0
0
0
0
0
0
0
0
0
0
0
0
1
2
2
2
2
4
4
3
3
0
0
0
0
0
0
0
0
0
0
0
0
0
0
0
0
0
0
0
0
0
0
1
2
2
2
2
4
4
3
3
0
0
0
0
0
0
0
0
0
0
0
0
0
0
0
0
0
0
0
0
0
0
1
2
2
2
2
4
4
3
3
3
3
3
3
3
3
3
3
3
3
3
3
3
3
3
3
3
3
3
3
3
3
3
3
2
2
2
4
4
3
3
3
3
3
3
3
3
3
3
3
3
3
3
3
3
3
3
3
3
3
3
3
3
3
3
2
2
2
4
4
4
4
4
4
4
4
4
4
4
4
4
4
4
4
4
4
4
4
4
4
4
4
4
4
4
4
2
2
2
4
4
4
4
4
4
4
4
4
4
4
4
4
4
4
4
4
4
4
4
4
4
4
4
4
4
4
4
2
2
2
</DataArray>
<DataArray NumberOfComponents='1' type='Float32' Name='Temperature' format='ascii'>
0.000000
0.000000
0.000000
0.000000
0.000000
0.000000
0.000000
0.000000
0.000000
0.000000
0.000000
0.000000
0.000000
0.000000
0.000000
0.000000
0.000000
0.000000
0.000000
0.000000
0.000000
0.000000
0.000000
0.000000
0.000000
0.000000
0.000000
0.000000
-5.000000
-5.000000
-5.000000
0.000000
0.000000
0.000000
0.000000
0.000000
0.000000
0.000000
0.000000
0.000000
0.000000
0.000000
0.000000
0.000000
0.000000
0.000000
0.000000
0.000000
0.000000
0.000000
0.000000
0.000000
0.000000
0.000000
0.000000
0.000000
0.000000
0.000000
0.000000
-5.000000
-5.000000
-5.000000
0.000000
0.000000
0.000000
0.000000
0.000000
0.000000
0.000000
0.000000
0.000000
0.000000
0.000000
0.000000
0.000000
0.000000
0.000000
0.000000
0.000000
0.000000
0.000000
0.000000
0.000000
0.000000
0.000000
0.000000
0.000000
0.000000
0.000000
0.000000
-5.000000
-5.000000
-5.000000
0.000000
0.000000
0.000000
0.000000
0.000000
0.000000
0.000000
0.000000
0.000000
0.000000
0.000000
0.000000
0.000000
0.000000
0.000000
0.000000
0.000000
0.000000
0.000000
0.000000
0.000000
0.000000
0.000000
0.000000
0.000000
0.000000
0.000000
0.000000
-5.000000
-5.000000
-5.000000
0.000000
0.000000
0.000000
0.000000
0.173860
0.310340
0.446440
0.572951
0.689085
0.793091
0.883791
0.960205
1.021498
1.066905
1.095691
1.107147
1.100615
1.075506
1.031333
0.967734
0.884469
0.781322
0.657758
0.510476
0.337215
0.068554
0.007989
-2.114479
-5.000000
-5.000000
-5.000000
0.000000
0.000000
0.000000
0.000000
0.313290
0.559099
0.804912
1.033958
1.244898
1.434506
1.600518
1.740955
1.854062
1.938201
1.991817
2.013471
2.001892
1.956043
1.875166
1.758815
1.606847
1.419274
1.195790
0.932464
0.627653
0.191095
0.008365
-2.339028
-5.000000
-5.000000
-5.000000
0.000000
0.000000
0.000000
0.000000
0.457604
0.817294
1.177899
1.515231
1.827392
2.109538
2.358033
2.569511
2.740845
2.869058
2.951367
2.985291
2.968793
2.900399
2.779270
2.605214
2.378649
2.100411
1.771227
1.388661
0.951073
0.376357
0.009206
-2.387553
-5.000000
-5.000000
-5.000000
0.000000
0.000000
0.000000
0.000000
0.600380
1.073360
1.549236
1.996741
2.413499
2.792916
3.129646
3.418422
3.654131
3.831830
3.946943
3.995543
3.974628
3.882339
3.718042
3.482304
3.176757
2.803836
2.366186
1.864567
1.297141
0.608092
0.009627
-2.294206
-5.000000
-5.000000
-5.000000
0.000000
0.000000
0.000000
0.000000
0.743696
1.331230
1.924941
2.486824
3.014115
3.498281
3.931816
4.306896
4.615633
4.850308
5.003834
5.070305
5.045496
4.927206
4.715369
4.411924
4.020519
3.546085
2.994096
2.369482
1.671691
0.882714
0.009738
-2.030575
-5.000000
-5.000000
-5.000000
0.000000
0.000000
0.000000
0.000000
0.888721
1.593113
2.308487
2.990436
3.635905
4.234197
4.775114
5.247498
5.639762
5.940456
6.139130
6.227271
6.199115
6.052170
5.787339
5.408648
4.922679
4.337850
3.663427
2.909180
2.078799
1.189499
0.065514
-0.009569
-5.000000
-5.000000
-5.000000
0.000000
0.000000
0.000000
0.000000
1.036993
1.861845
2.704147
3.513384
4.286317
5.009825
5.670427
6.252773
6.740555
7.117539
7.368968
7.483021
7.452042
7.273287
6.949065
6.486253
5.895352
5.189322
4.382182
3.488944
2.517822
1.509825
0.299228
-0.008176
-5.000000
-5.000000
-5.000000
0.000000
0.000000
0.000000
0.000000
1.189762
2.139678
3.115218
4.060006
4.970721
5.831538
6.625084
7.330927
7.926979
8.391128
8.703332
8.847732
8.814401
8.600380
8.209818
7.653221
6.946004
6.106728
5.155092
4.111598
2.989678
1.836682
0.498153
-0.007743
-5.000000
-5.000000
-5.000000
0.000000
0.000000
0.000000
0.000000
1.347620
2.427627
3.543068
4.631898
5.690813
6.701014
7.640642
8.483328
9.200178
9.762148
10.142959
10.322008
10.286729
10.033971
9.570136
8.910091
8.075115
7.090360
5.982082
4.776628
3.492456
2.178467
0.687527
-0.005757
-5.000000
-5.000000
-5.000000
0.000000
0.000000
0.000000
0.000000
1.510176
2.724866
3.986242
5.226750
6.443191
7.613550
8.710960
9.702355
10.551135
11.220384
11.676751
11.894254
11.857359
11.562739
11.019408
10.247239
9.274196
8.132895
6.856911
5.478896
4.022289
2.537446
0.885506
-0.005178
-5.000000
-5.000000
-5.000000
0.000000
0.000000
0.000000
0.000000
1.675871
3.028412
4.440017
5.837779
7.218671
8.557282
9.821335
10.970478
11.959700
12.743484
13.280745
13.539634
13.501388
13.162518
12.534925
11.643986
10.524987
9.218686
7.766573
6.208015
4.571606
2.909088
1.090168
-0.003576
-5.000000
-5.000000
-5.000000
0.000000
0.000000
0.000000
0.000000
1.841984
3.333148
4.896457
6.453831
8.002472
9.513472
10.948905
12.260773
13.395218
14.297675
14.918915
15.220916
15.181531
14.797113
14.082627
13.069262
11.800021
10.324216
8.691618
6.948565
5.128927
3.285804
1.297452
-0.002658
-5.000000
-5.000000
-5.000000
0.000000
0.000000
0.000000
0.000000
2.004829
3.632180
5.344967
7.060175
8.775262
10.457835
12.064269
13.538835
14.818717
15.840179
16.545743
16.891134
16.850778
16.420883
15.619532
14.483810
13.064549
11.419715
9.607441
7.681075
5.679745
3.657880
1.502083
-0.002317
-5.000000
-5.000000
-5.000000
0.000000
0.000000
0.000000
0.000000
2.160078
3.917450
5.773234
7.639790
9.514847
11.362646
13.134030
14.765745
16.186252
17.322880
18.110118
18.497597
18.456412
17.982635
17.097391
15.843519
14.279475
12.471651
10.486308
8.383593
6.207715
4.014366
1.698124
-0.000430
-5.000000
-5.000000
-5.000000
0.000000
0.000000
0.000000
0.000000
2.303165
4.180486
6.168353
8.174918
10.198169
12.199224
14.123761
15.901506
17.452772
18.696544
19.559804
19.986498
19.944610
19.430088
18.466901
17.103265
15.404756
13.445634
11.299739
9.033554
6.696008
4.343964
1.879315
0.000240
-5.000000
-5.000000
-5.000000
0.000000
0.000000
0.000000
0.000000
2.429685
4.413125
6.517932
8.648563
10.803242
12.940307
15.000843
16.908318
18.575789
19.914806
20.845668
21.307255
21.264782
20.714085
19.681673
18.220549
16.402631
14.309183
12.020794
9.609583
7.128670
4.635944
2.039787
0.001206
-5.000000
-5.000000
-5.000000
0.000000
0.000000
0.000000
0.000000
2.535716
4.608115
6.810991
9.045712
11.310700
13.561960
15.736710
17.753158
19.518256
20.937303
21.924976
22.415896
22.372951
21.791888
20.701345
19.158353
17.240160
15.033920
12.625894
10.092939
7.491692
4.880906
2.174376
0.000980
-5.000000
-5.000000
-5.000000
0.000000
0.000000
0.000000
0.000000
2.618037
4.759512
7.038547
9.354115
11.704794
14.044772
16.308263
18.409381
20.250336
21.731569
22.763389
23.277109
23.233809
22.629164
21.493469
19.886882
17.890793
15.596932
13.095966
10.468431
7.773705
5.071207
2.278971
0.002186
-5.000000
-5.000000
-5.000000
0.000000
0.000000
0.000000
0.000000
2.674236
4.862867
7.193894
9.564655
11.973829
14.374368
16.698431
18.857341
20.750071
22.273746
23.335696
23.864979
23.821440
23.200707
22.034202
20.384219
18.334971
15.981308
13.416905
10.724809
7.966264
5.201155
2.350387
0.002201
-5.000000
-5.000000
-5.000000
0.000000
0.000000
0.000000
0.000000
2.702726
4.915261
7.272638
9.671366
12.110177
14.541391
16.896131
19.084307
21.003250
22.548413
23.625617
24.162779
24.119120
23.490243
22.308142
20.636189
18.560025
16.176079
13.579546
10.854745
8.063866
5.267024
2.386594
0.002466
-5.000000
-5.000000
-5.000000
0.000000
0.000000
0.000000
0.000000
2.702726
4.915256
7.272620
9.671324
12.110098
14.541265
16.895949
19.084065
21.002951
22.548063
23.625230
24.162371
24.118711
23.489853
22.307788
20.635884
18.559777
16.175888
13.579409
10.854653
8.063810
5.266995
2.386582
0.002468
-5.000000
-5.000000
-5.000000
0.000000
0.000000
0.000000
0.000000
2.674235
4.862850
7.193836
9.564523
11.973589
14.373985
16.697881
18.856613
20.749168
22.272691
23.334529
23.863751
23.820211
23.199534
22.033138
20.383301
18.334222
15.980731
13.416489
10.724532
7.966095
5.201065
2.350349
0.002208
-5.000000
-5.000000
-5.000000
0.000000
0.000000
0.000000
0.000000
2.618033
4.759479
7.038444
9.353888
11.704385
14.044126
16.307338
18.408160
20.248826
21.729807
22.761440
23.275060
23.231757
22.627206
21.491690
19.885346
17.889537
15.595963
13.095266
10.467962
7.773418
5.071053
2.278907
0.002204
-5.000000
-5.000000
-5.000000
0.000000
0.000000
0.000000
0.000000
2.535706
4.608062
6.810838
9.045384
11.310117
13.561048
15.735414
17.751451
19.516148
20.934847
21.922262
22.413044
22.370095
21.789162
20.698867
19.156211
17.238405
15.032563
12.624911
10.092277
7.491285
4.880687
2.174286
0.001012
-5.000000
-5.000000
-5.000000
0.000000
0.000000
0.000000
0.000000
2.429668
4.413051
6.517730
8.648140
10.802497
12.939149
14.999202
16.906161
18.573131
19.911713
20.842253
21.303665
21.261186
20.710653
19.678551
18.217848
16.400415
14.307467
12.019547
9.608741
7.128151
4.635665
2.039675
0.001260
-5.000000
-5.000000
-5.000000
0.000000
0.000000
0.000000
0.000000
2.303144
4.180397
6.168112
8.174418
10.197295
12.197866
14.121840
15.898982
17.449664
18.692928
19.555811
19.982302
19.940408
19.426075
18.463250
17.100106
15.402163
13.443624
11.298277
9.032566
6.695398
4.343638
1.879189
0.000312
-5.000000
-5.000000
-5.000000
0.000000
0.000000
0.000000
0.000000
2.160059
3.917359
5.772980
7.639253
9.513900
11.361170
13.131934
14.762988
16.182852
17.318921
18.105744
18.492999
18.451807
17.978238
17.093392
15.840060
14.276638
12.469454
10.484712
8.382517
6.207054
4.014018
1.697996
-0.000315
-5.000000
-5.000000
-5.000000
0.000000
0.000000
0.000000
0.000000
2.004822
3.632107
5.344734
7.059655
8.774321
10.456347
12.062140
13.536019
14.815232
15.836111
16.541243
16.886400
16.846035
16.416356
15.615418
14.480258
13.061643
11.417473
9.605821
7.679991
5.679088
3.657542
1.501966
-0.002176
-5.000000
-5.000000
-5.000000
0.000000
0.000000
0.000000
0.000000
1.842000
3.333116
4.896283
6.453389
8.001625
9.512094
10.946900
12.258092
13.391879
14.293760
14.914572
15.216342
15.176947
14.792740
14.078662
13.065848
11.797242
10.322087
8.690096
6.947562
5.128332
3.285510
1.297361
-0.002531
-5.000000
-5.000000
-5.000000
0.000000
0.000000
0.000000
0.000000
1.675919
3.028442
4.439938
5.837469
7.218001
8.556128
9.819603
10.968119
11.956727
12.739973
13.276833
13.535503
13.497247
13.158573
12.531358
11.640931
10.522520
9.216819
7.765262
6.207175
4.571131
2.908875
1.090121
-0.003457
-5.000000
-5.000000
-5.000000
0.000000
0.000000
0.000000
0.000000
1.510263
2.724969
3.986281
5.226614
6.442758
7.612706
8.709616
9.700464
10.548704
11.217478
11.673488
11.890796
11.853889
11.559441
11.016441
10.244720
9.272187
8.131404
6.855897
5.478285
4.021992
2.537367
0.885548
-0.005058
-5.000000
-5.000000
-5.000000
0.000000
0.000000
0.000000
0.000000
1.347744
2.427805
3.543231
4.631948
5.690643
6.700523
7.639750
8.481989
9.198393
9.759967
10.140480
10.319364
10.284072
10.031453
9.567888
8.908208
8.073644
7.089303
5.981406
4.776293
3.492440
2.178729
0.687895
-0.005679
-5.000000
-5.000000
-5.000000
0.000000
0.000000
0.000000
0.000000
1.189916
2.139919
3.115490
4.060228
4.970802
5.831393
6.624642
7.330148
7.925858
8.389699
8.701669
8.845937
8.812592
8.598674
8.208315
7.651989
6.945074
6.106092
5.154735
4.111579
2.990278
1.838091
0.499798
-0.007640
-5.000000
-5.000000
-5.000000
0.000000
0.000000
0.000000
0.000000
1.037165
1.862126
2.704495
3.513735
4.286601
5.009971
5.670378
6.252492
6.740033
7.116796
7.368054
7.482009
7.451014
7.272328
6.948240
6.485604
5.894884
5.189017
4.382045
3.489271
2.519508
1.515216
0.310836
-0.008010
-5.000000
-5.000000
-5.000000
0.000000
0.000000
0.000000
0.000000
0.888893
1.593404
2.308867
2.990858
3.636317
4.234548
4.775357
5.247601
5.639713
5.940264
6.138824
6.226896
6.198724
6.051814
5.787055
5.408447
4.922535
4.337714
3.663310
2.909710
2.081420
1.204305
0.101285
-0.009171
-5.000000
-5.000000
-5.000000
0.000000
0.000000
0.000000
0.000000
0.743853
1.331500
1.925307
2.487254
3.014574
3.498733
3.932226
4.307240
4.615897
4.850492
5.003951
5.070378
5.045552
4.927271
4.715451
4.412004
4.020531
3.545915
2.993690
2.369571
1.674600
0.904972
0.009909
-1.992060
-5.000000
-5.000000
-5.000000
0.000000
0.000000
0.000000
0.000000
0.600508
1.073584
1.549547
1.997121
2.413928
2.793371
3.130104
3.418865
3.654546
3.832210
3.947291
3.995865
3.974934
3.882632
3.718312
3.482504
3.176771
2.803453
2.365170
1.863350
1.297644
0.626585
0.009676
-2.271755
-5.000000
-5.000000
-5.000000
0.000000
0.000000
0.000000
0.000000
0.457695
0.817456
1.178130
1.515523
1.827736
2.109921
2.358442
2.569934
2.741270
2.869478
2.951777
2.985688
2.969174
2.900758
2.779580
2.605410
2.378578
2.099763
1.769526
1.385657
0.947434
0.380980
0.009162
-2.375817
-5.000000
-5.000000
-5.000000
0.000000
0.000000
0.000000
0.000000
0.313343
0.559196
0.805055
1.034145
1.245126
1.434771
1.600814
1.741274
1.854397
1.938543
1.992161
2.013809
2.002218
1.956345
1.875415
1.758945
1.606702
1.418517
1.193825
0.928504
0.621734
0.184960
0.008536
-2.334506
-5.000000
-5.000000
-5.000000
0.000000
0.000000
0.000000
0.000000
0.173883
0.310383
0.446505
0.573040
0.689199
0.793229
0.883952
0.960384
1.021693
1.067109
1.095899
1.107354
1.100814
1.075687
1.031476
0.967791
0.884329
0.780732
0.656244
0.507256
0.332055
0.061409
0.007886
-2.113160
-5.000000
-5.000000
-5.000000
0.000000
0.000000
0.000000
0.000000
0.000000
0.000000
0.000000
0.000000
0.000000
0.000000
0.000000
0.000000
0.000000
0.000000
0.000000
0.000000
0.000000
0.000000
0.000000
0.000000
0.000000
0.000000
0.000000
0.000000
0.000000
0.000000
0.000000
0.000000
-5.000000
-5.000000
-5.000000
0.000000
0.000000
0.000000
0.000000
0.000000
0.000000
0.000000
0.000000
0.000000
0.000000
0.000000
0.000000
0.000000
0.000000
0.000000
0.000000
0.000000
0.000000
0.000000
0.000000
0.000000
0.000000
0.000000
0.000000
0.000000
0.000000
0.000000
0.000000
-5.000000
-5.000000
-5.000000
0.000000
0.000000
0.000000
0.000000
0.000000
0.000000
0.000000
0.000000
0.000000
0.000000
0.000000
0.000000
0.000000
0.000000
0.000000
0.000000
0.000000
0.000000
0.000000
0.000000
0.000000
0.000000
0.000000
0.000000
0.000000
0.000000
0.000000
0.000000
-5.000000
-5.000000
-5.000000
0.000000
0.000000
0.000000
0.000000
0.000000
0.000000
0.000000
0.000000
0.000000
0.000000
0.000000
0.000000
0.000000
0.000000
0.000000
0.000000
0.000000
0.000000
0.000000
0.000000
0.000000
0.000000
0.000000
0.000000
0.000000
0.000000
0.000000
0.000000
-5.000000
-5.000000
-5.000000
</DataArray>
</PointData>
<Cells>
<DataArray type='Int32' Name='connectivity' format='ascii'>
0
1
2
3
4
5
6
7
8
9
10
11
12
13
14
15
16
17
18
19
20
21
22
23
24
25
26
27
28
29
30
31
32
33
34
35
36
37
38
39
40
41
42
43
44
45
46
47
48
49
50
51
52
53
54
55
56
57
58
59
60
61
62
63
64
65
66
67
68
69
70
71
72
73
74
75
76
77
78
79
80
81
82
83
84
85
86
87
88
89
90
91
92
93
94
95
96
97
98
99
100
101
102
103
104
105
106
107
108
109
110
111
112
113
114
115
116
117
118
119
120
121
122
123
124
125
126
127
128
129
130
131
132
133
134
135
136
137
138
139
140
141
142
143
144
145
146
147
148
149
150
151
152
153
154
155
156
157
158
159
160
161
162
163
164
165
166
167
168
169
170
171
172
173
174
175
176
177
178
179
180
181
182
183
184
185
186
187
188
189
190
191
192
193
194
195
196
197
198
199
200
201
202
203
204
205
206
207
208
209
210
211
212
213
214
215
216
217
218
219
220
221
222
223
224
225
226
227
228
229
230
231
232
233
234
235
236
237
238
239
240
241
242
243
244
245
246
247
248
249
250
251
252
253
254
255
256
257
258
259
260
261
262
263
264
265
266
267
268
269
270
271
272
273
274
275
276
277
278
279
280
281
282
283
284
285
286
287
288
289
290
291
292
293
294
295
296
297
298
299
300
301
302
303
304
305
306
307
308
309
310
311
312
313
314
315
316
317
318
319
320
321
322
323
324
325
326
327
328
329
330
331
332
333
334
335
336
337
338
339
340
341
342
343
344
345
346
347
348
349
350
351
352
353
354
355
356
357
358
359
360
361
362
363
364
365
366
367
368
369
370
371
372
373
374
375
376
377
378
379
380
381
382
383
384
385
386
387
388
389
390
391
392
393
394
395
396
397
398
399
400
401
402
403
404
405
406
407
408
409
410
411
412
413
414
415
416
417
418
419
420
421
422
423
424
425
426
427
428
429
430
431
432
433
434
435
436
437
438
439
440
441
442
443
444
445
446
447
448
449
450
451
452
453
454
455
456
457
458
459
460
461
462
463
464
465
466
467
468
469
470
471
472
473
474
475
476
477
478
479
480
481
482
483
484
485
486
487
488
489
490
491
492
493
494
495
496
497
498
499
500
501
502
503
504
505
506
507
508
509
510
511
512
513
514
515
516
517
518
519
520
521
522
523
524
525
526
527
528
529
530
531
532
533
534
535
536
537
538
539
540
541
542
543
544
545
546
547
548
549
550
551
552
553
554
555
556
557
558
559
560
561
562
563
564
565
566
567
568
569
570
571
572
573
574
575
576
577
578
579
580
581
582
583
584
585
586
587
588
589
590
591
592
593
594
595
596
597
598
599
600
601
602
603
604
605
606
607
608
609
610
611
612
613
614
615
616
617
618
619
620
621
622
623
624
625
626
627
628
629
630
631
632
633
634
635
636
637
638
639
640
641
642
643
644
645
646
647
648
649
650
651
652
653
654
655
656
657
658
659
660
661
662
663
664
665
666
667
668
669
670
671
672
673
674
675
676
677
678
679
680
681
682
683
684
685
686
687
688
689
690
691
692
693
694
695
696
697
698
699
700
701
702
703
704
705
706
707
708
709
710
711
712
713
714
715
716
717
718
719
720
721
722
723
724
725
726
727
728
729
730
731
732
733
734
735
736
737
738
739
740
741
742