<?xml version='1.0' encoding='UTF-8'?>
<VTKFile xmlns='VTK' byte_order='LittleEndian' version='0.1' type='UnstructuredGrid'>
<UnstructuredGrid>
<Piece NumberOfCells='1488' NumberOfPoints='1488'>
<Points>
<DataArray NumberOfComponents='3' type='Float32' Name='Position' format='ascii'>
-0.075000 -0.075000 0.000000
-0.075000 -0.050000 0.000000
-0.075000 -0.025000 0.000000
-0.075000 0.000000 0.000000
-0.075000 0.025000 0.000000
-0.075000 0.050000 0.000000
-0.075000 0.075000 0.000000
-0.075000 0.100000 0.000000
-0.075000 0.125000 0.000000
-0.075000 0.150000 0.000000
-0.075000 0.175000 0.000000
-0.075000 0.200000 0.000000
-0.075000 0.225000 0.000000
-0.075000 0.250000 0.000000
-0.075000 0.275000 0.000000
-0.075000 0.300000 0.000000
-0.075000 0.325000 0.000000
-0.075000 0.350000 0.000000
-0.075000 0.375000 0.000000
-0.075000 0.400000 0.000000
-0.075000 0.425000 0.000000
-0.075000 0.450000 0.000000
-0.075000 0.475000 0.000000
-0.075000 0.500000 0.000000
-0.075000 0.525000 0.000000
-0.075000 0.550000 0.000000
-0.075000 0.575000 0.000000
-0.075000 0.600000 0.000000
-0.075000 0.625000 0.000000
-0.075000 0.650000 0.000000
-0.075000 0.675000 0.000000
-0.050000 -0.075000 0.000000
-0.050000 -0.050000 0.000000
-0.050000 -0.025000 0.000000
-0.050000 0.000000 0.000000
-0.050000 0.025000 0.000000
-0.050000 0.050000 0.000000
-0.050000 0.075000 0.000000
-0.050000 0.100000 0.000000
-0.050000 0.125000 0.000000
-0.050000 0.150000 0.000000
-0.050000 0.175000 0.000000
-0.050000 0.200000 0.000000
-0.050000 0.225000 0.000000
-0.050000 0.250000 0.000000
-0.050000 0.275000 0.000000
-0.050000 0.300000 0.000000
-0.050000 0.325000 0.000000
-0.050000 0.350000 0.000000
-0.050000 0.375000 0.000000
-0.050000 0.400000 0.000000
-0.050000 0.425000 0.000000
-0.050000 0.450000 0.000000
-0.050000 0.475000 0.000000
-0.050000 0.500000 0.000000
-0.050000 0.525000 0.000000
-0.050000 0.550000 0.000000
-0.050000 0.575000 0.000000
-0.050000 0.600000 0.000000
-0.050000 0.625000 0.000000
-0.050000 0.650000 0.000000
-0.050000 0.675000 0.000000
-0.025000 -0.075000 0.000000
-0.025000 -0.050000 0.000000
-0.025000 -0.025000 0.000000
-0.025000 0.000000 0.000000
-0.025000 0.025000 0.000000
-0.025000 0.050000 0.000000
-0.025000 0.075000 0.000000
-0.025000 0.100000 0.000000
-0.025000 0.125000 0.000000
-0.025000 0.150000 0.000000
-0.025000 0.175000 0.000000
-0.025000 0.200000 0.000000
-0.025000 0.225000 0.000000
-0.025000 0.250000 0.000000
-0.025000 0.275000 0.000000
-0.025000 0.300000 0.000000
-0.025000 0.325000 0.000000
-0.025000 0.350000 0.000000
-0.025000 0.375000 0.000000
-0.025000 0.400000 0.000000
-0.025000 0.425000 0.000000
-0.025000 0.450000 0.000000
-0.025000 0.475000 0.000000
-0.025000 0.500000 0.000000
-0.025000 0.525000 0.000000
-0.025000 0.550000 0.000000
-0.025000 0.575000 0.000000
-0.025000 0.600000 0.000000
-0.025000 0.625000 0.000000
-0.025000 0.650000 0.000000
-0.025000 0.675000 0.000000
0.000000 -0.075000 0.000000
0.000000 -0.050000 0.000000
0.000000 -0.025000 0.000000
0.000000 0.000000 0.000000
0.000000 0.025000 0.000000
0.000000 0.050000 0.000000
0.000000 0.075000 0.000000
0.000000 0.100000 0.000000
0.000000 0.125000 0.000000
0.000000 0.150000 0.000000
0.000000 0.175000 0.000000
0.000000 0.200000 0.000000
0.000000 0.225000 0.000000
0.000000 0.250000 0.000000
0.000000 0.275000 0.000000
0.000000 0.300000 0.000000
0.000000 0.325000 0.000000
0.000000 0.350000 0.000000
0.000000 0.375000 0.000000
0.000000 0.400000 0.000000
0.000000 0.425000 0.000000
0.000000 0.450000 0.000000
0.000000 0.475000 0.000000
0.000000 0.500000 0.000000
0.000000 0.525000 0.000000
0.000000 0.550000 0.000000
0.000000 0.575000 0.000000
0.000000 0.600000 0.000000
0.000000 0.625000 0.000000
0.000000 0.650000 0.000000
0.000000 0.675000 0.000000
0.025000 -0.075000 0.000000
0.025000 -0.050000 0.000000
0.025000 -0.025000 0.000000
0.025000 0.000000 0.000000
0.025000 0.025000 0.000000
0.025000 0.050000 0.000000
0.025000 0.075000 0.000000
0.025000 0.100000 0.000000
0.025000 0.125000 0.000000
0.025000 0.150000 0.000000
0.025000 0.175000 0.000000
0.025000 0.200000 0.000000
0.025000 0.225000 0.000000
0.025000 0.250000 0.000000
0.025000 0.275000 0.000000
0.025000 0.300000 0.000000
0.025000 0.325000 0.000000
0.025000 0.350000 0.000000
0.025000 0.375000 0.000000
0.025000 0.400000 0.000000
0.025000 0.425000 0.000000
0.025000 0.450000 0.000000
0.025000 0.475000 0.000000
0.025000 0.500000 0.000000
0.025000 0.525000 0.000000
0.025000 0.550000 0.000000
0.025000 0.575000 0.000000
0.025000 0.600000 0.000000
0.025000 0.625000 0.000000
0.025000 0.650000 0.000000
0.025000 0.675000 0.000000
0.050000 -0.075000 0.000000
0.050000 -0.050000 0.000000
0.050000 -0.025000 0.000000
0.050000 0.000000 0.000000
0.050000 0.025000 0.000000
0.050000 0.050000 0.000000
0.050000 0.075000 0.000000
0.050000 0.100000 0.000000
0.050000 0.125000 0.000000
0.050000 0.150000 0.000000
0.050000 0.175000 0.000000
0.050000 0.200000 0.000000
0.050000 0.225000 0.000000
0.050000 0.250000 0.000000
0.050000 0.275000 0.000000
0.050000 0.300000 0.000000
0.050000 0.325000 0.000000
0.050000 0.350000 0.000000
0.050000 0.375000 0.000000
0.050000 0.400000 0.000000
0.050000 0.425000 0.000000
0.050000 0.450000 0.000000
0.050000 0.475000 0.000000
0.050000 0.500000 0.000000
0.050000 0.525000 0.000000
0.050000 0.550000 0.000000
0.050000 0.575000 0.000000
0.050000 0.600000 0.000000
0.050000 0.625000 0.000000
0.050000 0.650000 0.000000
0.050000 0.675000 0.000000
0.075000 -0.075000 0.000000
0.075000 -0.050000 0.000000
0.075000 -0.025000 0.000000
0.075000 0.000000 0.000000
0.075000 0.025000 0.000000
0.075000 0.050000 0.000000
0.075000 0.075000 0.000000
0.075000 0.100000 0.000000
0.075000 0.125000 0.000000
0.075000 0.150000 0.000000
0.075000 0.175000 0.000000
0.075000 0.200000 0.000000
0.075000 0.225000 0.000000
0.075000 0.250000 0.000000
0.075000 0.275000 0.000000
0.075000 0.300000 0.000000
0.075000 0.325000 0.000000
0.075000 0.350000 0.000000
0.075000 0.375000 0.000000
0.075000 0.400000 0.000000
0.075000 0.425000 0.000000
0.075000 0.450000 0.000000
0.075000 0.475000 0.000000
0.075000 0.500000 0.000000
0.075000 0.525000 0.000000
0.075000 0.550000 0.000000
0.075000 0.575000 0.000000
0.075000 0.600000 0.000000
0.075000 0.625000 0.000000
0.075000 0.650000 0.000000
0.075000 0.675000 0.000000
0.100000 -0.075000 0.000000
0.100000 -0.050000 0.000000
0.100000 -0.025000 0.000000
0.100000 0.000000 0.000000
0.100000 0.025000 0.000000
0.100000 0.050000 0.000000
0.100000 0.075000 0.000000
0.100000 0.100000 0.000000
0.100000 0.125000 0.000000
0.100000 0.150000 0.000000
0.100000 0.175000 0.000000
0.100000 0.200000 0.000000
0.100000 0.225000 0.000000
0.100000 0.250000 0.000000
0.100000 0.275000 0.000000
0.100000 0.300000 0.000000
0.100000 0.325000 0.000000
0.100000 0.350000 0.000000
0.100000 0.375000 0.000000
0.100000 0.400000 0.000000
0.100000 0.425000 0.000000
0.100000 0.450000 0.000000
0.100000 0.475000 0.000000
0.100000 0.500000 0.000000
0.100000 0.525000 0.000000
0.100000 0.550000 0.000000
0.100000 0.575000 0.000000
0.100000 0.600000 0.000000
0.100000 0.625000 0.000000
0.100000 0.650000 0.000000
0.100000 0.675000 0.000000
0.125000 -0.075000 0.000000
0.125000 -0.050000 0.000000
0.125000 -0.025000 0.000000
0.125000 0.000000 0.000000
0.125000 0.025000 0.000000
0.125000 0.050000 0.000000
0.125000 0.075000 0.000000
0.125000 0.100000 0.000000
0.125000 0.125000 0.000000
0.125000 0.150000 0.000000
0.125000 0.175000 0.000000
0.125000 0.200000 0.000000
0.125000 0.225000 0.000000
0.125000 0.250000 0.000000
0.125000 0.275000 0.000000
0.125000 0.300000 0.000000
0.125000 0.325000 0.000000
0.125000 0.350000 0.000000
0.125000 0.375000 0.000000
0.125000 0.400000 0.000000
0.125000 0.425000 0.000000
0.125000 0.450000 0.000000
0.125000 0.475000 0.000000
0.125000 0.500000 0.000000
0.125000 0.525000 0.000000
0.125000 0.550000 0.000000
0.125000 0.575000 0.000000
0.125000 0.600000 0.000000
0.125000 0.625000 0.000000
0.125000 0.650000 0.000000
0.125000 0.675000 0.000000
0.150000 -0.075000 0.000000
0.150000 -0.050000 0.000000
0.150000 -0.025000 0.000000
0.150000 0.000000 0.000000
0.150000 0.025000 0.000000
0.150000 0.050000 0.000000
0.150000 0.075000 0.000000
0.150000 0.100000 0.000000
0.150000 0.125000 0.000000
0.150000 0.150000 0.000000
0.150000 0.175000 0.000000
0.150000 0.200000 0.000000
0.150000 0.225000 0.000000
0.150000 0.250000 0.000000
0.150000 0.275000 0.000000
0.150000 0.300000 0.000000
0.150000 0.325000 0.000000
0.150000 0.350000 0.000000
0.150000 0.375000 0.000000
0.150000 0.400000 0.000000
0.150000 0.425000 0.000000
0.150000 0.450000 0.000000
0.150000 0.475000 0.000000
0.150000 0.500000 0.000000
0.150000 0.525000 0.000000
0.150000 0.550000 0.000000
0.150000 0.575000 0.000000
0.150000 0.600000 0.000000
0.150000 0.625000 0.000000
0.150000 0.650000 0.000000
0.150000 0.675000 0.000000
0.175000 -0.075000 0.000000
0.175000 -0.050000 0.000000
0.175000 -0.025000 0.000000
0.175000 0.000000 0.000000
0.175000 0.025000 0.000000
0.175000 0.050000 0.000000
0.175000 0.075000 0.000000
0.175000 0.100000 0.000000
0.175000 0.125000 0.000000
0.175000 0.150000 0.000000
0.175000 0.175000 0.000000
0.175000 0.200000 0.000000
0.175000 0.225000 0.000000
0.175000 0.250000 0.000000
0.175000 0.275000 0.000000
0.175000 0.300000 0.000000
0.175000 0.325000 0.000000
0.175000 0.350000 0.000000
0.175000 0.375000 0.000000
0.175000 0.400000 0.000000
0.175000 0.425000 0.000000
0.175000 0.450000 0.000000
0.175000 0.475000 0.000000
0.175000 0.500000 0.000000
0.175000 0.525000 0.000000
0.175000 0.550000 0.000000
0.175000 0.575000 0.000000
0.175000 0.600000 0.000000
0.175000 0.625000 0.000000
0.175000 0.650000 0.000000
0.175000 0.675000 0.000000
0.200000 -0.075000 0.000000
0.200000 -0.050000 0.000000
0.200000 -0.025000 0.000000
0.200000 0.000000 0.000000
0.200000 0.025000 0.000000
0.200000 0.050000 0.000000
0.200000 0.075000 0.000000
0.200000 0.100000 0.000000
0.200000 0.125000 0.000000
0.200000 0.150000 0.000000
0.200000 0.175000 0.000000
0.200000 0.200000 0.000000
0.200000 0.225000 0.000000
0.200000 0.250000 0.000000
[...]
<PointData>
<DataArray NumberOfComponents='1' type='Int32' Name='ParticleType' format='ascii'>
4
4
4
4
4
4
4
4
4
4
4
4
4
4
4
4
4
4
4
4
4
4
4
4
4
4
4
4
2
2
2
4
4
4
4
4
4
4
4
4
4
4
4
4
4
4
4
4
4
4
4
4
4
4
4
4
4
4
4
2
2
2
4
4
3
3
3
3
3
3
3
3
3
3
3
3
3
3
3
3
3
3
3
3
3
3
3
3
3
3
2
2
2
4
4
3
3
3
3
3
3
3
3
3
3
3
3
3
3
3
3
3
3
3
3
3
3
3
3
3
3
2
2
2
4
4
3
3
0
0
0
0
0
0
0
0
0
0
0
0
0
0
0
0
0
0
0
0
0
0
1
1
2
2
2
4
4
3
3
0
0
0
0
0
0
0
0
0
0
0
0
0
0
0
0
0
0
0
0
0
0
1
1
2
2
2
4
4
3
3
0
0
0
0
0
0
0
0
0
0
0
0
0
0
0
0
0
0
0
0
0
0
1
1
2
2
2
4
4
3
3
0
0
0
0
0
0
0
0
0
0
0
0
0
0
0
0
0
0
0
0
0
0
0
1
2
2
2
4
4
3
3
0
0
0
0
0
0
0
0
0
0
0
0
0
0
0
0
0
0
0
0
0
0
0
1
2
2
2
4
4
3
3
0
0
0
0
0
0
0
0
0
0
0
0
0
0
0
0
0
0
0
0
0
0
0
1
2
2
2
4
4
3
3
0
0
0
0
0
0
0
0
0
0
0
0
0
0
0
0
0
0
0
0
0
0
0
1
2
2
2
4
4
3
3
0
0
0
0
0
0
0
0
0
0
0
0
0
0
0
0
0
0
0
0
0
0
0
1
2
2
2
4
4
3
3
0
0
0
0
0
0
0
0
0
0
0
0
0
0
0
0
0
0
0
0
0
0
0
1
2
2
2
4
4
3
3
0
0
0
0
0
0
0
0
0
0
0
0
0
0
0
0
0
0
0
0
0
0
0
1
2
2
2
4
4
3
3
0
0
0
0
0
0
0
0
0
0
0
0
0
0
0
0
0
0
0
0
0
0
0
1
2
2
2
4
4
3
3
0
0
0
0
0
0
0
0
0
0
0
0
0
0
0
0
0
0
0
0
0
0
0
1
2
2
2
4
4
3
3
0
0
0
0
0
0
0
0
0
0
0
0
0
0
0
0
0
0
0
0
0
0
0
1
2
2
2
4
4
3
3
0
0
0
0
0
0
0
0
0
0
0
0
0
0
0
0
0
0
0
0
0
0
0
1
2
2
2
4
4
3
3
0
0
0
0
0
0
0
0
0
0
0
0
0
0
0
0
0
0
0
0
0
0
0
1
2
2
2
4
4
3
3
0
0
0
0
0
0
0
0
0
0
0
0
0
0
0
0
0
0
0
0
0
0
0
1
2
2
2
4
4
3
3
0
0
0
0
0
0
0
0
0
0
0
0
0
0
0
0
0
0
0
0
0
0
0
1
2
2
2
4
4
3
3
0
0
0
0
0
0
0
0
0
0
0
0
0
0
0
0
0
0
0
0
0
0
0
1
2
2
2
4
4
3
3
0
0
0
0
0
0
0
0
0
0
0
0
0
0
0
0
0
0
0
0
0
0
0
1
2
2
2
4
4
3
3
0
0
0
0
0
0
0
0
0
0
0
0
0
0
0
0
0
0
0
0
0
0
0
1
2
2
2
4
4
3
3
0
0
0
0
0
0
0
0
0
0
0
0
0
0
0
0
0
0
0
0
0
0
0
1
2
2
2
4
4
3
3
0
0
0
0
0
0
0
0
0
0
0
0
0
0
0
0
0
0
0
0
0
0
0
1
2
2
2
4
4
3
3
0
0
0
0
0
0
0
0
0
0
0
0
0
0
0
0
0
0
0
0
0
0
0
1
2
2
2
4
4
3
3
0
0
0
0
0
0
0
0
0
0
0
0
0
0
0
0
0
0
0
0
0
0
0
1
2
2
2
4
4
3
3
0
0
0
0
0
0
0
0
0
0
0
0
0
0
0
0
0
0
0
0
0
0
0
1
2
2
2
4
4
3
3
0
0
0
0
0
0
0
0
0
0
0
0
0
0
0
0
0
0
0
0
0
0
0
1
2
2
2
4
4
3
3
0
0
0
0
0
0
0
0
0
0
0
0
0
0
0
0
0
0
0
0
0
0
0
1
2
2
2
4
4
3
3
0
0
0
0
0
0
0
0
0
0
0
0
0
0
0
0
0
0
0
0
0
0
0
1
2
2
2
4
4
3
3
0
0
0
0
0
0
0
0
0
0
0
0
0
0
0
0
0
0
0
0
0
0
0
1
2
2
2
4
4
3
3
0
0
0
0
0
0
0
0
0
0
0
0
0
0
0
0
0
0
0
0
0
0
0
1
2
2
2
4
4
3
3
0
0
0
0
0
0
0
0
0
0
0
0
0
0
0
0
0
0
0
0
0
0
0
1
2
2
2
4
4
3
3
0
0
0
0
0
0
0
0
0
0
0
0
0
0
0
0
0
0
0
0
0
0
0
1
2
2
2
4
4
3
3
0
0
0
0
0
0
0
0
0
0
0
0
0
0
0
0
0
0
0
0
0
0
0
1
2
2
2
4
4
3
3
0
0
0
0
0
0
0
0
0
0
0
0
0
0
0
0
0
0
0
0
0
0
0
1
2
2
2
4
4
3
3
0
0
0
0
0
0
0
0
0
0
0
0
0
0
0
0
0
0
0
0
0
0
0
1
2
2
2
4
4
3
3
0
0
0
0
0
0
0
0
0
0
0
0
0
0
0
0
0
0
0
0
0
0
0
1
2
2
2
4
4
3
3
0
0
0
0
0
0
0
0
0
0
0
0
0
0
0
0
0
0
0
0
0
0
0
1
2
2
2
4
4
3
3
0
0
0
0
0
0
0
0
0
0
0
0
0
0
0
0
0
0
0
0
0
0
1
1
2
2
2
4
4
3
3
0
0
0
0
0
0
0
0
0
0
0
0
0
0
0
0
0
0
0
0
0
0
1
1
2
2
2
4
4
3
3
0
0
0
0
0
0
0
0
0
0
0
0
0
0
0
0
0
0
0
0
0
0
1
1
2
2
2
4
4
3
3
3
3
3
3
3
3
3
3
3
3
3
3
3
3
3
3
3
3
3
3
3
3
3
3
2
2
2
4
4
3
3
3
3
3
3
3
3
3
3
3
3
3
3
3
3
3
3
3
3
3
3
3
3
3
3
2
2
2
4
4
4
4
4
4
4
4
4
4
4
4
4
4
4
4
4
4
4
4
4
4
4
4
4
4
4
4
2
2
2
4
4
4
4
4
4
4
4
4
4
4
4
4
4
4
4
4
4
4
4
4
4
4
4
4
4
4
4
2
2
2
</DataArray>
<DataArray NumberOfComponents='1' type='Float32' Name='Temperature' format='ascii'>
0.000000
0.000000
0.000000
0.000000
0.000000
0.000000
0.000000
0.000000
0.000000
0.000000
0.000000
0.000000
0.000000
0.000000
0.000000
0.000000
0.000000
0.000000
0.000000
0.000000
0.000000
0.000000
0.000000
0.000000
0.000000
0.000000
0.000000
0.000000
-5.000000
-5.000000
-5.000000
0.000000
0.000000
0.000000
0.000000
0.000000
0.000000
0.000000
0.000000
0.000000
0.000000
0.000000
0.000000
0.000000
0.000000
0.000000
0.000000
0.000000
0.000000
0.000000
0.000000
0.000000
0.000000
0.000000
0.000000
0.000000
0.000000
0.000000
0.000000
-5.000000
-5.000000
-5.000000
0.000000
0.000000
0.000000
0.000000
0.000000
0.000000
0.000000
0.000000
0.000000
0.000000
0.000000
0.000000
0.000000
0.000000
0.000000
0.000000
0.000000
0.000000
0.000000
0.000000
0.000000
0.000000
0.000000
0.000000
0.000000
0.000000
0.000000
0.000000
-5.000000
-5.000000
-5.000000
0.000000
0.000000
0.000000
0.000000
0.000000
0.000000
0.000000
0.000000
0.000000
0.000000
0.000000
0.000000
0.000000
0.000000
0.000000
0.000000
0.000000
0.000000
0.000000
0.000000
0.000000
0.000000
0.000000
0.000000
0.000000
0.000000
0.000000
0.000000
-5.000000
-5.000000
-5.000000
0.000000
0.000000
0.000000
0.000000
0.221780
0.390922
0.552201
0.692586
0.811696
0.909415
0.987344
1.047716
1.092811
1.124509
1.144064
1.152034
1.148283
1.131974
1.101534
1.054611
0.988103
0.898376
0.781714
0.635478
0.457675
0.256088
0.009212
-0.001614
-5.000000
-5.000000
-5.000000
0.000000
0.000000
0.000000
0.000000
0.392584
0.691946
0.978472
1.228900
1.442677
1.619482
1.761904
1.873526
1.957941
2.018017
2.055555
2.071231
2.064643
2.034328
1.977709
1.890994
1.769182
1.606401
1.396597
1.135514
0.819124
0.465932
0.009394
-0.000823
-5.000000
-5.000000
-5.000000
0.000000
0.000000
0.000000
0.000000
0.558735
0.985932
1.396488
1.757830
2.069288
2.330178
2.543618
2.713854
2.844961
2.939929
3.000331
3.026383
3.017123
2.970513
2.883364
2.751140
2.567869
2.326469
2.019555
1.642019
1.187812
0.684132
0.009893
0.000110
-5.000000
-5.000000
-5.000000
0.000000
0.000000
0.000000
0.000000
0.709355
1.253728
1.780164
2.248212
2.657283
3.006101
3.297559
3.535422
3.722872
3.861600
3.951684
3.991946
3.980412
3.914568
3.791273
3.606410
3.354558
3.029125
2.623059
2.131711
1.548461
0.906312
0.016778
0.000465
-5.000000
-5.000000
-5.000000
0.000000
0.000000
0.000000
0.000000
0.846697
1.499803
2.136749
2.710781
3.221654
3.667214
4.049168
4.369315
4.628121
4.824070
4.954020
5.014111
5.000704
4.910905
4.742476
4.493220
4.160221
3.739521
3.226473
2.618616
1.910766
1.140588
0.134188
0.000896
-5.000000
-5.000000
-5.000000
0.000000
0.000000
0.000000
0.000000
0.973699
1.729758
2.475128
3.158379
3.779974
4.336531
4.827408
5.250602
5.601574
5.873169
6.056803
6.144260
6.129371
6.008953
5.782717
5.452250
5.019548
4.485882
3.851427
3.117741
2.282930
1.387168
0.265893
0.001753
-5.000000
-5.000000
-5.000000
0.000000
0.000000
0.000000
0.000000
1.095130
1.952399
2.808645
3.609329
4.356080
5.043895
5.668453
6.221799
6.691672
7.062361
7.317150
7.441419
7.425392
7.265673
6.965149
6.531383
5.974099
5.302793
4.525179
3.648790
2.676024
1.648493
0.407427
0.002102
-5.000000
-5.000000
-5.000000
0.000000
0.000000
0.000000
0.000000
1.216033
2.176909
3.150953
4.081961
4.973259
5.817812
6.606175
7.322071
7.942476
8.439830
8.786224
8.958293
8.941410
8.732021
8.337550
7.773981
7.061899
6.222333
5.273482
4.230949
3.102288
1.929859
0.559432
0.001973
-5.000000
-5.000000
-5.000000
0.000000
0.000000
0.000000
0.000000
1.340587
2.410767
3.512879
4.590333
5.648729
6.678595
7.663895
8.577584
9.382717
10.036427
10.496389
10.728012
10.710485
10.440142
9.930354
9.208072
8.308004
7.266140
6.114207
4.878051
3.571397
2.237031
0.724505
0.002785
-5.000000
-5.000000
-5.000000
0.000000
0.000000
0.000000
0.000000
1.471160
2.657981
3.899750
5.140560
6.388857
7.632357
8.847079
9.992909
11.015979
11.854817
12.449595
12.752115
12.734097
12.391791
11.745854
10.836628
9.716045
8.438314
7.051574
5.593991
4.086490
2.572128
0.903724
0.002756
-5.000000
-5.000000
-5.000000
0.000000
0.000000
0.000000
0.000000
1.607785
2.918136
4.309939
5.728808
7.186513
8.667673
10.139247
11.546151
12.815092
13.863245
14.610692
14.993624
14.975219
14.551661
13.752007
12.632012
11.263420
9.721377
8.072840
6.370033
4.641964
2.931856
1.095470
0.003382
-5.000000
-5.000000
-5.000000
0.000000
0.000000
0.000000
0.000000
1.748162
3.186401
4.734903
6.341375
8.021238
9.755833
11.502329
13.189408
14.722696
15.996179
16.908122
17.377777
17.359056
16.848091
15.883080
14.536543
12.901756
11.076616
9.148500
7.184843
5.223323
3.307270
1.295129
0.003596
-5.000000
-5.000000
-5.000000
0.000000
0.000000
0.000000
0.000000
1.888136
3.454449
5.160659
6.956860
8.862242
10.854817
12.881710
14.854936
16.658459
18.162439
19.242729
19.801180
19.782194
19.181858
18.047775
16.469696
14.563037
12.449071
10.236151
8.007322
5.809118
3.684949
1.495751
0.003440
-5.000000
-5.000000
-5.000000
0.000000
0.000000
0.000000
0.000000
2.022501
3.712016
5.570290
7.549832
9.673494
11.916044
14.214830
16.465650
18.531406
20.259102
21.502810
22.147478
22.128268
21.441229
20.143107
18.340403
16.170049
13.776042
11.287123
8.801513
6.374354
4.049138
1.689148
0.004405
-5.000000
-5.000000
-5.000000
0.000000
0.000000
0.000000
0.000000
2.145933
3.948690
5.946811
8.095031
10.419543
12.892093
15.441003
17.947139
20.254038
22.187427
23.581376
24.305312
24.285916
23.519202
22.070313
20.061131
17.648347
14.996832
12.254068
9.532241
6.894430
4.384227
1.867074
0.004571
-5.000000
-5.000000
-5.000000
0.000000
0.000000
0.000000
0.000000
2.253790
4.155454
6.275639
8.570965
11.070488
13.743278
16.509777
19.237867
21.754286
23.866322
25.390727
26.183487
26.163941
25.328073
23.748295
21.559804
18.936399
16.061035
13.097444
10.169945
7.348540
4.676935
2.022536
0.005016
-5.000000
-5.000000
-5.000000
0.000000
0.000000
0.000000
0.000000
2.342607
4.325633
6.546088
8.962066
11.604913
14.441466
17.385709
20.294934
22.982209
25.239848
26.870539
27.719365
27.699703
26.807514
25.121107
22.786483
19.991323
16.933266
13.789259
10.693508
7.721687
4.917630
2.150419
0.004616
-5.000000
-5.000000
-5.000000
0.000000
0.000000
0.000000
0.000000
2.410225
4.455110
6.751672
9.259051
12.010288
14.970498
18.048778
21.094450
23.910322
26.277483
27.988093
28.879067
28.859322
27.924801
26.158223
23.713676
20.789236
17.593542
14.313454
11.090613
8.004984
5.100526
2.247685
0.005376
-5.000000
-5.000000
-5.000000
0.000000
0.000000
0.000000
0.000000
2.455579
4.541901
6.889359
9.457754
12.281229
15.323734
18.491107
21.627385
24.528585
26.968376
28.731964
29.650874
29.631077
28.668501
26.848779
24.331335
21.321108
18.034006
14.663445
11.355997
8.194483
5.222968
2.312833
0.005273
-5.000000
-5.000000
-5.000000
0.000000
0.000000
0.000000
0.000000
2.478304
4.585367
6.958266
9.557116
12.416599
15.500078
18.711768
21.893080
24.836666
27.312520
29.102406
30.035180
30.015357
29.038858
27.192757
24.639117
21.586274
18.253733
14.838160
11.488574
8.289220
5.284218
2.345442
0.005424
-5.000000
-5.000000
-5.000000
0.000000
0.000000
0.000000
0.000000
2.478340
4.585426
6.958343
9.557197
12.416671
15.500124
18.711775
21.893037
24.836569
27.312372
29.102219
30.034972
30.015149
29.038671
27.192608
24.639017
21.586227
18.253734
14.838199
11.488634
8.289286
5.284274
2.345477
0.005425
-5.000000
-5.000000
-5.000000
0.000000
0.000000
0.000000
0.000000
2.455682
4.542072
6.889577
9.457980
12.281418
15.323837
18.491081
21.627198
24.528225
26.967857
28.731321
29.650163
29.630366
28.667856
26.848256
24.330969
21.320911
18.033965
14.663525
11.356151
8.194662
5.223124
2.312934
0.005278
-5.000000
-5.000000
-5.000000
0.000000
0.000000
0.000000
0.000000
2.410386
4.455373
6.751996
9.259371
12.010523
14.970564
18.048597
21.093969
23.909523
26.276390
27.986775
28.877626
28.857881
27.923480
26.157125
23.712867
20.788739
17.593336
14.313482
11.090793
8.005229
5.100753
2.247837
0.005389
-5.000000
-5.000000
-5.000000
0.000000
0.000000
0.000000
0.000000
2.342809
4.325958
6.546475
8.962414
11.605104
14.441374
17.385221
20.293972
22.980750
25.237933
26.868277
27.716913
27.697250
26.805248
25.119185
22.785010
19.990339
16.932743
13.789115
10.693625
7.721935
4.917888
2.150602
0.004641
-5.000000
-5.000000
-5.000000
0.000000
0.000000
0.000000
0.000000
2.254019
4.155814
6.276044
8.571281
11.070555
13.742926
16.508856
19.236276
21.751996
23.863397
25.387318
26.179816
26.160267
25.324658
23.745360
21.557498
18.934781
16.060072
13.097029
10.169921
7.348735
4.677189
2.022732
0.005057
-5.000000
-5.000000
-5.000000
0.000000
0.000000
0.000000
0.000000
2.146179
3.949066
5.947208
8.095283
10.419450
12.891445
15.439614
17.944885
20.250889
22.183465
23.576797
24.300400
24.281001
23.514617
22.066340
20.057962
17.646060
14.995392
12.253345
9.532043
6.894544
4.384455
1.867271
0.004625
-5.000000
-5.000000
-5.000000
0.000000
0.000000
0.000000
0.000000
2.022758
3.712401
5.570677
7.550028
9.673268
11.915152
14.213059
16.462857
18.527561
20.254304
21.497288
22.141564
22.122352
21.435700
20.138295
18.336535
16.167219
13.774214
11.286147
8.801169
6.374398
4.049342
1.689344
0.004487
-5.000000
-5.000000
-5.000000
0.000000
0.000000
0.000000
0.000000
1.888406
3.454852
5.161059
6.957048
8.861969
10.853822
12.879764
14.851885
16.654270
18.157221
19.236729
19.794758
19.775769
19.175850
18.042541
16.465481
14.559944
12.447061
10.235064
8.006922
5.809142
3.685153
1.495954
0.003538
-5.000000
-5.000000
-5.000000
0.000000
0.000000
0.000000
0.000000
1.748453
3.186840
4.735355
6.341631
8.021047
9.754934
11.500490
13.186476
14.718634
15.991095
16.902260
17.371495
17.352771
16.842220
15.877978
14.532451
12.898776
11.074707
9.147500
7.184515
5.223403
3.307512
1.295353
0.003681
-5.000000
-5.000000
-5.000000
0.000000
0.000000
0.000000
0.000000
1.608101
2.918628
4.310482
5.729207
7.186533
8.667069
10.137802
11.543718
12.811633
13.858854
14.605591
14.988138
14.969729
14.546549
13.747594
12.628518
11.260933
9.719854
8.072127
6.369906
4.642176
2.932177
1.095732
0.003459
-5.000000
-5.000000
-5.000000
0.000000
0.000000
0.000000
0.000000
1.471505
2.658535
3.900408
5.141152
6.389180
7.632196
8.846243
9.991265
11.013486
11.851549
12.445734
12.747930
12.729908
12.387915
11.742560
10.834094
9.714339
8.437391
7.051295
5.594159
4.086888
2.572554
0.904034
0.002831
-5.000000
-5.000000
-5.000000
0.000000
0.000000
0.000000
0.000000
1.340955
2.411376
3.513648
4.591126
5.649383
6.678933
7.663758
8.576859
9.381363
10.034489
10.494001
10.725377
10.707845
10.437737
9.928385
9.206668
8.307209
7.265908
6.114418
4.878542
3.571991
2.237564
0.724863
0.002832
-5.000000
-5.000000
-5.000000
0.000000
0.000000
0.000000
0.000000
1.216408
2.177547
3.151798
4.082913
4.974195
5.818600
6.606690
7.322220
7.942217
8.439184
8.785274
8.957174
8.940284
8.731050
8.336866
7.773665
7.061969
6.222742
5.274135
4.231719
3.103042
1.930475
0.559828
0.002032
-5.000000
-5.000000
-5.000000
0.000000
0.000000
0.000000
0.000000
1.095490
1.953024
2.809504
3.610356
4.357191
5.044997
5.669456
6.222629
6.692289
7.062763
7.317377
7.441546
7.425511
7.265876
6.965507
6.531935
5.974841
5.303681
4.526141
3.649734
2.676860
1.649144
0.407844
0.002182
-5.000000
-5.000000
-5.000000
0.000000
0.000000
0.000000
0.000000
0.974017
1.730321
2.475924
3.159371
3.781115
4.337761
4.828667
5.251834
5.602742
5.874256
6.057816
6.145226
6.130328
6.009937
5.783754
5.453346
5.020685
4.487020
3.852514
3.118718
2.283748
1.387793
0.266310
0.001911
-5.000000
-5.000000
-5.000000
0.000000
0.000000
0.000000
0.000000
0.846947
1.500254
2.137406
2.711631
3.222678
3.668382
4.050441
4.370655
4.629495
4.825452
4.955396
5.015476
5.002059
4.912249
4.743804
4.494517
4.161461
3.740672
3.227499
2.619487
1.911463
1.141114
0.134559
0.001279
-5.000000
-5.000000
-5.000000
0.000000
0.000000
0.000000
0.000000
0.709521
1.254036
1.780629
2.248842
2.658077
3.007052
3.298648
3.536624
3.724159
3.862944
3.953060
3.993332
3.981787
3.915911
3.792562
3.607619
3.355661
3.030096
2.623878
2.132370
1.548962
0.906676
0.017041
0.001131
-5.000000
-5.000000
-5.000000
0.000000
0.000000
0.000000
0.000000
0.558816
0.986091
1.396747
1.758208
2.069799
2.330828
2.544403
2.714759
2.845965
2.941007
3.001456
3.027526
3.018256
2.971607
2.884390
2.752072
2.568682
2.327148
2.020094
1.642422
1.188095
0.684311
0.009889
-0.000198
-5.000000
-5.000000
-5.000000
0.000000
0.000000
0.000000
0.000000
0.392597
0.691984
0.978556
1.229054
1.442922
1.619830
1.762358
1.874080
1.958582
2.018724
2.056306
2.072000
2.065403
2.035053
1.978374
1.891575
1.769663
1.606773
1.396862
1.135685
0.819226
0.465955
0.009648
-0.000727
-5.000000
-5.000000
-5.000000
0.000000
0.000000
0.000000
0.000000
0.221757
0.390893
0.552182
0.692597
0.811754
0.909532
0.987527
1.047964
1.093115
1.124858
1.144442
1.152425
1.148668
1.132335
1.101854
1.054876
0.988302
0.898508
0.781782
0.635497
0.457664
0.256018
0.009273
-0.004470
-5.000000
-5.000000
-5.000000
0.000000
0.000000
0.000000
0.000000
0.000000
0.000000
0.000000
0.000000
0.000000
0.000000
0.000000
0.000000
0.000000
0.000000
0.000000
0.000000
0.000000
0.000000
0.000000
0.000000
0.000000
0.000000
0.000000
0.000000
0.000000
0.000000
0.000000
0.000000
-5.000000
-5.000000
-5.000000
0.000000
0.000000
0.000000
0.000000
0.000000
0.000000
0.000000
0.000000
0.000000
0.000000
0.000000
0.000000
0.000000
0.000000
0.000000
0.000000
0.000000
0.000000
0.000000
0.000000
0.000000
0.000000
0.000000
0.000000
0.000000
0.000000
0.000000
0.000000
-5.000000
-5.000000
-5.000000
0.000000
0.000000
0.000000
0.000000
0.000000
0.000000
0.000000
0.000000
0.000000
0.000000
0.000000
0.000000
0.000000
0.000000
0.000000
0.000000
0.000000
0.000000
0.000000
0.000000
0.000000
0.000000
0.000000
0.000000
0.000000
0.000000
0.000000
0.000000
-5.000000
-5.000000
-5.000000
0.000000
0.000000
0.000000
0.000000
0.000000
0.000000
0.000000
0.000000
0.000000
0.000000
0.000000
0.000000
0.000000
0.000000
0.000000
0.000000
0.000000
0.000000
0.000000
0.000000
0.000000
0.000000
0.000000
0.000000
0.000000
0.000000
0.000000
0.000000
-5.000000
-5.000000
-5.000000
</DataArray>
</PointData>
<Cells>
<DataArray type='Int32' Name='connectivity' format='ascii'>
0
1
2
3
4
5
6
7
8
9
10
11
12
13
14
15
16
17
18
19
20
21
22
23
24
25
26
27
28
29
30
31
32
33
34
35
36
37
38
39
40
41
42
43
44
45
46
47
48
49
50
51
52
53
54
55
56
57
58
59
60
61
62
63
64
65
66
67
68
69
70
71
72
73
74
75
76
77
78
79
80
81
82
83
84
85
86
87
88
89
90
91
92
93
94
95
96
97
98
99
100
101
102
103
104
105
106
107
108
109
110
111
112
113
114
115
116
117
118
119
120
121
122
123
124
125
126
127
128
129
130
131
132
133
134
135
136
137
138
139
140
141
142
143
144
145
146
147
148
149
150
151
152
153
154
155
156
157
158
159
160
161
162
163
164
165
166
167
168
169
170
171
172
173
174
175
176
177
178
179
180
181
182
183
184
185
186
187
188
189
190
191
192
193
194
195
196
197
198
199
200
201
202
203
204
205
206
207
208
209
210
211
212
213
214
215
216
217
218
219
220
221
222
223
224
225
226
227
228
229
230
231
232
233
234
235
236
237
238
239
240
241
242
243
244
245
246
247
248
249
250
251
252
253
254
255
256
257
258
259
260
261
262
263
264
265
266
267
268
269
270
271
272
273
274
275
276
277
278
279
280
281
282
283
284
285
286
287
288
289
290
291
292
293
294
295
296
297
298
299
300
301
302
303
304
305
306
307
308
309
310
311
312
313
314
315
316
317
318
319
320
321
322
323
324
325
326
327
328
329
330
331
332
333
334
335
336
337
338
339
340
341
342
343
344
345
346
347
348
349
350
351
352
353
354
355
356
357
358
359
360
361
362
363
364
365
366
367
368
369
370
371
372
373
374
375
376
377
378
379
380
381
382
383
384
385
386
387
388
389
390
391
392
393
394
395
396
397
398
399
400
401
402
403
404
405
406
407
408
409
410
411
412
413
414
415
416
417
418
419
420
421
422
423
424
425
426
427
428
429
430
431
432
433
434
435
436
437
438
439
440
441
442
443
444
445
446
447
448
449
450
451
452
453
454
455
456
457
458
459
460
461
462
463
464
465
466
467
468
469
470
471
472
473
474
475
476
477
478
479
480
481
482
483
484
485
486
487
488
489
490
491
492
493
494
495
496
497
498
499
500
501
502
503
504
505
506
507
508
509
510
511
512
513
514
515
516
517
518
519
520
521
522
523
524
525
526
527
528
529
530
531
532
533
534
535
536
537
538
539
540
541
542
543
544
545
546
547
548
549
550
551
552
553
554
555
556
557
558
559
560
561
562
563
564
565
566
567
568
569
570
571
572
573
574
575
576
577
578
579
580
581
582
583
584
585
586
587
588
589
590
591
592
593
594
595
596
597
598
599
600
601
602
603
604
605
606
607
608
609
610
611
612
613
614
615
616
617
618
619
620
621
622
623
624
625
626
627
628
629
630
631
632
633
634
635
636
637
638
639
640
641
642
643
644
645
646
647
648
649
650
651
652
653
654
655
656
657
658
659
660
661
662
663
664
665
666
667
668
669
670
671
672
673
674
675
676
677
678
679
680
681
682
683
684
685
686
687
688
689
690
691
692
693
694
695
696
697
698
699
700
701
702
703
704
705
706
707
708
709
710
711
712
713
714
715
716
717
718
719
720
721
722
723
724
725
726
727
728
729
730
731
732
733
734
735
736
737
738
739
740
741
742
743
744
745
746