<?xml version='1.0' encoding='UTF-8'?>
<VTKFile xmlns='VTK' byte_order='LittleEndian' version='0.1' type='UnstructuredGrid'>
<UnstructuredGrid>
<Piece NumberOfCells='1488' NumberOfPoints='1488'>
<Points>
<DataArray NumberOfComponents='3' type='Float32' Name='Position' format='ascii'>
-0.075000 -0.075000 0.000000
-0.075000 -0.050000 0.000000
-0.075000 -0.025000 0.000000
-0.075000 0.000000 0.000000
-0.075000 0.025000 0.000000
-0.075000 0.050000 0.000000
-0.075000 0.075000 0.000000
-0.075000 0.100000 0.000000
-0.075000 0.125000 0.000000
-0.075000 0.150000 0.000000
-0.075000 0.175000 0.000000
-0.075000 0.200000 0.000000
-0.075000 0.225000 0.000000
-0.075000 0.250000 0.000000
-0.075000 0.275000 0.000000
-0.075000 0.300000 0.000000
-0.075000 0.325000 0.000000
-0.075000 0.350000 0.000000
-0.075000 0.375000 0.000000
-0.075000 0.400000 0.000000
-0.075000 0.425000 0.000000
-0.075000 0.450000 0.000000
-0.075000 0.475000 0.000000
-0.075000 0.500000 0.000000
-0.075000 0.525000 0.000000
-0.075000 0.550000 0.000000
-0.075000 0.575000 0.000000
-0.075000 0.600000 0.000000
-0.075000 0.625000 0.000000
-0.075000 0.650000 0.000000
-0.075000 0.675000 0.000000
-0.050000 -0.075000 0.000000
-0.050000 -0.050000 0.000000
-0.050000 -0.025000 0.000000
-0.050000 0.000000 0.000000
-0.050000 0.025000 0.000000
-0.050000 0.050000 0.000000
-0.050000 0.075000 0.000000
-0.050000 0.100000 0.000000
-0.050000 0.125000 0.000000
-0.050000 0.150000 0.000000
-0.050000 0.175000 0.000000
-0.050000 0.200000 0.000000
-0.050000 0.225000 0.000000
-0.050000 0.250000 0.000000
-0.050000 0.275000 0.000000
-0.050000 0.300000 0.000000
-0.050000 0.325000 0.000000
-0.050000 0.350000 0.000000
-0.050000 0.375000 0.000000
-0.050000 0.400000 0.000000
-0.050000 0.425000 0.000000
-0.050000 0.450000 0.000000
-0.050000 0.475000 0.000000
-0.050000 0.500000 0.000000
-0.050000 0.525000 0.000000
-0.050000 0.550000 0.000000
-0.050000 0.575000 0.000000
-0.050000 0.600000 0.000000
-0.050000 0.625000 0.000000
-0.050000 0.650000 0.000000
-0.050000 0.675000 0.000000
-0.025000 -0.075000 0.000000
-0.025000 -0.050000 0.000000
-0.025000 -0.025000 0.000000
-0.025000 0.000000 0.000000
-0.025000 0.025000 0.000000
-0.025000 0.050000 0.000000
-0.025000 0.075000 0.000000
-0.025000 0.100000 0.000000
-0.025000 0.125000 0.000000
-0.025000 0.150000 0.000000
-0.025000 0.175000 0.000000
-0.025000 0.200000 0.000000
-0.025000 0.225000 0.000000
-0.025000 0.250000 0.000000
-0.025000 0.275000 0.000000
-0.025000 0.300000 0.000000
-0.025000 0.325000 0.000000
-0.025000 0.350000 0.000000
-0.025000 0.375000 0.000000
-0.025000 0.400000 0.000000
-0.025000 0.425000 0.000000
-0.025000 0.450000 0.000000
-0.025000 0.475000 0.000000
-0.025000 0.500000 0.000000
-0.025000 0.525000 0.000000
-0.025000 0.550000 0.000000
-0.025000 0.575000 0.000000
-0.025000 0.600000 0.000000
-0.025000 0.625000 0.000000
-0.025000 0.650000 0.000000
-0.025000 0.675000 0.000000
0.000000 -0.075000 0.000000
0.000000 -0.050000 0.000000
0.000000 -0.025000 0.000000
0.000000 0.000000 0.000000
0.000000 0.025000 0.000000
0.000000 0.050000 0.000000
0.000000 0.075000 0.000000
0.000000 0.100000 0.000000
0.000000 0.125000 0.000000
0.000000 0.150000 0.000000
0.000000 0.175000 0.000000
0.000000 0.200000 0.000000
0.000000 0.225000 0.000000
0.000000 0.250000 0.000000
0.000000 0.275000 0.000000
0.000000 0.300000 0.000000
0.000000 0.325000 0.000000
0.000000 0.350000 0.000000
0.000000 0.375000 0.000000
0.000000 0.400000 0.000000
0.000000 0.425000 0.000000
0.000000 0.450000 0.000000
0.000000 0.475000 0.000000
0.000000 0.500000 0.000000
0.000000 0.525000 0.000000
0.000000 0.550000 0.000000
0.000000 0.575000 0.000000
0.000000 0.600000 0.000000
0.000000 0.625000 0.000000
0.000000 0.650000 0.000000
0.000000 0.675000 0.000000
0.025000 -0.075000 0.000000
0.025000 -0.050000 0.000000
0.025000 -0.025000 0.000000
0.025000 0.000000 0.000000
0.025000 0.025000 0.000000
0.025000 0.050000 0.000000
0.025000 0.075000 0.000000
0.025000 0.100000 0.000000
0.025000 0.125000 0.000000
0.025000 0.150000 0.000000
0.025000 0.175000 0.000000
0.025000 0.200000 0.000000
0.025000 0.225000 0.000000
0.025000 0.250000 0.000000
0.025000 0.275000 0.000000
0.025000 0.300000 0.000000
0.025000 0.325000 0.000000
0.025000 0.350000 0.000000
0.025000 0.375000 0.000000
0.025000 0.400000 0.000000
0.025000 0.425000 0.000000
0.025000 0.450000 0.000000
0.025000 0.475000 0.000000
0.025000 0.500000 0.000000
0.025000 0.525000 0.000000
0.025000 0.550000 0.000000
0.025000 0.575000 0.000000
0.025000 0.600000 0.000000
0.025000 0.625000 0.000000
0.025000 0.650000 0.000000
0.025000 0.675000 0.000000
0.050000 -0.075000 0.000000
0.050000 -0.050000 0.000000
0.050000 -0.025000 0.000000
0.050000 0.000000 0.000000
0.050000 0.025000 0.000000
0.050000 0.050000 0.000000
0.050000 0.075000 0.000000
0.050000 0.100000 0.000000
0.050000 0.125000 0.000000
0.050000 0.150000 0.000000
0.050000 0.175000 0.000000
0.050000 0.200000 0.000000
0.050000 0.225000 0.000000
0.050000 0.250000 0.000000
0.050000 0.275000 0.000000
0.050000 0.300000 0.000000
0.050000 0.325000 0.000000
0.050000 0.350000 0.000000
0.050000 0.375000 0.000000
0.050000 0.400000 0.000000
0.050000 0.425000 0.000000
0.050000 0.450000 0.000000
0.050000 0.475000 0.000000
0.050000 0.500000 0.000000
0.050000 0.525000 0.000000
0.050000 0.550000 0.000000
0.050000 0.575000 0.000000
0.050000 0.600000 0.000000
0.050000 0.625000 0.000000
0.050000 0.650000 0.000000
0.050000 0.675000 0.000000
0.075000 -0.075000 0.000000
0.075000 -0.050000 0.000000
0.075000 -0.025000 0.000000
0.075000 0.000000 0.000000
0.075000 0.025000 0.000000
0.075000 0.050000 0.000000
0.075000 0.075000 0.000000
0.075000 0.100000 0.000000
0.075000 0.125000 0.000000
0.075000 0.150000 0.000000
0.075000 0.175000 0.000000
0.075000 0.200000 0.000000
0.075000 0.225000 0.000000
0.075000 0.250000 0.000000
0.075000 0.275000 0.000000
0.075000 0.300000 0.000000
0.075000 0.325000 0.000000
0.075000 0.350000 0.000000
0.075000 0.375000 0.000000
0.075000 0.400000 0.000000
0.075000 0.425000 0.000000
0.075000 0.450000 0.000000
0.075000 0.475000 0.000000
0.075000 0.500000 0.000000
0.075000 0.525000 0.000000
0.075000 0.550000 0.000000
0.075000 0.575000 0.000000
0.075000 0.600000 0.000000
0.075000 0.625000 0.000000
0.075000 0.650000 0.000000
0.075000 0.675000 0.000000
0.100000 -0.075000 0.000000
0.100000 -0.050000 0.000000
0.100000 -0.025000 0.000000
0.100000 0.000000 0.000000
0.100000 0.025000 0.000000
0.100000 0.050000 0.000000
0.100000 0.075000 0.000000
0.100000 0.100000 0.000000
0.100000 0.125000 0.000000
0.100000 0.150000 0.000000
0.100000 0.175000 0.000000
0.100000 0.200000 0.000000
0.100000 0.225000 0.000000
0.100000 0.250000 0.000000
0.100000 0.275000 0.000000
0.100000 0.300000 0.000000
0.100000 0.325000 0.000000
0.100000 0.350000 0.000000
0.100000 0.375000 0.000000
0.100000 0.400000 0.000000
0.100000 0.425000 0.000000
0.100000 0.450000 0.000000
0.100000 0.475000 0.000000
0.100000 0.500000 0.000000
0.100000 0.525000 0.000000
0.100000 0.550000 0.000000
0.100000 0.575000 0.000000
0.100000 0.600000 0.000000
0.100000 0.625000 0.000000
0.100000 0.650000 0.000000
0.100000 0.675000 0.000000
0.125000 -0.075000 0.000000
0.125000 -0.050000 0.000000
0.125000 -0.025000 0.000000
0.125000 0.000000 0.000000
0.125000 0.025000 0.000000
0.125000 0.050000 0.000000
0.125000 0.075000 0.000000
0.125000 0.100000 0.000000
0.125000 0.125000 0.000000
0.125000 0.150000 0.000000
0.125000 0.175000 0.000000
0.125000 0.200000 0.000000
0.125000 0.225000 0.000000
0.125000 0.250000 0.000000
0.125000 0.275000 0.000000
0.125000 0.300000 0.000000
0.125000 0.325000 0.000000
0.125000 0.350000 0.000000
0.125000 0.375000 0.000000
0.125000 0.400000 0.000000
0.125000 0.425000 0.000000
0.125000 0.450000 0.000000
0.125000 0.475000 0.000000
0.125000 0.500000 0.000000
0.125000 0.525000 0.000000
0.125000 0.550000 0.000000
0.125000 0.575000 0.000000
0.125000 0.600000 0.000000
0.125000 0.625000 0.000000
0.125000 0.650000 0.000000
0.125000 0.675000 0.000000
0.150000 -0.075000 0.000000
0.150000 -0.050000 0.000000
0.150000 -0.025000 0.000000
0.150000 0.000000 0.000000
0.150000 0.025000 0.000000
0.150000 0.050000 0.000000
0.150000 0.075000 0.000000
0.150000 0.100000 0.000000
0.150000 0.125000 0.000000
0.150000 0.150000 0.000000
0.150000 0.175000 0.000000
0.150000 0.200000 0.000000
0.150000 0.225000 0.000000
0.150000 0.250000 0.000000
0.150000 0.275000 0.000000
0.150000 0.300000 0.000000
0.150000 0.325000 0.000000
0.150000 0.350000 0.000000
0.150000 0.375000 0.000000
0.150000 0.400000 0.000000
0.150000 0.425000 0.000000
0.150000 0.450000 0.000000
0.150000 0.475000 0.000000
0.150000 0.500000 0.000000
0.150000 0.525000 0.000000
0.150000 0.550000 0.000000
0.150000 0.575000 0.000000
0.150000 0.600000 0.000000
0.150000 0.625000 0.000000
0.150000 0.650000 0.000000
0.150000 0.675000 0.000000
0.175000 -0.075000 0.000000
0.175000 -0.050000 0.000000
0.175000 -0.025000 0.000000
0.175000 0.000000 0.000000
0.175000 0.025000 0.000000
0.175000 0.050000 0.000000
0.175000 0.075000 0.000000
0.175000 0.100000 0.000000
0.175000 0.125000 0.000000
0.175000 0.150000 0.000000
0.175000 0.175000 0.000000
0.175000 0.200000 0.000000
0.175000 0.225000 0.000000
0.175000 0.250000 0.000000
0.175000 0.275000 0.000000
0.175000 0.300000 0.000000
0.175000 0.325000 0.000000
0.175000 0.350000 0.000000
0.175000 0.375000 0.000000
0.175000 0.400000 0.000000
0.175000 0.425000 0.000000
0.175000 0.450000 0.000000
0.175000 0.475000 0.000000
0.175000 0.500000 0.000000
0.175000 0.525000 0.000000
0.175000 0.550000 0.000000
0.175000 0.575000 0.000000
0.175000 0.600000 0.000000
0.175000 0.625000 0.000000
0.175000 0.650000 0.000000
0.175000 0.675000 0.000000
0.200000 -0.075000 0.000000
0.200000 -0.050000 0.000000
0.200000 -0.025000 0.000000
0.200000 0.000000 0.000000
0.200000 0.025000 0.000000
0.200000 0.050000 0.000000
0.200000 0.075000 0.000000
0.200000 0.100000 0.000000
0.200000 0.125000 0.000000
0.200000 0.150000 0.000000
0.200000 0.175000 0.000000
0.200000 0.200000 0.000000
0.200000 0.225000 0.000000
0.200000 0.250000 0.000000
[...]
<PointData>
<DataArray NumberOfComponents='1' type='Int32' Name='ParticleType' format='ascii'>
4
4
4
4
4
4
4
4
4
4
4
4
4
4
4
4
4
4
4
4
4
4
4
4
4
4
4
4
2
2
2
4
4
4
4
4
4
4
4
4
4
4
4
4
4
4
4
4
4
4
4
4
4
4
4
4
4
4
4
2
2
2
4
4
3
3
3
3
3
3
3
3
3
3
3
3
3
3
3
3
3
3
3
3
3
3
3
3
3
3
2
2
2
4
4
3
3
3
3
3
3
3
3
3
3
3
3
3
3
3
3
3
3
3
3
3
3
3
3
3
3
2
2
2
4
4
3
3
0
0
0
0
0
0
0
0
0
0
0
0
0
0
0
0
0
0
0
0
0
1
1
2
2
2
2
4
4
3
3
0
0
0
0
0
0
0
0
0
0
0
0
0
0
0
0
0
0
0
0
0
1
1
2
2
2
2
4
4
3
3
0
0
0
0
0
0
0
0
0
0
0
0
0
0
0
0
0
0
0
0
0
0
1
2
2
2
2
4
4
3
3
0
0
0
0
0
0
0
0
0
0
0
0
0
0
0
0
0
0
0
0
0
0
1
2
2
2
2
4
4
3
3
0
0
0
0
0
0
0
0
0
0
0
0
0
0
0
0
0
0
0
0
0
0
1
2
2
2
2
4
4
3
3
0
0
0
0
0
0
0
0
0
0
0
0
0
0
0
0
0
0
0
0
0
0
1
2
2
2
2
4
4
3
3
0
0
0
0
0
0
0
0
0
0
0
0
0
0
0
0
0
0
0
0
0
0
1
2
2
2
2
4
4
3
3
0
0
0
0
0
0
0
0
0
0
0
0
0
0
0
0
0
0
0
0
0
0
1
2
2
2
2
4
4
3
3
0
0
0
0
0
0
0
0
0
0
0
0
0
0
0
0
0
0
0
0
0
0
1
2
2
2
2
4
4
3
3
0
0
0
0
0
0
0
0
0
0
0
0
0
0
0
0
0
0
0
0
0
0
1
2
2
2
2
4
4
3
3
0
0
0
0
0
0
0
0
0
0
0
0
0
0
0
0
0
0
0
0
0
0
1
2
2
2
2
4
4
3
3
0
0
0
0
0
0
0
0
0
0
0
0
0
0
0
0
0
0
0
0
0
0
1
2
2
2
2
4
4
3
3
0
0
0
0
0
0
0
0
0
0
0
0
0
0
0
0
0
0
0
0
0
0
1
2
2
2
2
4
4
3
3
0
0
0
0
0
0
0
0
0
0
0
0
0
0
0
0
0
0
0
0
0
0
1
2
2
2
2
4
4
3
3
0
0
0
0
0
0
0
0
0
0
0
0
0
0
0
0
0
0
0
0
0
0
1
2
2
2
2
4
4
3
3
0
0
0
0
0
0
0
0
0
0
0
0
0
0
0
0
0
0
0
0
0
0
1
2
2
2
2
4
4
3
3
0
0
0
0
0
0
0
0
0
0
0
0
0
0
0
0
0
0
0
0
0
0
1
2
2
2
2
4
4
3
3
0
0
0
0
0
0
0
0
0
0
0
0
0
0
0
0
0
0
0
0
0
0
0
2
2
2
2
4
4
3
3
0
0
0
0
0
0
0
0
0
0
0
0
0
0
0
0
0
0
0
0
0
0
0
2
2
2
2
4
4
3
3
0
0
0
0
0
0
0
0
0
0
0
0
0
0
0
0
0
0
0
0
0
0
0
2
2
2
2
4
4
3
3
0
0
0
0
0
0
0
0
0
0
0
0
0
0
0
0
0
0
0
0
0
0
0
2
2
2
2
4
4
3
3
0
0
0
0
0
0
0
0
0
0
0
0
0
0
0
0
0
0
0
0
0
0
0
2
2
2
2
4
4
3
3
0
0
0
0
0
0
0
0
0
0
0
0
0
0
0
0
0
0
0
0
0
0
0
2
2
2
2
4
4
3
3
0
0
0
0
0
0
0
0
0
0
0
0
0
0
0
0
0
0
0
0
0
0
1
2
2
2
2
4
4
3
3
0
0
0
0
0
0
0
0
0
0
0
0
0
0
0
0
0
0
0
0
0
0
1
2
2
2
2
4
4
3
3
0
0
0
0
0
0
0
0
0
0
0
0
0
0
0
0
0
0
0
0
0
0
1
2
2
2
2
4
4
3
3
0
0
0
0
0
0
0
0
0
0
0
0
0
0
0
0
0
0
0
0
0
0
1
2
2
2
2
4
4
3
3
0
0
0
0
0
0
0
0
0
0
0
0
0
0
0
0
0
0
0
0
0
0
1
2
2
2
2
4
4
3
3
0
0
0
0
0
0
0
0
0
0
0
0
0
0
0
0
0
0
0
0
0
0
1
2
2
2
2
4
4
3
3
0
0
0
0
0
0
0
0
0
0
0
0
0
0
0
0
0
0
0
0
0
0
1
2
2
2
2
4
4
3
3
0
0
0
0
0
0
0
0
0
0
0
0
0
0
0
0
0
0
0
0
0
0
1
2
2
2
2
4
4
3
3
0
0
0
0
0
0
0
0
0
0
0
0
0
0
0
0
0
0
0
0
0
0
1
2
2
2
2
4
4
3
3
0
0
0
0
0
0
0
0
0
0
0
0
0
0
0
0
0
0
0
0
0
0
1
2
2
2
2
4
4
3
3
0
0
0
0
0
0
0
0
0
0
0
0
0
0
0
0
0
0
0
0
0
0
1
2
2
2
2
4
4
3
3
0
0
0
0
0
0
0
0
0
0
0
0
0
0
0
0
0
0
0
0
0
0
1
2
2
2
2
4
4
3
3
0
0
0
0
0
0
0
0
0
0
0
0
0
0
0
0
0
0
0
0
0
0
1
2
2
2
2
4
4
3
3
0
0
0
0
0
0
0
0
0
0
0
0
0
0
0
0
0
0
0
0
0
0
1
2
2
2
2
4
4
3
3
0
0
0
0
0
0
0
0
0
0
0
0
0
0
0
0
0
0
0
0
0
0
1
2
2
2
2
4
4
3
3
0
0
0
0
0
0
0
0
0
0
0
0
0
0
0
0
0
0
0
0
0
1
1
2
2
2
2
4
4
3
3
0
0
0
0
0
0
0
0
0
0
0
0
0
0
0
0
0
0
0
0
0
1
1
2
2
2
2
4
4
3
3
3
3
3
3
3
3
3
3
3
3
3
3
3
3
3
3
3
3
3
3
3
3
3
3
2
2
2
4
4
3
3
3
3
3
3
3
3
3
3
3
3
3
3
3
3
3
3
3
3
3
3
3
3
3
3
2
2
2
4
4
4
4
4
4
4
4
4
4
4
4
4
4
4
4
4
4
4
4
4
4
4
4
4
4
4
4
2
2
2
4
4
4
4
4
4
4
4
4
4
4
4
4
4
4
4
4
4
4
4
4
4
4
4
4
4
4
4
2
2
2
</DataArray>
<DataArray NumberOfComponents='1' type='Float32' Name='Temperature' format='ascii'>
0.000000
0.000000
0.000000
0.000000
0.000000
0.000000
0.000000
0.000000
0.000000
0.000000
0.000000
0.000000
0.000000
0.000000
0.000000
0.000000
0.000000
0.000000
0.000000
0.000000
0.000000
0.000000
0.000000
0.000000
0.000000
0.000000
0.000000
0.000000
-5.000000
-5.000000
-5.000000
0.000000
0.000000
0.000000
0.000000
0.000000
0.000000
0.000000
0.000000
0.000000
0.000000
0.000000
0.000000
0.000000
0.000000
0.000000
0.000000
0.000000
0.000000
0.000000
0.000000
0.000000
0.000000
0.000000
0.000000
0.000000
0.000000
0.000000
0.000000
-5.000000
-5.000000
-5.000000
0.000000
0.000000
0.000000
0.000000
0.000000
0.000000
0.000000
0.000000
0.000000
0.000000
0.000000
0.000000
0.000000
0.000000
0.000000
0.000000
0.000000
0.000000
0.000000
0.000000
0.000000
0.000000
0.000000
0.000000
0.000000
0.000000
0.000000
0.000000
-5.000000
-5.000000
-5.000000
0.000000
0.000000
0.000000
0.000000
0.000000
0.000000
0.000000
0.000000
0.000000
0.000000
0.000000
0.000000
0.000000
0.000000
0.000000
0.000000
0.000000
0.000000
0.000000
0.000000
0.000000
0.000000
0.000000
0.000000
0.000000
0.000000
0.000000
0.000000
-5.000000
-5.000000
-5.000000
0.000000
0.000000
0.000000
0.000000
0.145074
0.259824
0.375549
0.484786
0.586732
0.679472
0.761330
0.830677
0.886006
0.925961
0.949380
0.955329
0.943131
0.912386
0.862979
0.795076
0.709095
0.605599
0.485401
0.347875
0.198792
0.009785
-0.005051
-2.131247
-5.000000
-5.000000
-5.000000
0.000000
0.000000
0.000000
0.000000
0.262602
0.469997
0.679392
0.877038
1.061531
1.229395
1.377601
1.503197
1.603453
1.675914
1.718478
1.729456
1.707630
1.652293
1.563264
1.440888
1.286009
1.099799
0.883952
0.637819
0.372791
0.009977
-0.007445
-2.374605
-5.000000
-5.000000
-5.000000
0.000000
0.000000
0.000000
0.000000
0.385860
0.690660
0.998407
1.288945
1.560215
1.807110
2.025175
2.210066
2.357761
2.464648
2.527633
2.544241
2.512697
2.431987
2.301899
2.123032
1.896780
1.625167
1.311178
0.955158
0.573822
0.075268
-0.005409
-2.458554
-5.000000
-5.000000
-5.000000
0.000000
0.000000
0.000000
0.000000
0.509510
0.912016
1.318483
1.702316
2.060810
2.387223
2.675665
2.920388
3.116067
3.257919
3.341854
3.364610
3.323863
3.218319
3.047770
2.813133
2.516463
2.160833
1.750826
1.288909
0.795850
0.189735
-0.002872
-2.468090
-5.000000
-5.000000
-5.000000
0.000000
0.000000
0.000000
0.000000
0.634629
1.136039
1.642480
2.120865
2.567840
2.975011
3.335032
3.640725
3.885436
4.063188
4.168876
4.198443
4.149022
4.019052
3.808360
3.518223
3.151424
2.712197
2.206817
1.640329
1.036288
0.322333
-0.000868
-2.458542
-5.000000
-5.000000
-5.000000
0.000000
0.000000
0.000000
0.000000
0.760965
1.362270
1.969746
2.543762
3.080320
3.569361
4.002062
4.369792
4.664541
4.879117
5.007385
5.044485
4.987007
4.833134
4.582743
4.237489
3.800890
3.278333
2.677720
2.006526
1.290202
0.465563
0.000953
-2.443101
-5.000000
-5.000000
-5.000000
0.000000
0.000000
0.000000
0.000000
0.888212
1.590170
2.299501
2.970006
3.597048
4.168891
4.675221
5.105931
5.451634
5.703901
5.855555
5.900927
5.836065
5.658901
5.369367
4.969480
4.463453
3.857741
3.161697
2.384949
1.554274
0.615720
0.003328
-2.425588
-5.000000
-5.000000
-5.000000
0.000000
0.000000
0.000000
0.000000
1.015769
1.818659
2.630184
3.397579
4.115578
4.770764
5.351323
5.845660
6.242992
6.533643
6.709383
6.763733
6.692206
6.492489
6.164561
5.710774
5.135963
4.447508
3.655991
2.772918
1.826037
0.770758
0.004840
-2.407233
-5.000000
-5.000000
-5.000000
0.000000
0.000000
0.000000
0.000000
1.142762
2.046168
2.959522
3.823538
4.632331
5.370816
6.025677
6.583827
7.033087
7.362527
7.562867
7.626825
7.549390
7.328013
6.962719
6.456162
5.813704
5.043483
4.157061
3.167519
2.103276
0.929254
0.006288
-2.388472
-5.000000
-5.000000
-5.000000
0.000000
0.000000
0.000000
0.000000
1.268042
2.270639
3.284526
4.244006
5.142589
5.963544
6.692074
7.313609
7.814581
8.182818
8.408004
8.482073
8.399512
8.157559
7.756288
7.198627
6.490376
5.640247
4.660487
3.565401
2.383733
1.089944
0.007201
-2.369524
-5.000000
-5.000000
-5.000000
0.000000
0.000000
0.000000
0.000000
1.390208
2.489556
3.601549
4.654247
5.640583
6.542222
7.342915
8.026640
8.578469
8.985014
9.234952
9.319463
9.232570
8.971330
8.535891
7.929441
7.158143
6.231101
5.160921
3.962678
2.664947
1.251594
0.008315
-2.350517
-5.000000
-5.000000
-5.000000
0.000000
0.000000
0.000000
0.000000
1.507643
2.700020
3.906379
5.048796
6.119654
7.099076
7.969415
8.713249
9.314333
9.758112
10.032299
10.127370
10.036928
9.757899
9.290544
8.638330
7.807734
6.808094
5.652034
4.354840
2.944199
1.412916
0.008861
-2.331600
-5.000000
-5.000000
-5.000000
0.000000
0.000000
0.000000
0.000000
1.618571
2.898838
4.194383
5.421638
6.572468
7.625546
8.561899
9.362777
10.010692
10.489981
10.787457
10.892951
10.799706
10.504574
10.007988
9.313735
8.428608
7.362073
6.126467
4.736666
3.218466
1.572678
0.009406
-2.312857
-5.000000
-5.000000
-5.000000
0.000000
0.000000
0.000000
0.000000
1.721117
3.082648
4.460679
5.766432
6.991300
8.112612
9.110171
9.963994
10.655439
11.167825
11.487140
11.602638
11.507268
11.197873
10.675120
9.943180
9.009209
7.882783
6.575753
5.102031
3.484287
1.729751
0.009692
-2.294298
-5.000000
-5.000000
-5.000000
0.000000
0.000000
0.000000
0.000000
1.813391
3.248055
4.700337
6.076777
7.368346
8.551166
9.603932
10.505553
11.236348
11.778717
12.117918
12.242704
12.145795
11.824080
11.278521
10.513739
9.537332
8.359051
6.990246
5.443548
3.737412
1.883308
0.009788
-2.275714
-5.000000
-5.000000
-5.000000
0.000000
0.000000
0.000000
0.000000
1.893564
3.391779
4.908596
6.346490
7.696070
8.932406
10.033235
10.976497
11.741606
12.310170
12.666814
12.799874
12.701899
12.369864
11.805061
11.012606
10.000616
8.779137
7.359178
5.752133
3.972076
2.032366
0.009878
-2.255593
-5.000000
-5.000000
-5.000000
0.000000
0.000000
0.000000
0.000000
1.959956
3.510804
5.081076
6.569886
7.967543
9.248246
10.388937
11.366754
12.160361
12.750707
13.121901
13.261941
13.163251
12.822914
12.242544
11.427752
10.387197
9.131326
7.671057
6.016928
4.179715
2.173090
0.009971
-2.231758
-5.000000
-5.000000
-5.000000
0.000000
0.000000
0.000000
0.000000
2.011115
3.602521
5.213991
6.742049
8.176771
9.491690
10.663131
11.667615
12.483225
13.090405
13.472864
13.618344
13.519182
13.172554
12.580350
11.748600
10.686454
9.404778
7.914607
6.226106
4.348341
2.295093
0.069492
-2.203856
-5.000000
-5.000000
-5.000000
0.000000
0.000000
0.000000
0.000000
2.045883
3.664855
5.304326
6.859063
8.318985
9.657170
10.849524
11.872148
12.702730
13.321368
13.711499
13.860687
13.761204
13.410287
12.810006
11.966677
10.889792
9.590542
8.080148
6.368729
4.464952
2.382502
0.126257
-2.179602
-5.000000
-5.000000
-5.000000
0.000000
0.000000
0.000000
0.000000
2.063457
3.696362
5.349987
6.918209
8.390870
9.740817
10.943744
11.975539
12.813689
13.438115
13.832111
13.983142
13.883434
13.530231
12.925662
12.076145
10.991303
9.682469
8.161000
6.437163
4.519845
2.423159
0.152613
-2.167174
-5.000000
-5.000000
-5.000000
0.000000
0.000000
0.000000
0.000000
2.063424
3.696303
5.349900
6.918096
8.390730
9.740651
10.943554
11.975325
12.813450
13.437844
13.831792
13.982741
13.882885
13.529419
12.924400
12.074154
10.988203
9.677812
8.154381
6.428444
4.509489
2.412569
0.143985
-2.170692
-5.000000
-5.000000
-5.000000
0.000000
0.000000
0.000000
0.000000
2.045786
3.664680
5.304070
6.858727
8.318570
9.656680
10.848961
11.871515
12.702023
13.320570
13.710564
13.859516
13.759610
13.407941
12.806379
11.960982
10.880973
9.577376
8.061570
6.344480
4.436506
2.353914
0.103335
-2.188470
-5.000000
-5.000000
-5.000000
0.000000
0.000000
0.000000
0.000000
2.010958
3.602238
5.213576
6.741504
8.176099
9.490896
10.662220
11.666592
12.482085
13.089124
13.471373
13.616495
13.516690
13.168926
12.574797
11.739968
10.673227
9.385265
7.887463
6.191296
4.308624
2.256671
0.040138
-2.214202
-5.000000
-5.000000
-5.000000
0.000000
0.000000
0.000000
0.000000
1.959746
3.510424
5.080519
6.569155
7.966641
9.247181
10.387717
11.365386
12.158843
12.749012
13.119947
13.259551
13.160081
12.818372
12.235697
11.417259
10.371355
9.108346
7.639736
5.977798
4.136922
2.134407
0.009958
-2.239620
-5.000000
-5.000000
-5.000000
0.000000
0.000000
0.000000
0.000000
1.893308
3.391317
4.907919
6.345602
7.694975
8.931113
10.031755
10.974843
11.739780
12.308146
12.664512
12.797108
12.698307
12.364829
11.797617
11.001408
9.984023
8.755560
7.327834
5.714224
3.932715
1.999782
0.009835
-2.260783
-5.000000
-5.000000
-5.000000
0.000000
0.000000
0.000000
0.000000
1.813099
3.247529
4.699567
6.075766
7.367100
8.549696
9.602253
10.503681
11.234292
11.776461
12.115391
12.239733
12.142041
11.818958
11.271134
10.502870
9.521571
8.337173
6.961953
5.410505
3.704822
1.858418
0.009777
-2.279126
-5.000000
-5.000000
-5.000000
0.000000
0.000000
0.000000
0.000000
1.720801
3.082077
4.459843
5.765335
6.989949
8.111020
9.108355
9.961977
10.653237
11.165434
11.484508
11.599623
11.503579
11.193005
10.668309
9.933417
8.995388
7.864068
6.552223
5.075478
3.459195
1.711687
0.009537
-2.296718
-5.000000
-5.000000
-5.000000
0.000000
0.000000
0.000000
0.000000
1.618242
2.898243
4.193511
5.420494
6.571060
7.623888
8.560011
9.360687
10.008425
10.487547
10.784829
10.890025
10.796257
10.500202
10.002092
9.305539
8.417310
7.347160
6.108221
4.716704
3.200223
1.560022
0.009281
-2.314546
-5.000000
-5.000000
-5.000000
0.000000
0.000000
0.000000
0.000000
1.507311
2.699419
3.905500
5.047644
6.118235
7.097406
7.967517
8.711154
9.312075
9.755716
10.029762
10.124631
10.033833
9.754158
9.285719
8.631865
7.799084
6.796971
5.638767
4.340707
2.931618
1.404406
0.008824
-2.332737
-5.000000
-5.000000
-5.000000
0.000000
0.000000
0.000000
0.000000
1.389883
2.488969
3.600689
4.653119
5.639195
6.540589
7.341062
8.024601
8.576284
8.982721
9.232570
9.316972
9.229881
8.968255
8.532136
7.924635
7.151933
6.223332
5.151875
3.953256
2.656734
1.246143
0.008222
-2.351245
-5.000000
-5.000000
-5.000000
0.000000
0.000000
0.000000
0.000000
1.267732
2.270080
3.283708
4.242932
5.141267
5.961991
6.690313
7.311676
7.812521
8.180677
8.405820
8.479859
8.397232
8.155110
7.753492
7.195252
6.486202
5.635188
4.654736
3.559529
2.378699
1.086659
0.007549
-2.369958
-5.000000
-5.000000
-5.000000
0.000000
0.000000
0.000000
0.000000
1.142475
2.045650
2.958762
3.822542
4.631105
5.369375
6.024045
6.582040
7.031190
7.360572
7.560904
7.624890
7.547488
7.326104
6.960708
6.453915
5.811090
5.040443
4.153698
3.164151
2.100429
0.927407
0.006101
-2.388732
-5.000000
-5.000000
-5.000000
0.000000
0.000000
0.000000
0.000000
1.015510
1.818190
2.629497
3.396678
4.114469
4.769461
5.349848
5.844046
6.241285
6.531895
6.707650
6.762065
6.690634
6.491014
6.163145
5.709348
5.134448
4.445855
3.654236
2.771205
1.824615
0.769855
0.004832
-2.407354
-5.000000
-5.000000
-5.000000
0.000000
0.000000
0.000000
0.000000
0.887983
1.589757
2.298895
2.969210
3.596069
4.167740
4.673918
5.104508
5.450131
5.702370
5.854051
5.899505
5.834770
5.657758
5.368373
4.968604
4.462648
3.856963
3.160936
2.384247
1.553729
0.615420
0.003331
-2.425585
-5.000000
-5.000000
-5.000000
0.000000
0.000000
0.000000
0.000000
0.760768
1.361915
1.969225
2.543077
3.079477
3.568370
4.000940
4.368567
4.663249
4.877803
5.006102
5.043287
4.985943
4.832238
4.582032
4.236952
3.800499
3.278049
2.677511
2.006380
1.290143
0.465623
0.001583
-2.442994
-5.000000
-5.000000
-5.000000
0.000000
0.000000
0.000000
0.000000
0.634465
1.135742
1.642044
2.120293
2.567135
2.974182
3.334093
3.639699
3.884354
4.062088
4.167805
4.197450
4.148152
4.018341
3.807832
3.517879
3.151247
2.712153
2.206866
1.640436
1.036440
0.322524
-0.000455
-2.458417
-5.000000
-5.000000
-5.000000
0.000000
0.000000
0.000000
0.000000
0.509378
0.911777
1.318131
1.701855
2.060242
2.386554
2.674906
2.919558
3.115191
3.257029
3.340987
3.363806
3.323162
3.217754
3.047365
2.812893
2.516377
2.160874
1.750956
1.289087
0.796042
0.189921
-0.002741
-2.467998
-5.000000
-5.000000
-5.000000
0.000000
0.000000
0.000000
0.000000
0.385758
0.690477
0.998138
1.288591
1.559779
1.806597
2.024593
2.209429
2.357088
2.463963
2.526964
2.543619
2.512153
2.431548
2.301586
2.122850
1.896723
1.625215
1.311299
0.955314
0.573978
0.075396
-0.005537
-2.458498
-5.000000
-5.000000
-5.000000
0.000000
0.000000
0.000000
0.000000
0.262532
0.469869
0.679206
0.876793
1.061228
1.229039
1.377196
1.502754
1.602983
1.675434
1.718007
1.729016
1.707244
1.651978
1.563035
1.440751
1.285960
1.099825
0.884030
0.637921
0.372887
0.009982
-0.006944
-2.374558
-5.000000
-5.000000
-5.000000
0.000000
0.000000
0.000000
0.000000
0.145034
0.259751
0.375442
0.484645
0.586559
0.679267
0.761097
0.830422
0.885735
0.925683
0.949107
0.955073
0.942903
0.912197
0.862838
0.794986
0.709056
0.605603
0.485435
0.347922
0.198835
0.009801
-0.005312
-2.131240
-5.000000
-5.000000
-5.000000
0.000000
0.000000
0.000000
0.000000
0.000000
0.000000
0.000000
0.000000
0.000000
0.000000
0.000000
0.000000
0.000000
0.000000
0.000000
0.000000
0.000000
0.000000
0.000000
0.000000
0.000000
0.000000
0.000000
0.000000
0.000000
0.000000
0.000000
0.000000
-5.000000
-5.000000
-5.000000
0.000000
0.000000
0.000000
0.000000
0.000000
0.000000
0.000000
0.000000
0.000000
0.000000
0.000000
0.000000
0.000000
0.000000
0.000000
0.000000
0.000000
0.000000
0.000000
0.000000
0.000000
0.000000
0.000000
0.000000
0.000000
0.000000
0.000000
0.000000
-5.000000
-5.000000
-5.000000
0.000000
0.000000
0.000000
0.000000
0.000000
0.000000
0.000000
0.000000
0.000000
0.000000
0.000000
0.000000
0.000000
0.000000
0.000000
0.000000
0.000000
0.000000
0.000000
0.000000
0.000000
0.000000
0.000000
0.000000
0.000000
0.000000
0.000000
0.000000
-5.000000
-5.000000
-5.000000
0.000000
0.000000
0.000000
0.000000
0.000000
0.000000
0.000000
0.000000
0.000000
0.000000
0.000000
0.000000
0.000000
0.000000
0.000000
0.000000
0.000000
0.000000
0.000000
0.000000
0.000000
0.000000
0.000000
0.000000
0.000000
0.000000
0.000000
0.000000
-5.000000
-5.000000
-5.000000
</DataArray>
</PointData>
<Cells>
<DataArray type='Int32' Name='connectivity' format='ascii'>
0
1
2
3
4
5
6
7
8
9
10
11
12
13
14
15
16
17
18
19
20
21
22
23
24
25
26
27
28
29
30
31
32
33
34
35
36
37
38
39
40
41
42
43
44
45
46
47
48
49
50
51
52
53
54
55
56
57
58
59
60
61
62
63
64
65
66
67
68
69
70
71
72
73
74
75
76
77
78
79
80
81
82
83
84
85
86
87
88
89
90
91
92
93
94
95
96
97
98
99
100
101
102
103
104
105
106
107
108
109
110
111
112
113
114
115
116
117
118
119
120
121
122
123
124
125
126
127
128
129
130
131
132
133
134
135
136
137
138
139
140
141
142
143
144
145
146
147
148
149
150
151
152
153
154
155
156
157
158
159
160
161
162
163
164
165
166
167
168
169
170
171
172
173
174
175
176
177
178
179
180
181
182
183
184
185
186
187
188
189
190
191
192
193
194
195
196
197
198
199
200
201
202
203
204
205
206
207
208
209
210
211
212
213
214
215
216
217
218
219
220
221
222
223
224
225
226
227
228
229
230
231
232
233
234
235
236
237
238
239
240
241
242
243
244
245
246
247
248
249
250
251
252
253
254
255
256
257
258
259
260
261
262
263
264
265
266
267
268
269
270
271
272
273
274
275
276
277
278
279
280
281
282
283
284
285
286
287
288
289
290
291
292
293
294
295
296
297
298
299
300
301
302
303
304
305
306
307
308
309
310
311
312
313
314
315
316
317
318
319
320
321
322
323
324
325
326
327
328
329
330
331
332
333
334
335
336
337
338
339
340
341
342
343
344
345
346
347
348
349
350
351
352
353
354
355
356
357
358
359
360
361
362
363
364
365
366
367
368
369
370
371
372
373
374
375
376
377
378
379
380
381
382
383
384
385
386
387
388
389
390
391
392
393
394
395
396
397
398
399
400
401
402
403
404
405
406
407
408
409
410
411
412
413
414
415
416
417
418
419
420
421
422
423
424
425
426
427
428
429
430
431
432
433
434
435
436
437
438
439
440
441
442
443
444
445
446
447
448
449
450
451
452
453
454
455
456
457
458
459
460
461
462
463
464
465
466
467
468
469
470
471
472
473
474
475
476
477
478
479
480
481
482
483
484
485
486
487
488
489
490
491
492
493
494
495
496
497
498
499
500
501
502
503
504
505
506
507
508
509
510
511
512
513
514
515
516
517
518
519
520
521
522
523
524
525
526
527
528
529
530
531
532
533
534
535
536
537
538
539
540
541
542
543
544
545
546
547
548
549
550
551
552
553
554
555
556
557
558
559
560
561
562
563
564
565
566
567
568
569
570
571
572
573
574
575
576
577
578
579
580
581
582
583
584
585
586
587
588
589
590
591
592
593
594
595
596
597
598
599
600
601
602
603
604
605
606
607
608
609
610
611
612
613
614
615
616
617
618
619
620
621
622
623
624
625
626
627
628
629
630
631
632
633
634
635
636
637
638
639
640
641
642
643
644
645
646
647
648
649
650
651
652
653
654
655
656
657
658
659
660
661
662
663
664
665
666
667
668
669
670
671
672
673
674
675
676
677
678
679
680
681
682
683
684
685
686
687
688
689
690
691
692
693
694
695
696
697
698
699
700
701
702
703
704
705
706
707
708
709
710
711
712
713
714
715
716
717
718
719
720
721
722
723
724
725
726
727
728
729
730
731
732
733
734
735
736
737
738
739
740
741
742
743
744
745
746
747
748
749
750
751
752
753
754
755
756
757
758
759
760
761
762
763
764
765
766
767
768
769
770
771
772
773
774