<?xml version='1.0' encoding='UTF-8'?>
<VTKFile xmlns='VTK' byte_order='LittleEndian' version='0.1' type='UnstructuredGrid'>
<UnstructuredGrid>
<Piece NumberOfCells='1488' NumberOfPoints='1488'>
<Points>
<DataArray NumberOfComponents='3' type='Float32' Name='Position' format='ascii'>
-0.075000 -0.075000 0.000000
-0.075000 -0.050000 0.000000
-0.075000 -0.025000 0.000000
-0.075000 0.000000 0.000000
-0.075000 0.025000 0.000000
-0.075000 0.050000 0.000000
-0.075000 0.075000 0.000000
-0.075000 0.100000 0.000000
-0.075000 0.125000 0.000000
-0.075000 0.150000 0.000000
-0.075000 0.175000 0.000000
-0.075000 0.200000 0.000000
-0.075000 0.225000 0.000000
-0.075000 0.250000 0.000000
-0.075000 0.275000 0.000000
-0.075000 0.300000 0.000000
-0.075000 0.325000 0.000000
-0.075000 0.350000 0.000000
-0.075000 0.375000 0.000000
-0.075000 0.400000 0.000000
-0.075000 0.425000 0.000000
-0.075000 0.450000 0.000000
-0.075000 0.475000 0.000000
-0.075000 0.500000 0.000000
-0.075000 0.525000 0.000000
-0.075000 0.550000 0.000000
-0.075000 0.575000 0.000000
-0.075000 0.600000 0.000000
-0.075000 0.625000 0.000000
-0.075000 0.650000 0.000000
-0.075000 0.675000 0.000000
-0.050000 -0.075000 0.000000
-0.050000 -0.050000 0.000000
-0.050000 -0.025000 0.000000
-0.050000 0.000000 0.000000
-0.050000 0.025000 0.000000
-0.050000 0.050000 0.000000
-0.050000 0.075000 0.000000
-0.050000 0.100000 0.000000
-0.050000 0.125000 0.000000
-0.050000 0.150000 0.000000
-0.050000 0.175000 0.000000
-0.050000 0.200000 0.000000
-0.050000 0.225000 0.000000
-0.050000 0.250000 0.000000
-0.050000 0.275000 0.000000
-0.050000 0.300000 0.000000
-0.050000 0.325000 0.000000
-0.050000 0.350000 0.000000
-0.050000 0.375000 0.000000
-0.050000 0.400000 0.000000
-0.050000 0.425000 0.000000
-0.050000 0.450000 0.000000
-0.050000 0.475000 0.000000
-0.050000 0.500000 0.000000
-0.050000 0.525000 0.000000
-0.050000 0.550000 0.000000
-0.050000 0.575000 0.000000
-0.050000 0.600000 0.000000
-0.050000 0.625000 0.000000
-0.050000 0.650000 0.000000
-0.050000 0.675000 0.000000
-0.025000 -0.075000 0.000000
-0.025000 -0.050000 0.000000
-0.025000 -0.025000 0.000000
-0.025000 0.000000 0.000000
-0.025000 0.025000 0.000000
-0.025000 0.050000 0.000000
-0.025000 0.075000 0.000000
-0.025000 0.100000 0.000000
-0.025000 0.125000 0.000000
-0.025000 0.150000 0.000000
-0.025000 0.175000 0.000000
-0.025000 0.200000 0.000000
-0.025000 0.225000 0.000000
-0.025000 0.250000 0.000000
-0.025000 0.275000 0.000000
-0.025000 0.300000 0.000000
-0.025000 0.325000 0.000000
-0.025000 0.350000 0.000000
-0.025000 0.375000 0.000000
-0.025000 0.400000 0.000000
-0.025000 0.425000 0.000000
-0.025000 0.450000 0.000000
-0.025000 0.475000 0.000000
-0.025000 0.500000 0.000000
-0.025000 0.525000 0.000000
-0.025000 0.550000 0.000000
-0.025000 0.575000 0.000000
-0.025000 0.600000 0.000000
-0.025000 0.625000 0.000000
-0.025000 0.650000 0.000000
-0.025000 0.675000 0.000000
0.000000 -0.075000 0.000000
0.000000 -0.050000 0.000000
0.000000 -0.025000 0.000000
0.000000 0.000000 0.000000
0.000000 0.025000 0.000000
0.000000 0.050000 0.000000
0.000000 0.075000 0.000000
0.000000 0.100000 0.000000
0.000000 0.125000 0.000000
0.000000 0.150000 0.000000
0.000000 0.175000 0.000000
0.000000 0.200000 0.000000
0.000000 0.225000 0.000000
0.000000 0.250000 0.000000
0.000000 0.275000 0.000000
0.000000 0.300000 0.000000
0.000000 0.325000 0.000000
0.000000 0.350000 0.000000
0.000000 0.375000 0.000000
0.000000 0.400000 0.000000
0.000000 0.425000 0.000000
0.000000 0.450000 0.000000
0.000000 0.475000 0.000000
0.000000 0.500000 0.000000
0.000000 0.525000 0.000000
0.000000 0.550000 0.000000
0.000000 0.575000 0.000000
0.000000 0.600000 0.000000
0.000000 0.625000 0.000000
0.000000 0.650000 0.000000
0.000000 0.675000 0.000000
0.025000 -0.075000 0.000000
0.025000 -0.050000 0.000000
0.025000 -0.025000 0.000000
0.025000 0.000000 0.000000
0.025000 0.025000 0.000000
0.025000 0.050000 0.000000
0.025000 0.075000 0.000000
0.025000 0.100000 0.000000
0.025000 0.125000 0.000000
0.025000 0.150000 0.000000
0.025000 0.175000 0.000000
0.025000 0.200000 0.000000
0.025000 0.225000 0.000000
0.025000 0.250000 0.000000
0.025000 0.275000 0.000000
0.025000 0.300000 0.000000
0.025000 0.325000 0.000000
0.025000 0.350000 0.000000
0.025000 0.375000 0.000000
0.025000 0.400000 0.000000
0.025000 0.425000 0.000000
0.025000 0.450000 0.000000
0.025000 0.475000 0.000000
0.025000 0.500000 0.000000
0.025000 0.525000 0.000000
0.025000 0.550000 0.000000
0.025000 0.575000 0.000000
0.025000 0.600000 0.000000
0.025000 0.625000 0.000000
0.025000 0.650000 0.000000
0.025000 0.675000 0.000000
0.050000 -0.075000 0.000000
0.050000 -0.050000 0.000000
0.050000 -0.025000 0.000000
0.050000 0.000000 0.000000
0.050000 0.025000 0.000000
0.050000 0.050000 0.000000
0.050000 0.075000 0.000000
0.050000 0.100000 0.000000
0.050000 0.125000 0.000000
0.050000 0.150000 0.000000
0.050000 0.175000 0.000000
0.050000 0.200000 0.000000
0.050000 0.225000 0.000000
0.050000 0.250000 0.000000
0.050000 0.275000 0.000000
0.050000 0.300000 0.000000
0.050000 0.325000 0.000000
0.050000 0.350000 0.000000
0.050000 0.375000 0.000000
0.050000 0.400000 0.000000
0.050000 0.425000 0.000000
0.050000 0.450000 0.000000
0.050000 0.475000 0.000000
0.050000 0.500000 0.000000
0.050000 0.525000 0.000000
0.050000 0.550000 0.000000
0.050000 0.575000 0.000000
0.050000 0.600000 0.000000
0.050000 0.625000 0.000000
0.050000 0.650000 0.000000
0.050000 0.675000 0.000000
0.075000 -0.075000 0.000000
0.075000 -0.050000 0.000000
0.075000 -0.025000 0.000000
0.075000 0.000000 0.000000
0.075000 0.025000 0.000000
0.075000 0.050000 0.000000
0.075000 0.075000 0.000000
0.075000 0.100000 0.000000
0.075000 0.125000 0.000000
0.075000 0.150000 0.000000
0.075000 0.175000 0.000000
0.075000 0.200000 0.000000
0.075000 0.225000 0.000000
0.075000 0.250000 0.000000
0.075000 0.275000 0.000000
0.075000 0.300000 0.000000
0.075000 0.325000 0.000000
0.075000 0.350000 0.000000
0.075000 0.375000 0.000000
0.075000 0.400000 0.000000
0.075000 0.425000 0.000000
0.075000 0.450000 0.000000
0.075000 0.475000 0.000000
0.075000 0.500000 0.000000
0.075000 0.525000 0.000000
0.075000 0.550000 0.000000
0.075000 0.575000 0.000000
0.075000 0.600000 0.000000
0.075000 0.625000 0.000000
0.075000 0.650000 0.000000
0.075000 0.675000 0.000000
0.100000 -0.075000 0.000000
0.100000 -0.050000 0.000000
0.100000 -0.025000 0.000000
0.100000 0.000000 0.000000
0.100000 0.025000 0.000000
0.100000 0.050000 0.000000
0.100000 0.075000 0.000000
0.100000 0.100000 0.000000
0.100000 0.125000 0.000000
0.100000 0.150000 0.000000
0.100000 0.175000 0.000000
0.100000 0.200000 0.000000
0.100000 0.225000 0.000000
0.100000 0.250000 0.000000
0.100000 0.275000 0.000000
0.100000 0.300000 0.000000
0.100000 0.325000 0.000000
0.100000 0.350000 0.000000
0.100000 0.375000 0.000000
0.100000 0.400000 0.000000
0.100000 0.425000 0.000000
0.100000 0.450000 0.000000
0.100000 0.475000 0.000000
0.100000 0.500000 0.000000
0.100000 0.525000 0.000000
0.100000 0.550000 0.000000
0.100000 0.575000 0.000000
0.100000 0.600000 0.000000
0.100000 0.625000 0.000000
0.100000 0.650000 0.000000
0.100000 0.675000 0.000000
0.125000 -0.075000 0.000000
0.125000 -0.050000 0.000000
0.125000 -0.025000 0.000000
0.125000 0.000000 0.000000
0.125000 0.025000 0.000000
0.125000 0.050000 0.000000
0.125000 0.075000 0.000000
0.125000 0.100000 0.000000
0.125000 0.125000 0.000000
0.125000 0.150000 0.000000
0.125000 0.175000 0.000000
0.125000 0.200000 0.000000
0.125000 0.225000 0.000000
0.125000 0.250000 0.000000
0.125000 0.275000 0.000000
0.125000 0.300000 0.000000
0.125000 0.325000 0.000000
0.125000 0.350000 0.000000
0.125000 0.375000 0.000000
0.125000 0.400000 0.000000
0.125000 0.425000 0.000000
0.125000 0.450000 0.000000
0.125000 0.475000 0.000000
0.125000 0.500000 0.000000
0.125000 0.525000 0.000000
0.125000 0.550000 0.000000
0.125000 0.575000 0.000000
0.125000 0.600000 0.000000
0.125000 0.625000 0.000000
0.125000 0.650000 0.000000
0.125000 0.675000 0.000000
0.150000 -0.075000 0.000000
0.150000 -0.050000 0.000000
0.150000 -0.025000 0.000000
0.150000 0.000000 0.000000
0.150000 0.025000 0.000000
0.150000 0.050000 0.000000
0.150000 0.075000 0.000000
0.150000 0.100000 0.000000
0.150000 0.125000 0.000000
0.150000 0.150000 0.000000
0.150000 0.175000 0.000000
0.150000 0.200000 0.000000
0.150000 0.225000 0.000000
0.150000 0.250000 0.000000
0.150000 0.275000 0.000000
0.150000 0.300000 0.000000
0.150000 0.325000 0.000000
0.150000 0.350000 0.000000
0.150000 0.375000 0.000000
0.150000 0.400000 0.000000
0.150000 0.425000 0.000000
0.150000 0.450000 0.000000
0.150000 0.475000 0.000000
0.150000 0.500000 0.000000
0.150000 0.525000 0.000000
0.150000 0.550000 0.000000
0.150000 0.575000 0.000000
0.150000 0.600000 0.000000
0.150000 0.625000 0.000000
0.150000 0.650000 0.000000
0.150000 0.675000 0.000000
0.175000 -0.075000 0.000000
0.175000 -0.050000 0.000000
0.175000 -0.025000 0.000000
0.175000 0.000000 0.000000
0.175000 0.025000 0.000000
0.175000 0.050000 0.000000
0.175000 0.075000 0.000000
0.175000 0.100000 0.000000
0.175000 0.125000 0.000000
0.175000 0.150000 0.000000
0.175000 0.175000 0.000000
0.175000 0.200000 0.000000
0.175000 0.225000 0.000000
0.175000 0.250000 0.000000
0.175000 0.275000 0.000000
0.175000 0.300000 0.000000
0.175000 0.325000 0.000000
0.175000 0.350000 0.000000
0.175000 0.375000 0.000000
0.175000 0.400000 0.000000
0.175000 0.425000 0.000000
0.175000 0.450000 0.000000
0.175000 0.475000 0.000000
0.175000 0.500000 0.000000
0.175000 0.525000 0.000000
0.175000 0.550000 0.000000
0.175000 0.575000 0.000000
0.175000 0.600000 0.000000
0.175000 0.625000 0.000000
0.175000 0.650000 0.000000
0.175000 0.675000 0.000000
0.200000 -0.075000 0.000000
0.200000 -0.050000 0.000000
0.200000 -0.025000 0.000000
0.200000 0.000000 0.000000
0.200000 0.025000 0.000000
0.200000 0.050000 0.000000
0.200000 0.075000 0.000000
0.200000 0.100000 0.000000
0.200000 0.125000 0.000000
0.200000 0.150000 0.000000
0.200000 0.175000 0.000000
0.200000 0.200000 0.000000
0.200000 0.225000 0.000000
0.200000 0.250000 0.000000
[...]
<PointData>
<DataArray NumberOfComponents='1' type='Int32' Name='ParticleType' format='ascii'>
4
4
4
4
4
4
4
4
4
4
4
4
4
4
4
4
4
4
4
4
4
4
4
4
4
4
4
4
2
2
2
4
4
4
4
4
4
4
4
4
4
4
4
4
4
4
4
4
4
4
4
4
4
4
4
4
4
4
4
2
2
2
4
4
3
3
3
3
3
3
3
3
3
3
3
3
3
3
3
3
3
3
3
3
3
3
3
3
3
3
2
2
2
4
4
3
3
3
3
3
3
3
3
3
3
3
3
3
3
3
3
3
3
3
3
3
3
3
3
3
3
2
2
2
4
4
3
3
0
0
0
0
0
0
0
0
0
0
0
0
0
0
0
0
0
0
0
0
0
0
1
1
2
2
2
4
4
3
3
0
0
0
0
0
0
0
0
0
0
0
0
0
0
0
0
0
0
0
0
0
0
1
1
2
2
2
4
4
3
3
0
0
0
0
0
0
0
0
0
0
0
0
0
0
0
0
0
0
0
0
0
0
1
1
2
2
2
4
4
3
3
0
0
0
0
0
0
0
0
0
0
0
0
0
0
0
0
0
0
0
0
0
0
0
1
2
2
2
4
4
3
3
0
0
0
0
0
0
0
0
0
0
0
0
0
0
0
0
0
0
0
0
0
0
0
1
2
2
2
4
4
3
3
0
0
0
0
0
0
0
0
0
0
0
0
0
0
0
0
0
0
0
0
0
0
0
1
2
2
2
4
4
3
3
0
0
0
0
0
0
0
0
0
0
0
0
0
0
0
0
0
0
0
0
0
0
0
1
2
2
2
4
4
3
3
0
0
0
0
0
0
0
0
0
0
0
0
0
0
0
0
0
0
0
0
0
0
0
1
2
2
2
4
4
3
3
0
0
0
0
0
0
0
0
0
0
0
0
0
0
0
0
0
0
0
0
0
0
0
1
2
2
2
4
4
3
3
0
0
0
0
0
0
0
0
0
0
0
0
0
0
0
0
0
0
0
0
0
0
0
1
2
2
2
4
4
3
3
0
0
0
0
0
0
0
0
0
0
0
0
0
0
0
0
0
0
0
0
0
0
0
1
2
2
2
4
4
3
3
0
0
0
0
0
0
0
0
0
0
0
0
0
0
0
0
0
0
0
0
0
0
0
1
2
2
2
4
4
3
3
0
0
0
0
0
0
0
0
0
0
0
0
0
0
0
0
0
0
0
0
0
0
0
1
2
2
2
4
4
3
3
0
0
0
0
0
0
0
0
0
0
0
0
0
0
0
0
0
0
0
0
0
0
0
1
2
2
2
4
4
3
3
0
0
0
0
0
0
0
0
0
0
0
0
0
0
0
0
0
0
0
0
0
0
0
1
2
2
2
4
4
3
3
0
0
0
0
0
0
0
0
0
0
0
0
0
0
0
0
0
0
0
0
0
0
0
1
2
2
2
4
4
3
3
0
0
0
0
0
0
0
0
0
0
0
0
0
0
0
0
0
0
0
0
0
0
0
1
2
2
2
4
4
3
3
0
0
0
0
0
0
0
0
0
0
0
0
0
0
0
0
0
0
0
0
0
0
0
1
2
2
2
4
4
3
3
0
0
0
0
0
0
0
0
0
0
0
0
0
0
0
0
0
0
0
0
0
0
0
1
2
2
2
4
4
3
3
0
0
0
0
0
0
0
0
0
0
0
0
0
0
0
0
0
0
0
0
0
0
0
1
2
2
2
4
4
3
3
0
0
0
0
0
0
0
0
0
0
0
0
0
0
0
0
0
0
0
0
0
0
0
1
2
2
2
4
4
3
3
0
0
0
0
0
0
0
0
0
0
0
0
0
0
0
0
0
0
0
0
0
0
0
1
2
2
2
4
4
3
3
0
0
0
0
0
0
0
0
0
0
0
0
0
0
0
0
0
0
0
0
0
0
0
1
2
2
2
4
4
3
3
0
0
0
0
0
0
0
0
0
0
0
0
0
0
0
0
0
0
0
0
0
0
0
1
2
2
2
4
4
3
3
0
0
0
0
0
0
0
0
0
0
0
0
0
0
0
0
0
0
0
0
0
0
0
1
2
2
2
4
4
3
3
0
0
0
0
0
0
0
0
0
0
0
0
0
0
0
0
0
0
0
0
0
0
0
1
2
2
2
4
4
3
3
0
0
0
0
0
0
0
0
0
0
0
0
0
0
0
0
0
0
0
0
0
0
0
1
2
2
2
4
4
3
3
0
0
0
0
0
0
0
0
0
0
0
0
0
0
0
0
0
0
0
0
0
0
0
1
2
2
2
4
4
3
3
0
0
0
0
0
0
0
0
0
0
0
0
0
0
0
0
0
0
0
0
0
0
0
1
2
2
2
4
4
3
3
0
0
0
0
0
0
0
0
0
0
0
0
0
0
0
0
0
0
0
0
0
0
0
1
2
2
2
4
4
3
3
0
0
0
0
0
0
0
0
0
0
0
0
0
0
0
0
0
0
0
0
0
0
0
1
2
2
2
4
4
3
3
0
0
0
0
0
0
0
0
0
0
0
0
0
0
0
0
0
0
0
0
0
0
0
1
2
2
2
4
4
3
3
0
0
0
0
0
0
0
0
0
0
0
0
0
0
0
0
0
0
0
0
0
0
0
1
2
2
2
4
4
3
3
0
0
0
0
0
0
0
0
0
0
0
0
0
0
0
0
0
0
0
0
0
0
0
1
2
2
2
4
4
3
3
0
0
0
0
0
0
0
0
0
0
0
0
0
0
0
0
0
0
0
0
0
0
0
1
2
2
2
4
4
3
3
0
0
0
0
0
0
0
0
0
0
0
0
0
0
0
0
0
0
0
0
0
0
0
1
2
2
2
4
4
3
3
0
0
0
0
0
0
0
0
0
0
0
0
0
0
0
0
0
0
0
0
0
0
0
1
2
2
2
4
4
3
3
0
0
0
0
0
0
0
0
0
0
0
0
0
0
0
0
0
0
0
0
0
0
1
1
2
2
2
4
4
3
3
0
0
0
0
0
0
0
0
0
0
0
0
0
0
0
0
0
0
0
0
0
0
1
1
2
2
2
4
4
3
3
0
0
0
0
0
0
0
0
0
0
0
0
0
0
0
0
0
0
0
0
0
0
1
1
2
2
2
4
4
3
3
3
3
3
3
3
3
3
3
3
3
3
3
3
3
3
3
3
3
3
3
3
3
3
3
2
2
2
4
4
3
3
3
3
3
3
3
3
3
3
3
3
3
3
3
3
3
3
3
3
3
3
3
3
3
3
2
2
2
4
4
4
4
4
4
4
4
4
4
4
4
4
4
4
4
4
4
4
4
4
4
4
4
4
4
4
4
2
2
2
4
4
4
4
4
4
4
4
4
4
4
4
4
4
4
4
4
4
4
4
4
4
4
4
4
4
4
4
2
2
2
</DataArray>
<DataArray NumberOfComponents='1' type='Float32' Name='Temperature' format='ascii'>
0.000000
0.000000
0.000000
0.000000
0.000000
0.000000
0.000000
0.000000
0.000000
0.000000
0.000000
0.000000
0.000000
0.000000
0.000000
0.000000
0.000000
0.000000
0.000000
0.000000
0.000000
0.000000
0.000000
0.000000
0.000000
0.000000
0.000000
0.000000
-5.000000
-5.000000
-5.000000
0.000000
0.000000
0.000000
0.000000
0.000000
0.000000
0.000000
0.000000
0.000000
0.000000
0.000000
0.000000
0.000000
0.000000
0.000000
0.000000
0.000000
0.000000
0.000000
0.000000
0.000000
0.000000
0.000000
0.000000
0.000000
0.000000
0.000000
0.000000
-5.000000
-5.000000
-5.000000
0.000000
0.000000
0.000000
0.000000
0.000000
0.000000
0.000000
0.000000
0.000000
0.000000
0.000000
0.000000
0.000000
0.000000
0.000000
0.000000
0.000000
0.000000
0.000000
0.000000
0.000000
0.000000
0.000000
0.000000
0.000000
0.000000
0.000000
0.000000
-5.000000
-5.000000
-5.000000
0.000000
0.000000
0.000000
0.000000
0.000000
0.000000
0.000000
0.000000
0.000000
0.000000
0.000000
0.000000
0.000000
0.000000
0.000000
0.000000
0.000000
0.000000
0.000000
0.000000
0.000000
0.000000
0.000000
0.000000
0.000000
0.000000
0.000000
0.000000
-5.000000
-5.000000
-5.000000
0.000000
0.000000
0.000000
0.000000
0.219006
0.386271
0.546116
0.685717
0.804651
0.902689
0.981267
1.042440
1.088332
1.120699
1.140707
1.148861
1.144997
1.128283
1.097183
1.049426
0.982043
0.891596
0.774607
0.628693
0.452110
0.252550
0.009188
-0.001970
-5.000000
-5.000000
-5.000000
0.000000
0.000000
0.000000
0.000000
0.387988
0.684269
0.968479
1.217710
1.431330
1.608821
1.752479
1.865582
1.951451
2.012737
2.051092
2.067100
2.060312
2.029273
1.971466
1.883237
1.759816
1.595657
1.385117
1.124368
0.809807
0.459824
0.009377
-0.001159
-5.000000
-5.000000
-5.000000
0.000000
0.000000
0.000000
0.000000
0.552851
0.976157
1.383878
1.743905
2.055450
2.317552
2.532918
2.705370
2.838609
2.935332
2.996912
3.023439
3.013893
2.966244
2.877381
2.742951
2.557288
2.313747
2.005491
1.627977
1.175666
0.675736
0.009884
-0.000203
-5.000000
-5.000000
-5.000000
0.000000
0.000000
0.000000
0.000000
0.702965
1.243203
1.766785
2.233775
2.643429
2.994117
3.288226
3.529005
3.719189
3.860130
3.951681
3.992526
3.980628
3.913479
3.788025
3.600351
3.345379
3.017024
2.608864
2.116899
1.535043
0.896297
0.011224
0.000164
-5.000000
-5.000000
-5.000000
0.000000
0.000000
0.000000
0.000000
0.840562
1.489838
2.124377
2.697932
3.210065
3.658192
4.043442
4.367040
4.628977
4.827397
4.958944
5.019642
5.005801
4.914532
4.743668
4.491200
4.154547
3.730268
3.214381
2.605122
1.897837
1.130341
0.127993
0.000611
-5.000000
-5.000000
-5.000000
0.000000
0.000000
0.000000
0.000000
0.968483
1.721475
2.465251
3.148814
3.772378
4.332065
4.826607
5.253414
5.607503
5.881442
6.066512
6.154448
6.139065
6.017183
5.788545
5.454854
5.018371
4.480822
3.843019
3.107224
2.272113
1.378117
0.260172
0.001492
-5.000000
-5.000000
-5.000000
0.000000
0.000000
0.000000
0.000000
1.091328
1.946613
2.802284
3.604102
4.353365
5.044511
5.672571
6.229052
6.701359
7.073657
7.329260
7.453634
7.437064
7.276149
6.973732
6.537353
5.976834
5.301974
4.521015
3.642149
2.668378
1.641671
0.402936
0.001858
-5.000000
-5.000000
-5.000000
0.000000
0.000000
0.000000
0.000000
1.213949
2.174088
3.148611
4.081412
4.975386
5.822863
6.613768
7.331401
7.952615
8.450000
8.795952
8.967416
8.949947
8.739987
8.344784
7.780069
7.066248
6.224377
5.272971
4.228182
3.098168
1.925730
0.556532
0.001736
-5.000000
-5.000000
-5.000000
0.000000
0.000000
0.000000
0.000000
1.340357
2.411065
3.514590
4.594173
5.654845
6.686422
7.672288
8.585172
9.388334
10.039464
10.496955
10.726851
10.708706
10.438844
9.930273
9.209358
8.310212
7.268440
6.115753
4.878352
3.570533
2.235604
0.723283
0.002573
-5.000000
-5.000000
-5.000000
0.000000
0.000000
0.000000
0.000000
1.472783
2.661317
3.905209
5.148064
6.397579
7.640676
8.852881
9.994130
11.011209
11.843759
12.433212
12.732445
12.713783
12.373463
11.731530
10.827297
9.711544
8.437540
7.052951
5.596025
4.088184
2.573104
0.904080
0.002556
-5.000000
-5.000000
-5.000000
0.000000
0.000000
0.000000
0.000000
1.611183
2.924299
4.318680
5.739084
7.196320
8.674125
10.139080
11.536500
12.794305
13.831462
14.569984
14.947673
14.928604
14.508945
13.716840
12.606472
11.247753
9.714203
8.071743
6.372328
4.645361
2.934796
1.097217
0.003203
-5.000000
-5.000000
-5.000000
0.000000
0.000000
0.000000
0.000000
1.753230
3.195152
4.746470
6.353633
8.030870
9.758544
11.493582
13.165468
14.681674
15.938743
16.837633
17.299808
17.280407
16.775543
15.822165
14.490606
12.871547
11.060478
9.143103
7.186187
5.227681
3.311761
1.298074
0.003432
-5.000000
-5.000000
-5.000000
0.000000
0.000000
0.000000
0.000000
1.894774
3.465593
5.174729
6.970610
8.870994
10.852820
12.863116
14.815117
16.595295
18.077169
19.140073
19.688700
19.669022
19.077103
17.958946
16.401481
14.516725
12.422740
10.225534
8.007062
5.814001
3.690730
1.499762
0.003286
-5.000000
-5.000000
-5.000000
0.000000
0.000000
0.000000
0.000000
2.030633
3.725430
5.586720
7.564956
9.681326
11.909431
14.186664
16.410446
18.446826
20.146934
21.369085
22.001672
21.981761
21.305373
20.027314
18.250655
16.108158
13.739829
11.271422
8.799662
6.379710
4.056137
1.694173
0.004273
-5.000000
-5.000000
-5.000000
0.000000
0.000000
0.000000
0.000000
2.155491
3.964299
5.965597
8.111712
10.426964
12.881851
15.404862
17.878845
20.151045
22.052001
23.420705
24.130564
24.110458
23.356372
21.931207
19.952868
17.573194
14.952370
12.234320
9.529374
6.900519
4.392530
1.873124
0.004451
-5.000000
-5.000000
-5.000000
0.000000
0.000000
0.000000
0.000000
2.264690
4.173176
6.296811
8.589512
11.078288
13.730889
16.468023
19.159846
21.637265
23.712942
25.209104
25.986164
25.965901
25.144268
23.591185
21.437426
18.851372
16.010722
13.075183
10.166924
7.355765
4.686680
2.029638
0.004908
-5.000000
-5.000000
-5.000000
0.000000
0.000000
0.000000
0.000000
2.354721
4.345308
6.569582
8.982695
11.613817
14.428405
17.340780
20.210723
22.855824
25.074189
26.674409
27.506323
27.485939
26.609182
24.951680
22.654668
19.899983
16.879579
13.766021
10.691144
7.730377
4.928890
2.158555
0.004512
-5.000000
-5.000000
-5.000000
0.000000
0.000000
0.000000
0.000000
2.423352
4.476448
6.777226
9.281713
12.020677
14.957813
18.002599
21.006995
23.778567
26.104492
27.783122
28.656363
28.635892
27.717612
25.981432
23.576435
20.694556
17.538451
14.290355
11.089386
8.015223
5.113207
2.256745
0.005283
-5.000000
-5.000000
-5.000000
0.000000
0.000000
0.000000
0.000000
2.469438
4.564460
6.916470
9.482046
12.292999
15.311829
18.444783
21.538623
24.394269
26.791658
28.522365
29.423051
29.402524
28.456673
26.668238
24.191494
21.225056
17.978665
14.640964
11.355911
8.206018
5.236761
2.322595
0.005183
-5.000000
-5.000000
-5.000000
0.000000
0.000000
0.000000
0.000000
2.492549
4.608573
6.986217
9.582314
12.429191
15.488743
18.665607
21.803959
24.701422
27.134340
28.890932
29.805256
29.784701
28.825149
27.010743
24.498327
21.489828
18.198500
14.816166
11.489187
8.301491
5.298622
2.355584
0.005337
-5.000000
-5.000000
-5.000000
0.000000
0.000000
0.000000
0.000000
2.492583
4.608631
6.986290
9.582391
12.429256
15.488781
18.665604
21.803905
24.701313
27.134180
28.890732
29.805035
29.784479
28.824949
27.010581
24.498216
21.489771
18.198492
14.816196
11.489241
8.301551
5.298675
2.355617
0.005339
-5.000000
-5.000000
-5.000000
0.000000
0.000000
0.000000
0.000000
2.469539
4.564626
6.916679
9.482259
12.293171
15.311911
18.444731
21.538406
24.393877
26.791104
28.521687
29.422305
29.401776
28.455992
26.667681
24.191096
21.224829
17.978596
14.641021
11.356047
8.206183
5.236908
2.322691
0.005188
-5.000000
-5.000000
-5.000000
0.000000
0.000000
0.000000
0.000000
2.423508
4.476702
6.777536
9.282013
12.020887
14.957847
18.002381
21.006473
23.777724
26.103354
27.781757
28.654876
28.634404
27.716244
25.980288
23.575582
20.694018
17.538207
14.290349
11.089539
8.015447
5.113420
2.256889
0.005297
-5.000000
-5.000000
-5.000000
0.000000
0.000000
0.000000
0.000000
2.354917
4.345621
6.569950
8.983018
11.613976
14.428276
17.340251
20.209719
22.854322
25.072233
26.672106
27.503833
27.483447
26.606875
24.949716
22.653152
19.898955
16.879014
13.765838
10.691228
7.730599
4.929131
2.158728
0.004537
-5.000000
-5.000000
-5.000000
0.000000
0.000000
0.000000
0.000000
2.264912
4.173522
6.297195
8.589800
11.078321
13.730501
16.467066
19.158221
21.634947
23.709993
25.205677
25.982477
25.962212
25.140835
23.588227
21.435090
18.849718
16.009720
13.074730
10.166865
7.355931
4.686913
2.029822
0.004950
-5.000000
-5.000000
-5.000000
0.000000
0.000000
0.000000
0.000000
2.155728
3.964660
5.965972
8.111936
10.426839
12.881171
15.403446
17.876572
20.147889
22.048044
23.416140
24.125670
24.105562
23.351801
21.927238
19.949691
17.570887
14.950901
12.233563
9.529142
6.900603
4.392736
1.873308
0.004505
-5.000000
-5.000000
-5.000000
0.000000
0.000000
0.000000
0.000000
2.030881
3.725800
5.587085
7.565125
9.681070
11.908513
14.184876
16.407652
18.442996
20.142167
21.363609
21.995812
21.975898
21.299889
20.022534
18.246801
16.105324
13.737982
11.270418
8.799288
6.379725
4.056320
1.694356
0.004356
-5.000000
-5.000000
-5.000000
0.000000
0.000000
0.000000
0.000000
1.895036
3.465982
5.175107
6.970772
8.870696
10.851805
12.861161
14.812075
16.591136
18.072001
19.134140
19.682353
19.662672
19.071161
17.953761
16.397294
14.513639
12.420719
10.224424
8.006633
5.813998
3.690913
1.499952
0.003385
-5.000000
-5.000000
-5.000000
0.000000
0.000000
0.000000
0.000000
1.753512
3.195577
4.746901
6.353863
8.030654
9.757626
11.491737
13.162547
14.677645
15.933712
16.831841
17.293604
17.274200
16.769741
15.817114
14.486545
12.868576
11.058560
9.142081
7.185831
5.227733
3.311983
1.298286
0.003517
-5.000000
-5.000000
-5.000000
0.000000
0.000000
0.000000
0.000000
1.611492
2.924777
4.319203
5.739457
7.196314
8.673501
10.137624
11.534070
12.790868
13.827109
14.564935
14.942247
14.923174
14.503884
13.712464
12.602997
11.245267
9.712665
8.071006
6.372173
4.645546
2.935097
1.097467
0.003281
-5.000000
-5.000000
-5.000000
0.000000
0.000000
0.000000
0.000000
1.473120
2.661858
3.905847
5.148632
6.397875
7.640490
8.852025
9.992475
11.008718
11.840503
12.429374
12.728289
12.709622
12.369609
11.728248
10.824762
9.709825
8.436593
7.052644
5.596163
4.088555
2.573511
0.904379
0.002631
-5.000000
-5.000000
-5.000000
0.000000
0.000000
0.000000
0.000000
1.340718
2.411662
3.515341
4.594942
5.655470
6.686729
7.672121
8.584420
9.386958
10.037511
10.494557
10.724209
10.706058
10.436428
9.928287
9.207932
8.309388
7.268175
6.115930
4.878812
3.571101
2.236119
0.723631
0.002621
-5.000000
-5.000000
-5.000000
0.000000
0.000000
0.000000
0.000000
1.214319
2.174716
3.149441
4.082342
4.976294
5.823617
6.614246
7.331511
7.952317
8.449315
8.794965
8.966261
8.948785
8.738979
8.344061
7.779713
7.066277
6.224747
5.273588
4.228921
3.098898
1.926329
0.556919
0.001796
-5.000000
-5.000000
-5.000000
0.000000
0.000000
0.000000
0.000000
1.091684
1.947230
2.803130
3.605108
4.354450
5.045580
5.673534
6.229838
6.701927
7.074009
7.329436
7.453709
7.437130
7.276299
6.974039
6.537855
5.977530
5.302822
4.521941
3.643064
2.669194
1.642308
0.403346
0.001939
-5.000000
-5.000000
-5.000000
0.000000
0.000000
0.000000
0.000000
0.968798
1.722032
2.466036
3.149791
3.773497
4.333267
4.827830
5.254604
5.608623
5.882477
6.067470
6.155357
6.139965
6.018111
5.789529
5.455901
5.019464
4.481923
3.844076
3.108179
2.272915
1.378732
0.260585
0.001653
-5.000000
-5.000000
-5.000000
0.000000
0.000000
0.000000
0.000000
0.840811
1.490286
2.125028
2.698773
3.211073
3.659337
4.044687
4.368346
4.630312
4.828735
4.960272
5.020958
5.007107
4.915828
4.744952
4.492456
4.155752
3.731390
3.215385
2.605978
1.898524
1.130862
0.128364
0.001001
-5.000000
-5.000000
-5.000000
0.000000
0.000000
0.000000
0.000000
0.703131
1.243512
1.767249
2.234401
2.644216
2.995055
3.289297
3.530184
3.720448
3.861443
3.953023
3.993876
3.981967
3.914788
3.789282
3.601532
3.346458
3.017977
2.609671
2.117551
1.535540
0.896660
0.011489
0.000843
-5.000000
-5.000000
-5.000000
0.000000
0.000000
0.000000
0.000000
0.552934
0.976319
1.384140
1.744284
2.055961
2.318198
2.533696
2.706264
2.839599
2.936393
2.998018
3.024562
3.015006
2.967318
2.878390
2.743868
2.558091
2.314420
2.006026
1.628379
1.175952
0.675917
0.009879
-0.000518
-5.000000
-5.000000
-5.000000
0.000000
0.000000
0.000000
0.000000
0.388004
0.684312
0.968569
1.217870
1.431579
1.609170
1.752934
1.866134
1.952087
2.013438
2.051836
2.067861
2.061064
2.029990
1.972124
1.883814
1.760295
1.596030
1.385385
1.124544
0.809916
0.459850
0.009631
-0.001061
-5.000000
-5.000000
-5.000000
0.000000
0.000000
0.000000
0.000000
0.218987
0.386247
0.546103
0.685734
0.804715
0.902811
0.981454
1.042690
1.088637
1.121048
1.141085
1.149251
1.145382
1.128644
1.097504
1.049692
0.982246
0.891731
0.774681
0.628718
0.452105
0.252483
0.009248
-0.004885
-5.000000
-5.000000
-5.000000
0.000000
0.000000
0.000000
0.000000
0.000000
0.000000
0.000000
0.000000
0.000000
0.000000
0.000000
0.000000
0.000000
0.000000
0.000000
0.000000
0.000000
0.000000
0.000000
0.000000
0.000000
0.000000
0.000000
0.000000
0.000000
0.000000
0.000000
0.000000
-5.000000
-5.000000
-5.000000
0.000000
0.000000
0.000000
0.000000
0.000000
0.000000
0.000000
0.000000
0.000000
0.000000
0.000000
0.000000
0.000000
0.000000
0.000000
0.000000
0.000000
0.000000
0.000000
0.000000
0.000000
0.000000
0.000000
0.000000
0.000000
0.000000
0.000000
0.000000
-5.000000
-5.000000
-5.000000
0.000000
0.000000
0.000000
0.000000
0.000000
0.000000
0.000000
0.000000
0.000000
0.000000
0.000000
0.000000
0.000000
0.000000
0.000000
0.000000
0.000000
0.000000
0.000000
0.000000
0.000000
0.000000
0.000000
0.000000
0.000000
0.000000
0.000000
0.000000
-5.000000
-5.000000
-5.000000
0.000000
0.000000
0.000000
0.000000
0.000000
0.000000
0.000000
0.000000
0.000000
0.000000
0.000000
0.000000
0.000000
0.000000
0.000000
0.000000
0.000000
0.000000
0.000000
0.000000
0.000000
0.000000
0.000000
0.000000
0.000000
0.000000
0.000000
0.000000
-5.000000
-5.000000
-5.000000
</DataArray>
</PointData>
<Cells>
<DataArray type='Int32' Name='connectivity' format='ascii'>
0
1
2
3
4
5
6
7
8
9
10
11
12
13
14
15
16
17
18
19
20
21
22
23
24
25
26
27
28
29
30
31
32
33
34
35
36
37
38
39
40
41
42
43
44
45
46
47
48
49
50
51
52
53
54
55
56
57
58
59
60
61
62
63
64
65
66
67
68
69
70
71
72
73
74
75
76
77
78
79
80
81
82
83
84
85
86
87
88
89
90
91
92
93
94
95
96
97
98
99
100
101
102
103
104
105
106
107
108
109
110
111
112
113
114
115
116
117
118
119
120
121
122
123
124
125
126
127
128
129
130
131
132
133
134
135
136
137
138
139
140
141
142
143
144
145
146
147
148
149
150
151
152
153
154
155
156
157
158
159
160
161
162
163
164
165
166
167
168
169
170
171
172
173
174
175
176
177
178
179
180
181
182
183
184
185
186
187
188
189
190
191
192
193
194
195
196
197
198
199
200
201
202
203
204
205
206
207
208
209
210
211
212
213
214
215
216
217
218
219
220
221
222
223
224
225
226
227
228
229
230
231
232
233
234
235
236
237
238
239
240
241
242
243
244
245
246
247
248
249
250
251
252
253
254
255
256
257
258
259
260
261
262
263
264
265
266
267
268
269
270
271
272
273
274
275
276
277
278
279
280
281
282
283
284
285
286
287
288
289
290
291
292
293
294
295
296
297
298
299
300
301
302
303
304
305
306
307
308
309
310
311
312
313
314
315
316
317
318
319
320
321
322
323
324
325
326
327
328
329
330
331
332
333
334
335
336
337
338
339
340
341
342
343
344
345
346
347
348
349
350
351
352
353
354
355
356
357
358
359
360
361
362
363
364
365
366
367
368
369
370
371
372
373
374
375
376
377
378
379
380
381
382
383
384
385
386
387
388
389
390
391
392
393
394
395
396
397
398
399
400
401
402
403
404
405
406
407
408
409
410
411
412
413
414
415
416
417
418
419
420
421
422
423
424
425
426
427
428
429
430
431
432
433
434
435
436
437
438
439
440
441
442
443
444
445
446
447
448
449
450
451
452
453
454
455
456
457
458
459
460
461
462
463
464
465
466
467
468
469
470
471
472
473
474
475
476
477
478
479
480
481
482
483
484
485
486
487
488
489
490
491
492
493
494
495
496
497
498
499
500
501
502
503
504
505
506
507
508
509
510
511
512
513
514
515
516
517
518
519
520
521
522
523
524
525
526
527
528
529
530
531
532
533
534
535
536
537
538
539
540
541
542
543
544
545
546
547
548
549
550
551
552
553
554
555
556
557
558
559
560
561
562
563
564
565
566
567
568
569
570
571
572
573
574
575
576
577
578
579
580
581
582
583
584
585
586
587
588
589
590
591
592
593
594
595
596
597
598
599
600
601
602
603
604
605
606
607
608
609
610
611
612
613
614
615
616
617
618
619
620
621
622
623
624
625
626
627
628
629
630
631
632
633
634
635
636
637
638
639
640
641
642
643
644
645
646
647
648
649
650
651
652
653
654
655
656
657
658
659
660
661
662
663
664
665
666
667
668
669
670
671
672
673
674
675
676
677
678
679
680
681
682
683
684
685
686
687
688
689
690
691
692
693
694
695
696
697
698
699
700
701
702
703
704
705
706
707
708
709
710
711
712
713
714
715
716
717
718
719
720
721
722
723
724
725
726
727
728
729
730
731
732
733
734
735
736
737
738
739
740
741
742
743
744
745
746