<?xml version='1.0' encoding='UTF-8'?>
<VTKFile xmlns='VTK' byte_order='LittleEndian' version='0.1' type='UnstructuredGrid'>
<UnstructuredGrid>
<Piece NumberOfCells='1488' NumberOfPoints='1488'>
<Points>
<DataArray NumberOfComponents='3' type='Float32' Name='Position' format='ascii'>
-0.075000 -0.075000 0.000000
-0.075000 -0.050000 0.000000
-0.075000 -0.025000 0.000000
-0.075000 0.000000 0.000000
-0.075000 0.025000 0.000000
-0.075000 0.050000 0.000000
-0.075000 0.075000 0.000000
-0.075000 0.100000 0.000000
-0.075000 0.125000 0.000000
-0.075000 0.150000 0.000000
-0.075000 0.175000 0.000000
-0.075000 0.200000 0.000000
-0.075000 0.225000 0.000000
-0.075000 0.250000 0.000000
-0.075000 0.275000 0.000000
-0.075000 0.300000 0.000000
-0.075000 0.325000 0.000000
-0.075000 0.350000 0.000000
-0.075000 0.375000 0.000000
-0.075000 0.400000 0.000000
-0.075000 0.425000 0.000000
-0.075000 0.450000 0.000000
-0.075000 0.475000 0.000000
-0.075000 0.500000 0.000000
-0.075000 0.525000 0.000000
-0.075000 0.550000 0.000000
-0.075000 0.575000 0.000000
-0.075000 0.600000 0.000000
-0.075000 0.625000 0.000000
-0.075000 0.650000 0.000000
-0.075000 0.675000 0.000000
-0.050000 -0.075000 0.000000
-0.050000 -0.050000 0.000000
-0.050000 -0.025000 0.000000
-0.050000 0.000000 0.000000
-0.050000 0.025000 0.000000
-0.050000 0.050000 0.000000
-0.050000 0.075000 0.000000
-0.050000 0.100000 0.000000
-0.050000 0.125000 0.000000
-0.050000 0.150000 0.000000
-0.050000 0.175000 0.000000
-0.050000 0.200000 0.000000
-0.050000 0.225000 0.000000
-0.050000 0.250000 0.000000
-0.050000 0.275000 0.000000
-0.050000 0.300000 0.000000
-0.050000 0.325000 0.000000
-0.050000 0.350000 0.000000
-0.050000 0.375000 0.000000
-0.050000 0.400000 0.000000
-0.050000 0.425000 0.000000
-0.050000 0.450000 0.000000
-0.050000 0.475000 0.000000
-0.050000 0.500000 0.000000
-0.050000 0.525000 0.000000
-0.050000 0.550000 0.000000
-0.050000 0.575000 0.000000
-0.050000 0.600000 0.000000
-0.050000 0.625000 0.000000
-0.050000 0.650000 0.000000
-0.050000 0.675000 0.000000
-0.025000 -0.075000 0.000000
-0.025000 -0.050000 0.000000
-0.025000 -0.025000 0.000000
-0.025000 0.000000 0.000000
-0.025000 0.025000 0.000000
-0.025000 0.050000 0.000000
-0.025000 0.075000 0.000000
-0.025000 0.100000 0.000000
-0.025000 0.125000 0.000000
-0.025000 0.150000 0.000000
-0.025000 0.175000 0.000000
-0.025000 0.200000 0.000000
-0.025000 0.225000 0.000000
-0.025000 0.250000 0.000000
-0.025000 0.275000 0.000000
-0.025000 0.300000 0.000000
-0.025000 0.325000 0.000000
-0.025000 0.350000 0.000000
-0.025000 0.375000 0.000000
-0.025000 0.400000 0.000000
-0.025000 0.425000 0.000000
-0.025000 0.450000 0.000000
-0.025000 0.475000 0.000000
-0.025000 0.500000 0.000000
-0.025000 0.525000 0.000000
-0.025000 0.550000 0.000000
-0.025000 0.575000 0.000000
-0.025000 0.600000 0.000000
-0.025000 0.625000 0.000000
-0.025000 0.650000 0.000000
-0.025000 0.675000 0.000000
0.000000 -0.075000 0.000000
0.000000 -0.050000 0.000000
0.000000 -0.025000 0.000000
0.000000 0.000000 0.000000
0.000000 0.025000 0.000000
0.000000 0.050000 0.000000
0.000000 0.075000 0.000000
0.000000 0.100000 0.000000
0.000000 0.125000 0.000000
0.000000 0.150000 0.000000
0.000000 0.175000 0.000000
0.000000 0.200000 0.000000
0.000000 0.225000 0.000000
0.000000 0.250000 0.000000
0.000000 0.275000 0.000000
0.000000 0.300000 0.000000
0.000000 0.325000 0.000000
0.000000 0.350000 0.000000
0.000000 0.375000 0.000000
0.000000 0.400000 0.000000
0.000000 0.425000 0.000000
0.000000 0.450000 0.000000
0.000000 0.475000 0.000000
0.000000 0.500000 0.000000
0.000000 0.525000 0.000000
0.000000 0.550000 0.000000
0.000000 0.575000 0.000000
0.000000 0.600000 0.000000
0.000000 0.625000 0.000000
0.000000 0.650000 0.000000
0.000000 0.675000 0.000000
0.025000 -0.075000 0.000000
0.025000 -0.050000 0.000000
0.025000 -0.025000 0.000000
0.025000 0.000000 0.000000
0.025000 0.025000 0.000000
0.025000 0.050000 0.000000
0.025000 0.075000 0.000000
0.025000 0.100000 0.000000
0.025000 0.125000 0.000000
0.025000 0.150000 0.000000
0.025000 0.175000 0.000000
0.025000 0.200000 0.000000
0.025000 0.225000 0.000000
0.025000 0.250000 0.000000
0.025000 0.275000 0.000000
0.025000 0.300000 0.000000
0.025000 0.325000 0.000000
0.025000 0.350000 0.000000
0.025000 0.375000 0.000000
0.025000 0.400000 0.000000
0.025000 0.425000 0.000000
0.025000 0.450000 0.000000
0.025000 0.475000 0.000000
0.025000 0.500000 0.000000
0.025000 0.525000 0.000000
0.025000 0.550000 0.000000
0.025000 0.575000 0.000000
0.025000 0.600000 0.000000
0.025000 0.625000 0.000000
0.025000 0.650000 0.000000
0.025000 0.675000 0.000000
0.050000 -0.075000 0.000000
0.050000 -0.050000 0.000000
0.050000 -0.025000 0.000000
0.050000 0.000000 0.000000
0.050000 0.025000 0.000000
0.050000 0.050000 0.000000
0.050000 0.075000 0.000000
0.050000 0.100000 0.000000
0.050000 0.125000 0.000000
0.050000 0.150000 0.000000
0.050000 0.175000 0.000000
0.050000 0.200000 0.000000
0.050000 0.225000 0.000000
0.050000 0.250000 0.000000
0.050000 0.275000 0.000000
0.050000 0.300000 0.000000
0.050000 0.325000 0.000000
0.050000 0.350000 0.000000
0.050000 0.375000 0.000000
0.050000 0.400000 0.000000
0.050000 0.425000 0.000000
0.050000 0.450000 0.000000
0.050000 0.475000 0.000000
0.050000 0.500000 0.000000
0.050000 0.525000 0.000000
0.050000 0.550000 0.000000
0.050000 0.575000 0.000000
0.050000 0.600000 0.000000
0.050000 0.625000 0.000000
0.050000 0.650000 0.000000
0.050000 0.675000 0.000000
0.075000 -0.075000 0.000000
0.075000 -0.050000 0.000000
0.075000 -0.025000 0.000000
0.075000 0.000000 0.000000
0.075000 0.025000 0.000000
0.075000 0.050000 0.000000
0.075000 0.075000 0.000000
0.075000 0.100000 0.000000
0.075000 0.125000 0.000000
0.075000 0.150000 0.000000
0.075000 0.175000 0.000000
0.075000 0.200000 0.000000
0.075000 0.225000 0.000000
0.075000 0.250000 0.000000
0.075000 0.275000 0.000000
0.075000 0.300000 0.000000
0.075000 0.325000 0.000000
0.075000 0.350000 0.000000
0.075000 0.375000 0.000000
0.075000 0.400000 0.000000
0.075000 0.425000 0.000000
0.075000 0.450000 0.000000
0.075000 0.475000 0.000000
0.075000 0.500000 0.000000
0.075000 0.525000 0.000000
0.075000 0.550000 0.000000
0.075000 0.575000 0.000000
0.075000 0.600000 0.000000
0.075000 0.625000 0.000000
0.075000 0.650000 0.000000
0.075000 0.675000 0.000000
0.100000 -0.075000 0.000000
0.100000 -0.050000 0.000000
0.100000 -0.025000 0.000000
0.100000 0.000000 0.000000
0.100000 0.025000 0.000000
0.100000 0.050000 0.000000
0.100000 0.075000 0.000000
0.100000 0.100000 0.000000
0.100000 0.125000 0.000000
0.100000 0.150000 0.000000
0.100000 0.175000 0.000000
0.100000 0.200000 0.000000
0.100000 0.225000 0.000000
0.100000 0.250000 0.000000
0.100000 0.275000 0.000000
0.100000 0.300000 0.000000
0.100000 0.325000 0.000000
0.100000 0.350000 0.000000
0.100000 0.375000 0.000000
0.100000 0.400000 0.000000
0.100000 0.425000 0.000000
0.100000 0.450000 0.000000
0.100000 0.475000 0.000000
0.100000 0.500000 0.000000
0.100000 0.525000 0.000000
0.100000 0.550000 0.000000
0.100000 0.575000 0.000000
0.100000 0.600000 0.000000
0.100000 0.625000 0.000000
0.100000 0.650000 0.000000
0.100000 0.675000 0.000000
0.125000 -0.075000 0.000000
0.125000 -0.050000 0.000000
0.125000 -0.025000 0.000000
0.125000 0.000000 0.000000
0.125000 0.025000 0.000000
0.125000 0.050000 0.000000
0.125000 0.075000 0.000000
0.125000 0.100000 0.000000
0.125000 0.125000 0.000000
0.125000 0.150000 0.000000
0.125000 0.175000 0.000000
0.125000 0.200000 0.000000
0.125000 0.225000 0.000000
0.125000 0.250000 0.000000
0.125000 0.275000 0.000000
0.125000 0.300000 0.000000
0.125000 0.325000 0.000000
0.125000 0.350000 0.000000
0.125000 0.375000 0.000000
0.125000 0.400000 0.000000
0.125000 0.425000 0.000000
0.125000 0.450000 0.000000
0.125000 0.475000 0.000000
0.125000 0.500000 0.000000
0.125000 0.525000 0.000000
0.125000 0.550000 0.000000
0.125000 0.575000 0.000000
0.125000 0.600000 0.000000
0.125000 0.625000 0.000000
0.125000 0.650000 0.000000
0.125000 0.675000 0.000000
0.150000 -0.075000 0.000000
0.150000 -0.050000 0.000000
0.150000 -0.025000 0.000000
0.150000 0.000000 0.000000
0.150000 0.025000 0.000000
0.150000 0.050000 0.000000
0.150000 0.075000 0.000000
0.150000 0.100000 0.000000
0.150000 0.125000 0.000000
0.150000 0.150000 0.000000
0.150000 0.175000 0.000000
0.150000 0.200000 0.000000
0.150000 0.225000 0.000000
0.150000 0.250000 0.000000
0.150000 0.275000 0.000000
0.150000 0.300000 0.000000
0.150000 0.325000 0.000000
0.150000 0.350000 0.000000
0.150000 0.375000 0.000000
0.150000 0.400000 0.000000
0.150000 0.425000 0.000000
0.150000 0.450000 0.000000
0.150000 0.475000 0.000000
0.150000 0.500000 0.000000
0.150000 0.525000 0.000000
0.150000 0.550000 0.000000
0.150000 0.575000 0.000000
0.150000 0.600000 0.000000
0.150000 0.625000 0.000000
0.150000 0.650000 0.000000
0.150000 0.675000 0.000000
0.175000 -0.075000 0.000000
0.175000 -0.050000 0.000000
0.175000 -0.025000 0.000000
0.175000 0.000000 0.000000
0.175000 0.025000 0.000000
0.175000 0.050000 0.000000
0.175000 0.075000 0.000000
0.175000 0.100000 0.000000
0.175000 0.125000 0.000000
0.175000 0.150000 0.000000
0.175000 0.175000 0.000000
0.175000 0.200000 0.000000
0.175000 0.225000 0.000000
0.175000 0.250000 0.000000
0.175000 0.275000 0.000000
0.175000 0.300000 0.000000
0.175000 0.325000 0.000000
0.175000 0.350000 0.000000
0.175000 0.375000 0.000000
0.175000 0.400000 0.000000
0.175000 0.425000 0.000000
0.175000 0.450000 0.000000
0.175000 0.475000 0.000000
0.175000 0.500000 0.000000
0.175000 0.525000 0.000000
0.175000 0.550000 0.000000
0.175000 0.575000 0.000000
0.175000 0.600000 0.000000
0.175000 0.625000 0.000000
0.175000 0.650000 0.000000
0.175000 0.675000 0.000000
0.200000 -0.075000 0.000000
0.200000 -0.050000 0.000000
0.200000 -0.025000 0.000000
0.200000 0.000000 0.000000
0.200000 0.025000 0.000000
0.200000 0.050000 0.000000
0.200000 0.075000 0.000000
0.200000 0.100000 0.000000
0.200000 0.125000 0.000000
0.200000 0.150000 0.000000
0.200000 0.175000 0.000000
0.200000 0.200000 0.000000
0.200000 0.225000 0.000000
0.200000 0.250000 0.000000
[...]
<PointData>
<DataArray NumberOfComponents='1' type='Int32' Name='ParticleType' format='ascii'>
4
4
4
4
4
4
4
4
4
4
4
4
4
4
4
4
4
4
4
4
4
4
4
4
4
4
4
4
2
2
2
4
4
4
4
4
4
4
4
4
4
4
4
4
4
4
4
4
4
4
4
4
4
4
4
4
4
4
4
2
2
2
4
4
3
3
3
3
3
3
3
3
3
3
3
3
3
3
3
3
3
3
3
3
3
3
3
3
3
3
2
2
2
4
4
3
3
3
3
3
3
3
3
3
3
3
3
3
3
3
3
3
3
3
3
3
3
3
3
3
3
2
2
2
4
4
3
3
0
0
0
0
0
0
0
0
0
0
0
0
0
0
0
0
0
0
0
0
0
1
1
2
2
2
2
4
4
3
3
0
0
0
0
0
0
0
0
0
0
0
0
0
0
0
0
0
0
0
0
0
0
1
2
2
2
2
4
4
3
3
0
0
0
0
0
0
0
0
0
0
0
0
0
0
0
0
0
0
0
0
0
0
1
2
2
2
2
4
4
3
3
0
0
0
0
0
0
0
0
0
0
0
0
0
0
0
0
0
0
0
0
0
0
1
2
2
2
2
4
4
3
3
0
0
0
0
0
0
0
0
0
0
0
0
0
0
0
0
0
0
0
0
0
0
1
2
2
2
2
4
4
3
3
0
0
0
0
0
0
0
0
0
0
0
0
0
0
0
0
0
0
0
0
0
0
1
2
2
2
2
4
4
3
3
0
0
0
0
0
0
0
0
0
0
0
0
0
0
0
0
0
0
0
0
0
0
1
2
2
2
2
4
4
3
3
0
0
0
0
0
0
0
0
0
0
0
0
0
0
0
0
0
0
0
0
0
0
1
2
2
2
2
4
4
3
3
0
0
0
0
0
0
0
0
0
0
0
0
0
0
0
0
0
0
0
0
0
0
1
2
2
2
2
4
4
3
3
0
0
0
0
0
0
0
0
0
0
0
0
0
0
0
0
0
0
0
0
0
0
1
2
2
2
2
4
4
3
3
0
0
0
0
0
0
0
0
0
0
0
0
0
0
0
0
0
0
0
0
0
0
1
2
2
2
2
4
4
3
3
0
0
0
0
0
0
0
0
0
0
0
0
0
0
0
0
0
0
0
0
0
0
1
2
2
2
2
4
4
3
3
0
0
0
0
0
0
0
0
0
0
0
0
0
0
0
0
0
0
0
0
0
0
0
2
2
2
2
4
4
3
3
0
0
0
0
0
0
0
0
0
0
0
0
0
0
0
0
0
0
0
0
0
0
0
2
2
2
2
4
4
3
3
0
0
0
0
0
0
0
0
0
0
0
0
0
0
0
0
0
0
0
0
0
0
0
2
2
2
2
4
4
3
3
0
0
0
0
0
0
0
0
0
0
0
0
0
0
0
0
0
0
0
0
0
0
0
2
2
2
2
4
4
3
3
0
0
0
0
0
0
0
0
0
0
0
0
0
0
0
0
0
0
0
0
0
0
0
1
2
2
2
4
4
3
3
0
0
0
0
0
0
0
0
0
0
0
0
0
0
0
0
0
0
0
0
0
0
0
1
2
2
2
4
4
3
3
0
0
0
0
0
0
0
0
0
0
0
0
0
0
0
0
0
0
0
0
0
0
0
1
2
2
2
4
4
3
3
0
0
0
0
0
0
0
0
0
0
0
0
0
0
0
0
0
0
0
0
0
0
0
1
2
2
2
4
4
3
3
0
0
0
0
0
0
0
0
0
0
0
0
0
0
0
0
0
0
0
0
0
0
0
1
2
2
2
4
4
3
3
0
0
0
0
0
0
0
0
0
0
0
0
0
0
0
0
0
0
0
0
0
0
0
1
2
2
2
4
4
3
3
0
0
0
0
0
0
0
0
0
0
0
0
0
0
0
0
0
0
0
0
0
0
0
1
2
2
2
4
4
3
3
0
0
0
0
0
0
0
0
0
0
0
0
0
0
0
0
0
0
0
0
0
0
0
1
2
2
2
4
4
3
3
0
0
0
0
0
0
0
0
0
0
0
0
0
0
0
0
0
0
0
0
0
0
0
2
2
2
2
4
4
3
3
0
0
0
0
0
0
0
0
0
0
0
0
0
0
0
0
0
0
0
0
0
0
0
2
2
2
2
4
4
3
3
0
0
0
0
0
0
0
0
0
0
0
0
0
0
0
0
0
0
0
0
0
0
0
2
2
2
2
4
4
3
3
0
0
0
0
0
0
0
0
0
0
0
0
0
0
0
0
0
0
0
0
0
0
0
2
2
2
2
4
4
3
3
0
0
0
0
0
0
0
0
0
0
0
0
0
0
0
0
0
0
0
0
0
0
1
2
2
2
2
4
4
3
3
0
0
0
0
0
0
0
0
0
0
0
0
0
0
0
0
0
0
0
0
0
0
1
2
2
2
2
4
4
3
3
0
0
0
0
0
0
0
0
0
0
0
0
0
0
0
0
0
0
0
0
0
0
1
2
2
2
2
4
4
3
3
0
0
0
0
0
0
0
0
0
0
0
0
0
0
0
0
0
0
0
0
0
0
1
2
2
2
2
4
4
3
3
0
0
0
0
0
0
0
0
0
0
0
0
0
0
0
0
0
0
0
0
0
0
1
2
2
2
2
4
4
3
3
0
0
0
0
0
0
0
0
0
0
0
0
0
0
0
0
0
0
0
0
0
0
1
2
2
2
2
4
4
3
3
0
0
0
0
0
0
0
0
0
0
0
0
0
0
0
0
0
0
0
0
0
0
1
2
2
2
2
4
4
3
3
0
0
0
0
0
0
0
0
0
0
0
0
0
0
0
0
0
0
0
0
0
0
1
2
2
2
2
4
4
3
3
0
0
0
0
0
0
0
0
0
0
0
0
0
0
0
0
0
0
0
0
0
0
1
2
2
2
2
4
4
3
3
0
0
0
0
0
0
0
0
0
0
0
0
0
0
0
0
0
0
0
0
0
0
1
2
2
2
2
4
4
3
3
0
0
0
0
0
0
0
0
0
0
0
0
0
0
0
0
0
0
0
0
0
0
1
2
2
2
2
4
4
3
3
0
0
0
0
0
0
0
0
0
0
0
0
0
0
0
0
0
0
0
0
0
1
1
2
2
2
2
4
4
3
3
3
3
3
3
3
3
3
3
3
3
3
3
3
3
3
3
3
3
3
3
3
3
3
3
2
2
2
4
4
3
3
3
3
3
3
3
3
3
3
3
3
3
3
3
3
3
3
3
3
3
3
3
3
3
3
2
2
2
4
4
4
4
4
4
4
4
4
4
4
4
4
4
4
4
4
4
4
4
4
4
4
4
4
4
4
4
2
2
2
4
4
4
4
4
4
4
4
4
4
4
4
4
4
4
4
4
4
4
4
4
4
4
4
4
4
4
4
2
2
2
</DataArray>
<DataArray NumberOfComponents='1' type='Float32' Name='Temperature' format='ascii'>
0.000000
0.000000
0.000000
0.000000
0.000000
0.000000
0.000000
0.000000
0.000000
0.000000
0.000000
0.000000
0.000000
0.000000
0.000000
0.000000
0.000000
0.000000
0.000000
0.000000
0.000000
0.000000
0.000000
0.000000
0.000000
0.000000
0.000000
0.000000
-5.000000
-5.000000
-5.000000
0.000000
0.000000
0.000000
0.000000
0.000000
0.000000
0.000000
0.000000
0.000000
0.000000
0.000000
0.000000
0.000000
0.000000
0.000000
0.000000
0.000000
0.000000
0.000000
0.000000
0.000000
0.000000
0.000000
0.000000
0.000000
0.000000
0.000000
0.000000
-5.000000
-5.000000
-5.000000
0.000000
0.000000
0.000000
0.000000
0.000000
0.000000
0.000000
0.000000
0.000000
0.000000
0.000000
0.000000
0.000000
0.000000
0.000000
0.000000
0.000000
0.000000
0.000000
0.000000
0.000000
0.000000
0.000000
0.000000
0.000000
0.000000
0.000000
0.000000
-5.000000
-5.000000
-5.000000
0.000000
0.000000
0.000000
0.000000
0.000000
0.000000
0.000000
0.000000
0.000000
0.000000
0.000000
0.000000
0.000000
0.000000
0.000000
0.000000
0.000000
0.000000
0.000000
0.000000
0.000000
0.000000
0.000000
0.000000
0.000000
0.000000
0.000000
0.000000
-5.000000
-5.000000
-5.000000
0.000000
0.000000
0.000000
0.000000
0.155102
0.277957
0.402137
0.519757
0.630019
0.730889
0.820551
0.897204
0.959149
1.004839
1.032928
1.042313
1.032165
1.001941
0.951369
0.880433
0.789332
0.678372
0.548084
0.397265
0.231918
0.009920
0.001765
-2.128010
-5.000000
-5.000000
-5.000000
0.000000
0.000000
0.000000
0.000000
0.281170
0.503573
0.728670
0.941927
1.141947
1.325030
1.487871
1.627181
1.739854
1.823058
1.874329
1.891661
1.873557
1.819050
1.727697
1.599537
1.435048
1.234992
1.000668
0.730907
0.437594
0.031051
0.001176
-2.368404
-5.000000
-5.000000
-5.000000
0.000000
0.000000
0.000000
0.000000
0.414091
0.741758
1.073495
1.387976
1.683150
1.953555
2.194285
2.400440
2.567381
2.690870
2.767233
2.793486
2.767432
2.687693
2.553706
2.365669
2.124501
1.831700
1.489800
1.098923
0.676379
0.135122
0.002646
-2.449130
-5.000000
-5.000000
-5.000000
0.000000
0.000000
0.000000
0.000000
0.548514
0.982688
1.422493
1.839746
2.231755
2.591258
2.911694
3.186472
3.409334
3.574556
3.677182
3.713214
3.679749
3.575038
3.398472
3.150529
2.832728
2.447528
1.998970
1.489515
0.940227
0.274895
0.003995
-2.455567
-5.000000
-5.000000
-5.000000
0.000000
0.000000
0.000000
0.000000
0.685931
1.229098
1.779659
2.302476
2.794211
3.245752
3.648793
3.994947
4.276218
4.485281
4.615805
4.662720
4.622404
4.492768
4.273243
3.964699
3.569377
3.090820
2.534610
1.905701
1.227605
0.434904
0.004961
-2.442935
-5.000000
-5.000000
-5.000000
0.000000
0.000000
0.000000
0.000000
0.826389
1.481078
2.145152
2.776417
3.370896
3.917561
4.406274
4.826733
5.169071
5.424240
5.584429
5.643432
5.596890
5.442416
5.179559
4.809686
4.335851
3.762701
3.097208
2.346466
1.535356
0.609349
0.005829
-2.424047
-5.000000
-5.000000
-5.000000
0.000000
0.000000
0.000000
0.000000
0.969824
1.738519
2.518828
3.261407
3.961642
4.606531
5.184009
5.681737
6.087843
6.391423
6.583083
6.655407
6.603290
6.424081
6.117538
5.685630
5.132300
4.463261
3.686628
2.811134
1.862123
0.796107
0.007144
-2.402384
-5.000000
-5.000000
-5.000000
0.000000
0.000000
0.000000
0.000000
1.115760
2.000569
2.899448
3.755836
4.564489
5.310376
5.979417
6.557118
7.029478
7.383607
7.608424
7.695245
7.638200
7.434424
7.083980
6.589562
5.956095
5.190335
4.301260
3.298643
2.207274
0.994686
0.007917
-2.378762
-5.000000
-5.000000
-5.000000
0.000000
0.000000
0.000000
0.000000
1.263306
2.265618
3.284664
4.256635
5.175665
6.024655
6.787434
7.447259
7.987879
8.394316
8.653709
8.756049
8.694700
8.466636
8.072331
7.515359
6.801773
5.939424
4.937933
3.807457
2.570775
1.205870
0.008698
-2.352729
-5.000000
-5.000000
-5.000000
0.000000
0.000000
0.000000
0.000000
1.411123
2.531255
3.670946
4.759178
5.789471
6.742640
7.600375
8.343605
8.953752
9.413660
9.708623
9.827268
9.762197
9.510277
9.072521
8.453560
7.660798
6.703378
5.591549
4.335335
2.953380
1.432374
0.009111
-2.322187
-5.000000
-5.000000
-5.000000
0.000000
0.000000
0.000000
0.000000
1.557437
2.794275
4.053608
5.257316
6.398331
7.455383
8.408005
9.234766
9.914709
10.428457
10.759416
10.894833
10.826560
10.551420
10.071080
9.391429
8.521517
7.472159
6.254622
4.878851
3.357627
1.683761
0.009720
-2.278372
-5.000000
-5.000000
-5.000000
0.000000
0.000000
0.000000
0.000000
1.700079
3.050765
4.426921
5.743539
6.992984
8.151943
9.197813
10.106810
10.855603
11.422586
11.789280
11.941553
11.870533
11.573048
11.051520
10.313282
9.369352
8.232763
6.916670
5.432048
3.787411
1.977466
0.009862
-2.202636
-5.000000
-5.000000
-5.000000
0.000000
0.000000
0.000000
0.000000
1.836563
3.296237
4.784318
6.209235
7.562815
8.819783
9.955465
10.943785
11.759091
12.377600
12.778982
12.947766
12.874384
12.555706
11.994974
11.201089
10.187310
8.969456
7.563735
5.984536
4.240739
2.333502
0.218713
-2.070024
-5.000000
-5.000000
-5.000000
0.000000
0.000000
0.000000
0.000000
1.964190
3.525821
5.118676
6.645062
8.096316
9.445315
10.665428
11.728408
12.606393
13.273525
13.707714
13.892212
13.816794
13.478391
12.881071
12.035339
10.956825
9.664505
8.178610
6.519074
4.700836
2.741509
0.580401
-1.875917
-5.000000
-5.000000
-5.000000
0.000000
0.000000
0.000000
0.000000
2.080177
3.734498
5.422650
7.041398
8.581631
10.014544
11.311713
12.442893
13.378188
14.089826
14.554091
14.753054
14.675883
14.319570
13.688961
12.796087
11.658875
10.299471
8.742374
7.013815
5.137890
3.150904
0.988923
-1.610019
-5.000000
-5.000000
-5.000000
0.000000
0.000000
0.000000
0.000000
2.181796
3.917346
5.689048
7.388815
9.007151
10.513774
11.878675
13.069845
14.055588
14.806433
15.297220
15.508970
15.430309
15.058275
14.398396
13.464046
12.275186
10.856755
9.236966
7.447158
5.517264
3.500305
1.311306
-1.314349
-5.000000
-5.000000
-5.000000
0.000000
0.000000
0.000000
0.000000
2.266518
4.069803
5.911194
7.678572
9.362115
10.930308
12.351818
13.593153
14.621103
15.404767
15.917771
16.140247
16.060358
15.675171
14.990767
14.021614
12.789308
11.320977
9.647540
7.803520
5.821881
3.760421
1.532983
-0.009615
-5.000000
-5.000000
-5.000000
0.000000
0.000000
0.000000
0.000000
2.332139
4.187896
6.083285
7.903064
9.637165
11.253114
12.718547
13.998819
15.059541
15.868699
16.398967
16.629784
16.548947
16.153531
15.450032
14.453730
13.187416
11.679744
9.963358
8.074349
6.046316
3.938193
1.660443
-0.009420
-5.000000
-5.000000
-5.000000
0.000000
0.000000
0.000000
0.000000
2.376901
4.268454
6.200685
8.056223
9.824832
11.473385
12.968812
14.275680
15.358792
16.185370
16.727439
16.963959
16.882474
16.480059
15.763480
14.748546
13.458811
11.923855
10.177286
8.255880
6.193254
4.047601
1.730702
-0.008889
-5.000000
-5.000000
-5.000000
0.000000
0.000000
0.000000
0.000000
2.399580
4.309269
6.260167
8.133825
9.919920
11.584995
13.095623
14.415970
15.510431
16.345840
16.893893
17.133306
17.051494
16.645533
15.922316
14.897909
13.596217
12.047228
10.284925
8.346313
6.265035
4.098781
1.760237
-0.008178
-5.000000
-5.000000
-5.000000
0.000000
0.000000
0.000000
0.000000
2.399548
4.309210
6.260079
8.133705
9.919766
11.584807
13.095400
14.415715
15.510147
16.345533
16.893572
17.132982
17.051179
16.645240
15.922056
14.897675
13.595961
12.046805
10.284022
8.344420
6.261648
4.094213
1.756129
-0.008179
-5.000000
-5.000000
-5.000000
0.000000
0.000000
0.000000
0.000000
2.376807
4.268280
6.200424
8.055868
9.824378
11.472829
12.968154
14.274925
15.357952
16.184463
16.726491
16.963003
16.881547
16.479204
15.762726
14.747876
13.458065
11.922551
10.174316
8.249220
6.180304
4.028903
1.712875
-0.008908
-5.000000
-5.000000
-5.000000
0.000000
0.000000
0.000000
0.000000
2.331987
4.187615
6.082863
7.902491
9.636431
11.252214
12.717482
13.997598
15.058183
15.867233
16.397436
16.628243
16.547462
16.152175
15.448861
14.452716
13.186272
11.677538
9.957788
8.060538
6.016472
3.886694
1.594412
-0.009590
-5.000000
-5.000000
-5.000000
0.000000
0.000000
0.000000
0.000000
2.266314
4.069428
5.910630
7.677806
9.361134
10.929106
12.350394
13.591520
14.619285
15.402807
15.915727
16.138197
16.058399
15.673412
14.989301
14.020419
12.787978
11.318080
9.639266
7.780873
5.768387
3.646969
1.359067
-0.008820
-5.000000
-5.000000
-5.000000
0.000000
0.000000
0.000000
0.000000
2.181552
3.916896
5.688368
7.387892
9.005968
10.512322
11.876955
13.067871
14.053393
14.804066
15.294757
15.506510
15.427982
15.056236
14.396791
13.462893
12.274030
10.853799
9.227135
7.417672
5.441710
3.322094
0.997903
-1.503910
-5.000000
-5.000000
-5.000000
0.000000
0.000000
0.000000
0.000000
2.079902
3.733991
5.421887
7.040359
8.580299
10.012908
11.309773
12.440665
13.375710
14.087157
14.551320
14.750301
14.673312
14.317385
13.687380
12.795216
11.658340
10.297458
8.733488
6.984194
5.058521
2.958588
0.644684
-1.813815
-5.000000
-5.000000
-5.000000
0.000000
0.000000
0.000000
0.000000
1.963898
3.525283
5.117862
6.643955
8.094893
9.443565
10.663351
11.726022
12.603738
13.270668
13.704755
13.889291
13.814103
13.476186
12.879650
12.034941
10.957289
9.664402
8.173380
6.497168
4.640050
2.598639
0.344002
-2.017584
-5.000000
-5.000000
-5.000000
0.000000
0.000000
0.000000
0.000000
1.836267
3.295689
4.783490
6.208105
7.561363
8.817994
9.953338
10.941340
11.756370
12.374672
12.775956
12.944796
12.871687
12.553580
11.993793
11.201233
10.188901
8.971681
7.563530
5.974271
4.207262
2.259165
0.103728
-2.149969
-5.000000
-5.000000
-5.000000
0.000000
0.000000
0.000000
0.000000
1.699791
3.050231
4.426113
5.742434
6.991560
8.150186
9.195721
10.104402
10.852920
11.419702
11.786303
11.938646
11.867926
11.571064
11.050588
10.313892
9.371874
8.236980
6.920938
5.432222
3.777217
1.951581
0.009873
-2.236186
-5.000000
-5.000000
-5.000000
0.000000
0.000000
0.000000
0.000000
1.557167
2.793775
4.052849
5.256277
6.396988
7.453721
8.406023
9.232479
9.912159
10.425715
10.756591
10.892084
10.824118
10.549612
10.070349
9.392314
8.524531
7.477473
6.261531
4.885209
3.360464
1.680356
0.009660
-2.289161
-5.000000
-5.000000
-5.000000
0.000000
0.000000
0.000000
0.000000
1.410880
2.530804
3.670261
4.758235
5.788250
6.741125
7.598563
8.341511
8.951413
9.411143
9.706030
9.824750
9.759971
9.508651
9.071914
8.454492
7.663802
6.708776
5.599076
4.343751
2.960621
1.436354
0.009397
-2.324665
-5.000000
-5.000000
-5.000000
0.000000
0.000000
0.000000
0.000000
1.263096
2.265228
3.284068
4.255813
5.174595
6.023322
6.785836
7.445406
7.985806
8.392082
8.651406
8.753813
8.692724
8.465190
8.071781
7.516152
6.804371
5.944138
4.944630
3.815273
2.578011
1.210657
0.008556
-2.353060
-5.000000
-5.000000
-5.000000
0.000000
0.000000
0.000000
0.000000
1.115586
2.000243
2.898949
3.755144
4.563585
5.309246
5.978056
6.555537
7.027703
7.381691
7.606445
7.693318
7.636490
7.433154
7.083444
6.590112
5.958083
5.193987
4.306462
3.304742
2.212973
0.998583
0.007910
-2.378532
-5.000000
-5.000000
-5.000000
0.000000
0.000000
0.000000
0.000000
0.969685
1.738258
2.518426
3.260847
3.960906
4.605607
5.182892
5.680433
6.086376
6.389833
6.581436
6.653798
6.601848
6.422982
6.117005
5.685919
5.133653
4.465817
3.690275
2.815390
1.866091
0.798850
0.007145
-2.402067
-5.000000
-5.000000
-5.000000
0.000000
0.000000
0.000000
0.000000
0.826282
1.480876
2.144840
2.775980
3.370319
3.916833
4.405389
4.825695
5.167899
5.422965
5.583104
5.642128
5.595709
5.441486
5.179042
4.809756
4.336664
3.764330
3.099556
2.349201
1.537908
0.611149
0.006261
-2.423751
-5.000000
-5.000000
-5.000000
0.000000
0.000000
0.000000
0.000000
0.685852
1.228948
1.779426
2.302148
2.793775
3.245198
3.648116
3.994151
4.275314
4.484293
4.614773
4.661698
4.621464
4.492003
4.272763
3.964618
3.569790
3.091762
2.536007
1.907339
1.229141
0.436006
0.005233
-2.442715
-5.000000
-5.000000
-5.000000
0.000000
0.000000
0.000000
0.000000
0.548458
0.982581
1.422325
1.839509
2.231438
2.590853
2.911196
3.185883
3.408663
3.573820
3.676408
3.712441
3.679028
3.574431
3.398052
3.150368
2.832882
2.448013
1.999734
1.490430
0.941092
0.275522
0.004078
-2.455429
-5.000000
-5.000000
-5.000000
0.000000
0.000000
0.000000
0.000000
0.414052
0.741685
1.073380
1.387812
1.682929
1.953271
2.193935
2.400025
2.566906
2.690346
2.766679
2.792928
2.766903
2.687235
2.553363
2.365486
2.124510
1.831908
1.490176
1.099394
0.676833
0.135452
0.002565
-2.449052
-5.000000
-5.000000
-5.000000
0.000000
0.000000
0.000000
0.000000
0.281145
0.503525
0.728596
0.941821
1.141804
1.324846
1.487644
1.626911
1.739545
1.822715
1.873965
1.891291
1.873201
1.818734
1.727447
1.599378
1.434997
1.235054
1.000826
0.731121
0.437807
0.031216
0.001492
-2.368355
-5.000000
-5.000000
-5.000000
0.000000
0.000000
0.000000
0.000000
0.155088
0.277931
0.402095
0.519699
0.629941
0.730788
0.820426
0.897055
0.958979
1.004650
1.032726
1.042107
1.031965
1.001759
0.951219
0.880327
0.789279
0.678373
0.548134
0.397343
0.231997
0.009936
0.001587
-2.127998
-5.000000
-5.000000
-5.000000
0.000000
0.000000
0.000000
0.000000
0.000000
0.000000
0.000000
0.000000
0.000000
0.000000
0.000000
0.000000
0.000000
0.000000
0.000000
0.000000
0.000000
0.000000
0.000000
0.000000
0.000000
0.000000
0.000000
0.000000
0.000000
0.000000
0.000000
0.000000
-5.000000
-5.000000
-5.000000
0.000000
0.000000
0.000000
0.000000
0.000000
0.000000
0.000000
0.000000
0.000000
0.000000
0.000000
0.000000
0.000000
0.000000
0.000000
0.000000
0.000000
0.000000
0.000000
0.000000
0.000000
0.000000
0.000000
0.000000
0.000000
0.000000
0.000000
0.000000
-5.000000
-5.000000
-5.000000
0.000000
0.000000
0.000000
0.000000
0.000000
0.000000
0.000000
0.000000
0.000000
0.000000
0.000000
0.000000
0.000000
0.000000
0.000000
0.000000
0.000000
0.000000
0.000000
0.000000
0.000000
0.000000
0.000000
0.000000
0.000000
0.000000
0.000000
0.000000
-5.000000
-5.000000
-5.000000
0.000000
0.000000
0.000000
0.000000
0.000000
0.000000
0.000000
0.000000
0.000000
0.000000
0.000000
0.000000
0.000000
0.000000
0.000000
0.000000
0.000000
0.000000
0.000000
0.000000
0.000000
0.000000
0.000000
0.000000
0.000000
0.000000
0.000000
0.000000
-5.000000
-5.000000
-5.000000
</DataArray>
</PointData>
<Cells>
<DataArray type='Int32' Name='connectivity' format='ascii'>
0
1
2
3
4
5
6
7
8
9
10
11
12
13
14
15
16
17
18
19
20
21
22
23
24
25
26
27
28
29
30
31
32
33
34
35
36
37
38
39
40
41
42
43
44
45
46
47
48
49
50
51
52
53
54
55
56
57
58
59
60
61
62
63
64
65
66
67
68
69
70
71
72
73
74
75
76
77
78
79
80
81
82
83
84
85
86
87
88
89
90
91
92
93
94
95
96
97
98
99
100
101
102
103
104
105
106
107
108
109
110
111
112
113
114
115
116
117
118
119
120
121
122
123
124
125
126
127
128
129
130
131
132
133
134
135
136
137
138
139
140
141
142
143
144
145
146
147
148
149
150
151
152
153
154
155
156
157
158
159
160
161
162
163
164
165
166
167
168
169
170
171
172
173
174
175
176
177
178
179
180
181
182
183
184
185
186
187
188
189
190
191
192
193
194
195
196
197
198
199
200
201
202
203
204
205
206
207
208
209
210
211
212
213
214
215
216
217
218
219
220
221
222
223
224
225
226
227
228
229
230
231
232
233
234
235
236
237
238
239
240
241
242
243
244
245
246
247
248
249
250
251
252
253
254
255
256
257
258
259
260
261
262
263
264
265
266
267
268
269
270
271
272
273
274
275
276
277
278
279
280
281
282
283
284
285
286
287
288
289
290
291
292
293
294
295
296
297
298
299
300
301
302
303
304
305
306
307
308
309
310
311
312
313
314
315
316
317
318
319
320
321
322
323
324
325
326
327
328
329
330
331
332
333
334
335
336
337
338
339
340
341
342
343
344
345
346
347
348
349
350
351
352
353
354
355
356
357
358
359
360
361
362
363
364
365
366
367
368
369
370
371
372
373
374
375
376
377
378
379
380
381
382
383
384
385
386
387
388
389
390
391
392
393
394
395
396
397
398
399
400
401
402
403
404
405
406
407
408
409
410
411
412
413
414
415
416
417
418
419
420
421
422
423
424
425
426
427
428
429
430
431
432
433
434
435
436
437
438
439
440
441
442
443
444
445
446
447
448
449
450
451
452
453
454
455
456
457
458
459
460
461
462
463
464
465
466
467
468
469
470
471
472
473
474
475
476
477
478
479
480
481
482
483
484
485
486
487
488
489
490
491
492
493
494
495
496
497
498
499
500
501
502
503
504
505
506
507
508
509
510
511
512
513
514
515
516
517
518
519
520
521
522
523
524
525
526
527
528
529
530
531
532
533
534
535
536
537
538
539
540
541
542
543
544
545
546
547
548
549
550
551
552
553
554
555
556
557
558
559
560
561
562
563
564
565
566
567
568
569
570
571
572
573
574
575
576
577
578
579
580
581
582
583
584
585
586
587
588
589
590
591
592
593
594
595
596
597
598
599
600
601
602
603
604
605
606
607
608
609
610
611
612
613
614
615
616
617
618
619
620
621
622
623
624
625
626
627
628
629
630
631
632
633
634
635
636
637
638
639
640
641
642
643
644
645
646
647
648
649
650
651
652
653
654
655
656
657
658
659
660
661
662
663
664
665
666
667
668
669
670
671
672
673
674
675
676
677
678
679
680
681
682
683
684
685
686
687
688
689
690
691
692
693
694
695
696
697
698
699
700
701
702
703
704
705
706
707
708
709
710
711
712
713
714
715
716
717
718
719
720
721
722
723
724
725
726
727
728
729
730
731
732
733
734
735
736
737
738
739
740
741
742
743
744
745
746
747
748
749
750
751
752
753
754
755
756
757
758
759