<?xml version='1.0' encoding='UTF-8'?>
<VTKFile xmlns='VTK' byte_order='LittleEndian' version='0.1' type='UnstructuredGrid'>
<UnstructuredGrid>
<Piece NumberOfCells='1488' NumberOfPoints='1488'>
<Points>
<DataArray NumberOfComponents='3' type='Float32' Name='Position' format='ascii'>
-0.075000 -0.075000 0.000000
-0.075000 -0.050000 0.000000
-0.075000 -0.025000 0.000000
-0.075000 0.000000 0.000000
-0.075000 0.025000 0.000000
-0.075000 0.050000 0.000000
-0.075000 0.075000 0.000000
-0.075000 0.100000 0.000000
-0.075000 0.125000 0.000000
-0.075000 0.150000 0.000000
-0.075000 0.175000 0.000000
-0.075000 0.200000 0.000000
-0.075000 0.225000 0.000000
-0.075000 0.250000 0.000000
-0.075000 0.275000 0.000000
-0.075000 0.300000 0.000000
-0.075000 0.325000 0.000000
-0.075000 0.350000 0.000000
-0.075000 0.375000 0.000000
-0.075000 0.400000 0.000000
-0.075000 0.425000 0.000000
-0.075000 0.450000 0.000000
-0.075000 0.475000 0.000000
-0.075000 0.500000 0.000000
-0.075000 0.525000 0.000000
-0.075000 0.550000 0.000000
-0.075000 0.575000 0.000000
-0.075000 0.600000 0.000000
-0.075000 0.625000 0.000000
-0.075000 0.650000 0.000000
-0.075000 0.675000 0.000000
-0.050000 -0.075000 0.000000
-0.050000 -0.050000 0.000000
-0.050000 -0.025000 0.000000
-0.050000 0.000000 0.000000
-0.050000 0.025000 0.000000
-0.050000 0.050000 0.000000
-0.050000 0.075000 0.000000
-0.050000 0.100000 0.000000
-0.050000 0.125000 0.000000
-0.050000 0.150000 0.000000
-0.050000 0.175000 0.000000
-0.050000 0.200000 0.000000
-0.050000 0.225000 0.000000
-0.050000 0.250000 0.000000
-0.050000 0.275000 0.000000
-0.050000 0.300000 0.000000
-0.050000 0.325000 0.000000
-0.050000 0.350000 0.000000
-0.050000 0.375000 0.000000
-0.050000 0.400000 0.000000
-0.050000 0.425000 0.000000
-0.050000 0.450000 0.000000
-0.050000 0.475000 0.000000
-0.050000 0.500000 0.000000
-0.050000 0.525000 0.000000
-0.050000 0.550000 0.000000
-0.050000 0.575000 0.000000
-0.050000 0.600000 0.000000
-0.050000 0.625000 0.000000
-0.050000 0.650000 0.000000
-0.050000 0.675000 0.000000
-0.025000 -0.075000 0.000000
-0.025000 -0.050000 0.000000
-0.025000 -0.025000 0.000000
-0.025000 0.000000 0.000000
-0.025000 0.025000 0.000000
-0.025000 0.050000 0.000000
-0.025000 0.075000 0.000000
-0.025000 0.100000 0.000000
-0.025000 0.125000 0.000000
-0.025000 0.150000 0.000000
-0.025000 0.175000 0.000000
-0.025000 0.200000 0.000000
-0.025000 0.225000 0.000000
-0.025000 0.250000 0.000000
-0.025000 0.275000 0.000000
-0.025000 0.300000 0.000000
-0.025000 0.325000 0.000000
-0.025000 0.350000 0.000000
-0.025000 0.375000 0.000000
-0.025000 0.400000 0.000000
-0.025000 0.425000 0.000000
-0.025000 0.450000 0.000000
-0.025000 0.475000 0.000000
-0.025000 0.500000 0.000000
-0.025000 0.525000 0.000000
-0.025000 0.550000 0.000000
-0.025000 0.575000 0.000000
-0.025000 0.600000 0.000000
-0.025000 0.625000 0.000000
-0.025000 0.650000 0.000000
-0.025000 0.675000 0.000000
0.000000 -0.075000 0.000000
0.000000 -0.050000 0.000000
0.000000 -0.025000 0.000000
0.000000 0.000000 0.000000
0.000000 0.025000 0.000000
0.000000 0.050000 0.000000
0.000000 0.075000 0.000000
0.000000 0.100000 0.000000
0.000000 0.125000 0.000000
0.000000 0.150000 0.000000
0.000000 0.175000 0.000000
0.000000 0.200000 0.000000
0.000000 0.225000 0.000000
0.000000 0.250000 0.000000
0.000000 0.275000 0.000000
0.000000 0.300000 0.000000
0.000000 0.325000 0.000000
0.000000 0.350000 0.000000
0.000000 0.375000 0.000000
0.000000 0.400000 0.000000
0.000000 0.425000 0.000000
0.000000 0.450000 0.000000
0.000000 0.475000 0.000000
0.000000 0.500000 0.000000
0.000000 0.525000 0.000000
0.000000 0.550000 0.000000
0.000000 0.575000 0.000000
0.000000 0.600000 0.000000
0.000000 0.625000 0.000000
0.000000 0.650000 0.000000
0.000000 0.675000 0.000000
0.025000 -0.075000 0.000000
0.025000 -0.050000 0.000000
0.025000 -0.025000 0.000000
0.025000 0.000000 0.000000
0.025000 0.025000 0.000000
0.025000 0.050000 0.000000
0.025000 0.075000 0.000000
0.025000 0.100000 0.000000
0.025000 0.125000 0.000000
0.025000 0.150000 0.000000
0.025000 0.175000 0.000000
0.025000 0.200000 0.000000
0.025000 0.225000 0.000000
0.025000 0.250000 0.000000
0.025000 0.275000 0.000000
0.025000 0.300000 0.000000
0.025000 0.325000 0.000000
0.025000 0.350000 0.000000
0.025000 0.375000 0.000000
0.025000 0.400000 0.000000
0.025000 0.425000 0.000000
0.025000 0.450000 0.000000
0.025000 0.475000 0.000000
0.025000 0.500000 0.000000
0.025000 0.525000 0.000000
0.025000 0.550000 0.000000
0.025000 0.575000 0.000000
0.025000 0.600000 0.000000
0.025000 0.625000 0.000000
0.025000 0.650000 0.000000
0.025000 0.675000 0.000000
0.050000 -0.075000 0.000000
0.050000 -0.050000 0.000000
0.050000 -0.025000 0.000000
0.050000 0.000000 0.000000
0.050000 0.025000 0.000000
0.050000 0.050000 0.000000
0.050000 0.075000 0.000000
0.050000 0.100000 0.000000
0.050000 0.125000 0.000000
0.050000 0.150000 0.000000
0.050000 0.175000 0.000000
0.050000 0.200000 0.000000
0.050000 0.225000 0.000000
0.050000 0.250000 0.000000
0.050000 0.275000 0.000000
0.050000 0.300000 0.000000
0.050000 0.325000 0.000000
0.050000 0.350000 0.000000
0.050000 0.375000 0.000000
0.050000 0.400000 0.000000
0.050000 0.425000 0.000000
0.050000 0.450000 0.000000
0.050000 0.475000 0.000000
0.050000 0.500000 0.000000
0.050000 0.525000 0.000000
0.050000 0.550000 0.000000
0.050000 0.575000 0.000000
0.050000 0.600000 0.000000
0.050000 0.625000 0.000000
0.050000 0.650000 0.000000
0.050000 0.675000 0.000000
0.075000 -0.075000 0.000000
0.075000 -0.050000 0.000000
0.075000 -0.025000 0.000000
0.075000 0.000000 0.000000
0.075000 0.025000 0.000000
0.075000 0.050000 0.000000
0.075000 0.075000 0.000000
0.075000 0.100000 0.000000
0.075000 0.125000 0.000000
0.075000 0.150000 0.000000
0.075000 0.175000 0.000000
0.075000 0.200000 0.000000
0.075000 0.225000 0.000000
0.075000 0.250000 0.000000
0.075000 0.275000 0.000000
0.075000 0.300000 0.000000
0.075000 0.325000 0.000000
0.075000 0.350000 0.000000
0.075000 0.375000 0.000000
0.075000 0.400000 0.000000
0.075000 0.425000 0.000000
0.075000 0.450000 0.000000
0.075000 0.475000 0.000000
0.075000 0.500000 0.000000
0.075000 0.525000 0.000000
0.075000 0.550000 0.000000
0.075000 0.575000 0.000000
0.075000 0.600000 0.000000
0.075000 0.625000 0.000000
0.075000 0.650000 0.000000
0.075000 0.675000 0.000000
0.100000 -0.075000 0.000000
0.100000 -0.050000 0.000000
0.100000 -0.025000 0.000000
0.100000 0.000000 0.000000
0.100000 0.025000 0.000000
0.100000 0.050000 0.000000
0.100000 0.075000 0.000000
0.100000 0.100000 0.000000
0.100000 0.125000 0.000000
0.100000 0.150000 0.000000
0.100000 0.175000 0.000000
0.100000 0.200000 0.000000
0.100000 0.225000 0.000000
0.100000 0.250000 0.000000
0.100000 0.275000 0.000000
0.100000 0.300000 0.000000
0.100000 0.325000 0.000000
0.100000 0.350000 0.000000
0.100000 0.375000 0.000000
0.100000 0.400000 0.000000
0.100000 0.425000 0.000000
0.100000 0.450000 0.000000
0.100000 0.475000 0.000000
0.100000 0.500000 0.000000
0.100000 0.525000 0.000000
0.100000 0.550000 0.000000
0.100000 0.575000 0.000000
0.100000 0.600000 0.000000
0.100000 0.625000 0.000000
0.100000 0.650000 0.000000
0.100000 0.675000 0.000000
0.125000 -0.075000 0.000000
0.125000 -0.050000 0.000000
0.125000 -0.025000 0.000000
0.125000 0.000000 0.000000
0.125000 0.025000 0.000000
0.125000 0.050000 0.000000
0.125000 0.075000 0.000000
0.125000 0.100000 0.000000
0.125000 0.125000 0.000000
0.125000 0.150000 0.000000
0.125000 0.175000 0.000000
0.125000 0.200000 0.000000
0.125000 0.225000 0.000000
0.125000 0.250000 0.000000
0.125000 0.275000 0.000000
0.125000 0.300000 0.000000
0.125000 0.325000 0.000000
0.125000 0.350000 0.000000
0.125000 0.375000 0.000000
0.125000 0.400000 0.000000
0.125000 0.425000 0.000000
0.125000 0.450000 0.000000
0.125000 0.475000 0.000000
0.125000 0.500000 0.000000
0.125000 0.525000 0.000000
0.125000 0.550000 0.000000
0.125000 0.575000 0.000000
0.125000 0.600000 0.000000
0.125000 0.625000 0.000000
0.125000 0.650000 0.000000
0.125000 0.675000 0.000000
0.150000 -0.075000 0.000000
0.150000 -0.050000 0.000000
0.150000 -0.025000 0.000000
0.150000 0.000000 0.000000
0.150000 0.025000 0.000000
0.150000 0.050000 0.000000
0.150000 0.075000 0.000000
0.150000 0.100000 0.000000
0.150000 0.125000 0.000000
0.150000 0.150000 0.000000
0.150000 0.175000 0.000000
0.150000 0.200000 0.000000
0.150000 0.225000 0.000000
0.150000 0.250000 0.000000
0.150000 0.275000 0.000000
0.150000 0.300000 0.000000
0.150000 0.325000 0.000000
0.150000 0.350000 0.000000
0.150000 0.375000 0.000000
0.150000 0.400000 0.000000
0.150000 0.425000 0.000000
0.150000 0.450000 0.000000
0.150000 0.475000 0.000000
0.150000 0.500000 0.000000
0.150000 0.525000 0.000000
0.150000 0.550000 0.000000
0.150000 0.575000 0.000000
0.150000 0.600000 0.000000
0.150000 0.625000 0.000000
0.150000 0.650000 0.000000
0.150000 0.675000 0.000000
0.175000 -0.075000 0.000000
0.175000 -0.050000 0.000000
0.175000 -0.025000 0.000000
0.175000 0.000000 0.000000
0.175000 0.025000 0.000000
0.175000 0.050000 0.000000
0.175000 0.075000 0.000000
0.175000 0.100000 0.000000
0.175000 0.125000 0.000000
0.175000 0.150000 0.000000
0.175000 0.175000 0.000000
0.175000 0.200000 0.000000
0.175000 0.225000 0.000000
0.175000 0.250000 0.000000
0.175000 0.275000 0.000000
0.175000 0.300000 0.000000
0.175000 0.325000 0.000000
0.175000 0.350000 0.000000
0.175000 0.375000 0.000000
0.175000 0.400000 0.000000
0.175000 0.425000 0.000000
0.175000 0.450000 0.000000
0.175000 0.475000 0.000000
0.175000 0.500000 0.000000
0.175000 0.525000 0.000000
0.175000 0.550000 0.000000
0.175000 0.575000 0.000000
0.175000 0.600000 0.000000
0.175000 0.625000 0.000000
0.175000 0.650000 0.000000
0.175000 0.675000 0.000000
0.200000 -0.075000 0.000000
0.200000 -0.050000 0.000000
0.200000 -0.025000 0.000000
0.200000 0.000000 0.000000
0.200000 0.025000 0.000000
0.200000 0.050000 0.000000
0.200000 0.075000 0.000000
0.200000 0.100000 0.000000
0.200000 0.125000 0.000000
0.200000 0.150000 0.000000
0.200000 0.175000 0.000000
0.200000 0.200000 0.000000
0.200000 0.225000 0.000000
0.200000 0.250000 0.000000
[...]
<PointData>
<DataArray NumberOfComponents='1' type='Int32' Name='ParticleType' format='ascii'>
4
4
4
4
4
4
4
4
4
4
4
4
4
4
4
4
4
4
4
4
4
4
4
4
4
4
4
4
2
2
2
4
4
4
4
4
4
4
4
4
4
4
4
4
4
4
4
4
4
4
4
4
4
4
4
4
4
4
4
2
2
2
4
4
3
3
3
3
3
3
3
3
3
3
3
3
3
3
3
3
3
3
3
3
3
3
3
3
3
3
2
2
2
4
4
3
3
3
3
3
3
3
3
3
3
3
3
3
3
3
3
3
3
3
3
3
3
3
3
3
3
2
2
2
4
4
3
3
0
0
0
0
0
0
0
0
0
0
0
0
0
0
0
0
0
0
0
0
0
1
1
2
2
2
2
4
4
3
3
0
0
0
0
0
0
0
0
0
0
0
0
0
0
0
0
0
0
0
0
0
0
1
2
2
2
2
4
4
3
3
0
0
0
0
0
0
0
0
0
0
0
0
0
0
0
0
0
0
0
0
0
0
1
2
2
2
2
4
4
3
3
0
0
0
0
0
0
0
0
0
0
0
0
0
0
0
0
0
0
0
0
0
0
1
2
2
2
2
4
4
3
3
0
0
0
0
0
0
0
0
0
0
0
0
0
0
0
0
0
0
0
0
0
0
1
2
2
2
2
4
4
3
3
0
0
0
0
0
0
0
0
0
0
0
0
0
0
0
0
0
0
0
0
0
0
1
2
2
2
2
4
4
3
3
0
0
0
0
0
0
0
0
0
0
0
0
0
0
0
0
0
0
0
0
0
0
1
2
2
2
2
4
4
3
3
0
0
0
0
0
0
0
0
0
0
0
0
0
0
0
0
0
0
0
0
0
0
1
2
2
2
2
4
4
3
3
0
0
0
0
0
0
0
0
0
0
0
0
0
0
0
0
0
0
0
0
0
0
1
2
2
2
2
4
4
3
3
0
0
0
0
0
0
0
0
0
0
0
0
0
0
0
0
0
0
0
0
0
0
0
2
2
2
2
4
4
3
3
0
0
0
0
0
0
0
0
0
0
0
0
0
0
0
0
0
0
0
0
0
0
0
2
2
2
2
4
4
3
3
0
0
0
0
0
0
0
0
0
0
0
0
0
0
0
0
0
0
0
0
0
0
0
2
2
2
2
4
4
3
3
0
0
0
0
0
0
0
0
0
0
0
0
0
0
0
0
0
0
0
0
0
0
0
1
2
2
2
4
4
3
3
0
0
0
0
0
0
0
0
0
0
0
0
0
0
0
0
0
0
0
0
0
0
0
1
2
2
2
4
4
3
3
0
0
0
0
0
0
0
0
0
0
0
0
0
0
0
0
0
0
0
0
0
0
0
1
2
2
2
4
4
3
3
0
0
0
0
0
0
0
0
0
0
0
0
0
0
0
0
0
0
0
0
0
0
0
1
2
2
2
4
4
3
3
0
0
0
0
0
0
0
0
0
0
0
0
0
0
0
0
0
0
0
0
0
0
0
1
2
2
2
4
4
3
3
0
0
0
0
0
0
0
0
0
0
0
0
0
0
0
0
0
0
0
0
0
0
0
1
2
2
2
4
4
3
3
0
0
0
0
0
0
0
0
0
0
0
0
0
0
0
0
0
0
0
0
0
0
0
1
2
2
2
4
4
3
3
0
0
0
0
0
0
0
0
0
0
0
0
0
0
0
0
0
0
0
0
0
0
0
1
2
2
2
4
4
3
3
0
0
0
0
0
0
0
0
0
0
0
0
0
0
0
0
0
0
0
0
0
0
0
1
2
2
2
4
4
3
3
0
0
0
0
0
0
0
0
0
0
0
0
0
0
0
0
0
0
0
0
0
0
0
1
2
2
2
4
4
3
3
0
0
0
0
0
0
0
0
0
0
0
0
0
0
0
0
0
0
0
0
0
0
0
1
2
2
2
4
4
3
3
0
0
0
0
0
0
0
0
0
0
0
0
0
0
0
0
0
0
0
0
0
0
0
1
2
2
2
4
4
3
3
0
0
0
0
0
0
0
0
0
0
0
0
0
0
0
0
0
0
0
0
0
0
0
1
2
2
2
4
4
3
3
0
0
0
0
0
0
0
0
0
0
0
0
0
0
0
0
0
0
0
0
0
0
0
1
2
2
2
4
4
3
3
0
0
0
0
0
0
0
0
0
0
0
0
0
0
0
0
0
0
0
0
0
0
0
1
2
2
2
4
4
3
3
0
0
0
0
0
0
0
0
0
0
0
0
0
0
0
0
0
0
0
0
0
0
0
1
2
2
2
4
4
3
3
0
0
0
0
0
0
0
0
0
0
0
0
0
0
0
0
0
0
0
0
0
0
0
1
2
2
2
4
4
3
3
0
0
0
0
0
0
0
0
0
0
0
0
0
0
0
0
0
0
0
0
0
0
0
2
2
2
2
4
4
3
3
0
0
0
0
0
0
0
0
0
0
0
0
0
0
0
0
0
0
0
0
0
0
0
2
2
2
2
4
4
3
3
0
0
0
0
0
0
0
0
0
0
0
0
0
0
0
0
0
0
0
0
0
0
1
2
2
2
2
4
4
3
3
0
0
0
0
0
0
0
0
0
0
0
0
0
0
0
0
0
0
0
0
0
0
1
2
2
2
2
4
4
3
3
0
0
0
0
0
0
0
0
0
0
0
0
0
0
0
0
0
0
0
0
0
0
1
2
2
2
2
4
4
3
3
0
0
0
0
0
0
0
0
0
0
0
0
0
0
0
0
0
0
0
0
0
0
1
2
2
2
2
4
4
3
3
0
0
0
0
0
0
0
0
0
0
0
0
0
0
0
0
0
0
0
0
0
0
1
2
2
2
2
4
4
3
3
0
0
0
0
0
0
0
0
0
0
0
0
0
0
0
0
0
0
0
0
0
0
1
2
2
2
2
4
4
3
3
0
0
0
0
0
0
0
0
0
0
0
0
0
0
0
0
0
0
0
0
0
0
1
2
2
2
2
4
4
3
3
0
0
0
0
0
0
0
0
0
0
0
0
0
0
0
0
0
0
0
0
0
0
1
2
2
2
2
4
4
3
3
0
0
0
0
0
0
0
0
0
0
0
0
0
0
0
0
0
0
0
0
0
1
1
2
2
2
2
4
4
3
3
3
3
3
3
3
3
3
3
3
3
3
3
3
3
3
3
3
3
3
3
3
3
3
3
2
2
2
4
4
3
3
3
3
3
3
3
3
3
3
3
3
3
3
3
3
3
3
3
3
3
3
3
3
3
3
2
2
2
4
4
4
4
4
4
4
4
4
4
4
4
4
4
4
4
4
4
4
4
4
4
4
4
4
4
4
4
2
2
2
4
4
4
4
4
4
4
4
4
4
4
4
4
4
4
4
4
4
4
4
4
4
4
4
4
4
4
4
2
2
2
</DataArray>
<DataArray NumberOfComponents='1' type='Float32' Name='Temperature' format='ascii'>
0.000000
0.000000
0.000000
0.000000
0.000000
0.000000
0.000000
0.000000
0.000000
0.000000
0.000000
0.000000
0.000000
0.000000
0.000000
0.000000
0.000000
0.000000
0.000000
0.000000
0.000000
0.000000
0.000000
0.000000
0.000000
0.000000
0.000000
0.000000
-5.000000
-5.000000
-5.000000
0.000000
0.000000
0.000000
0.000000
0.000000
0.000000
0.000000
0.000000
0.000000
0.000000
0.000000
0.000000
0.000000
0.000000
0.000000
0.000000
0.000000
0.000000
0.000000
0.000000
0.000000
0.000000
0.000000
0.000000
0.000000
0.000000
0.000000
0.000000
-5.000000
-5.000000
-5.000000
0.000000
0.000000
0.000000
0.000000
0.000000
0.000000
0.000000
0.000000
0.000000
0.000000
0.000000
0.000000
0.000000
0.000000
0.000000
0.000000
0.000000
0.000000
0.000000
0.000000
0.000000
0.000000
0.000000
0.000000
0.000000
0.000000
0.000000
0.000000
-5.000000
-5.000000
-5.000000
0.000000
0.000000
0.000000
0.000000
0.000000
0.000000
0.000000
0.000000
0.000000
0.000000
0.000000
0.000000
0.000000
0.000000
0.000000
0.000000
0.000000
0.000000
0.000000
0.000000
0.000000
0.000000
0.000000
0.000000
0.000000
0.000000
0.000000
0.000000
-5.000000
-5.000000
-5.000000
0.000000
0.000000
0.000000
0.000000
0.162641
0.291287
0.421054
0.543643
0.658259
0.762888
0.855797
0.935292
0.999787
1.047834
1.078163
1.089733
1.081756
1.053709
1.005292
0.936335
0.846647
0.735767
0.602983
0.445317
0.267406
0.009980
0.005848
-2.124922
-5.000000
-5.000000
-5.000000
0.000000
0.000000
0.000000
0.000000
0.294597
0.527378
0.762638
0.985119
1.193449
1.383945
1.553402
1.698658
1.816728
1.904871
1.960691
1.982230
1.968039
1.917198
1.829253
1.704055
1.541498
1.341107
1.102140
0.820675
0.506595
0.072861
0.005982
-2.362259
-5.000000
-5.000000
-5.000000
0.000000
0.000000
0.000000
0.000000
0.433448
0.776270
1.123147
1.451796
1.760224
2.042949
2.295111
2.511841
2.688491
2.820774
2.904939
2.937949
2.917613
2.842635
2.712541
2.527444
2.287669
1.993199
1.643819
1.236036
0.783450
0.201939
0.007060
-2.439612
-5.000000
-5.000000
-5.000000
0.000000
0.000000
0.000000
0.000000
0.573691
1.027916
1.488289
1.925532
2.337063
2.715520
3.054211
3.346316
3.585240
3.764856
3.879805
3.925795
3.899816
3.800250
3.626787
3.380126
3.061471
2.671796
2.211875
1.679421
1.089654
0.368841
0.007799
-2.442538
-5.000000
-5.000000
-5.000000
0.000000
0.000000
0.000000
0.000000
0.717205
1.285799
1.863245
2.413270
2.932724
3.412245
3.843083
4.216146
4.522522
4.753870
4.902901
4.963828
4.932723
4.807692
4.588801
4.277704
3.876970
3.389105
2.816201
2.157156
1.426639
0.560947
0.008233
-2.425581
-5.000000
-5.000000
-5.000000
0.000000
0.000000
0.000000
0.000000
0.864532
1.550930
2.249584
2.917213
3.550131
4.136839
4.666262
5.126674
5.506423
5.794530
5.981398
6.059480
6.023802
5.872240
5.605459
5.226460
4.739710
4.149831
3.460608
2.671923
1.795616
0.776667
0.008592
-2.400260
-5.000000
-5.000000
-5.000000
0.000000
0.000000
0.000000
0.000000
1.016195
1.824272
2.648755
3.439331
4.191805
4.892390
5.527408
6.082104
6.541634
6.891926
7.120671
7.218269
7.178560
6.999225
6.681751
6.230887
5.653557
4.957182
4.147875
3.226723
2.200374
1.020239
0.009306
-2.367199
-5.000000
-5.000000
-5.000000
0.000000
0.000000
0.000000
0.000000
1.172280
2.105977
3.060976
3.979903
4.858083
5.679289
6.426956
7.082909
7.628659
8.046578
8.321245
8.440708
8.397471
8.189050
7.817958
7.291073
6.618344
5.810761
4.877776
3.822853
2.646520
1.304724
0.009615
-2.317224
-5.000000
-5.000000
-5.000000
0.000000
0.000000
0.000000
0.000000
1.332315
2.395170
3.484919
4.537108
5.546610
6.494622
7.361426
8.125064
8.762977
9.253554
9.577880
9.721372
9.675058
9.436300
9.008815
8.401947
7.629173
6.705819
5.645950
4.457579
3.138760
1.650832
0.009922
-2.227616
-5.000000
-5.000000
-5.000000
0.000000
0.000000
0.000000
0.000000
1.495140
2.689718
3.917374
5.106593
6.251824
7.331573
8.322751
9.199309
9.934259
10.501641
10.878722
11.048049
10.999047
10.728930
10.242755
9.552589
8.675817
7.632687
6.443010
5.121955
3.671739
2.072096
0.209918
-2.060220
-5.000000
-5.000000
-5.000000
0.000000
0.000000
0.000000
0.000000
1.658859
2.986138
4.353126
5.681322
6.964775
8.179234
9.298082
10.290955
11.126175
11.773161
12.205126
12.401565
12.350207
12.048117
11.501779
10.726138
9.742700
8.576907
7.254827
5.800018
4.224847
2.537251
0.626013
-1.784047
-5.000000
-5.000000
-5.000000
0.000000
0.000000
0.000000
0.000000
1.820867
3.279663
4.785052
6.251713
7.673323
9.022855
10.270098
11.380259
12.316827
13.044460
13.532180
13.756336
13.702907
13.368805
12.761977
11.900304
10.809446
9.519984
8.064055
6.472943
4.769527
2.988847
1.022856
-1.271552
-5.000000
-5.000000
-5.000000
0.000000
0.000000
0.000000
0.000000
1.977967
3.564447
5.204438
6.806076
8.362690
9.844535
11.217829
12.443365
13.479808
14.287049
14.829919
15.081615
15.026365
14.660926
13.994697
13.048452
11.851895
10.440479
8.851792
7.123301
5.284919
3.387917
1.325588
-0.009271
-5.000000
-5.000000
-5.000000
0.000000
0.000000
0.000000
0.000000
2.126551
3.833904
5.601483
7.331284
9.016325
10.624260
12.117875
13.453705
14.585747
15.469283
16.065083
16.343297
16.286455
15.891161
15.168208
14.141131
12.843460
11.315142
9.598546
7.735898
5.761587
3.731748
1.544832
-0.006075
-5.000000
-5.000000
-5.000000
0.000000
0.000000
0.000000
0.000000
2.262833
4.081121
5.965914
7.813606
9.616935
11.341158
12.945874
14.383654
15.604146
16.558333
17.203201
17.506053
17.447837
17.025012
16.249661
15.147874
13.756687
12.120104
10.284681
8.296489
6.193215
4.031796
1.717048
-0.004721
-5.000000
-5.000000
-5.000000
0.000000
0.000000
0.000000
0.000000
2.383081
4.299301
6.287637
8.239564
10.147580
11.974813
13.678027
15.206258
16.505277
17.522228
18.210717
18.535507
18.476134
18.028925
17.207108
16.039042
14.564862
12.832133
10.891031
8.790877
6.572109
4.292269
1.862499
-0.003094
-5.000000
-5.000000
-5.000000
0.000000
0.000000
0.000000
0.000000
2.483855
4.482172
6.557350
8.596755
10.592681
12.506474
14.292501
15.896820
17.261926
18.331719
19.056953
19.400244
19.339933
18.872236
18.011347
16.787535
15.243538
13.429904
11.399832
9.205349
6.889217
4.509679
1.983449
-0.003085
-5.000000
-5.000000
-5.000000
0.000000
0.000000
0.000000
0.000000
2.562191
4.624338
6.767058
8.874523
10.938877
12.920071
14.770608
16.434216
17.850832
18.961825
19.715717
20.073447
20.012425
19.528776
18.637451
17.370206
15.771810
13.895133
11.795723
9.527720
7.135716
4.678550
2.077360
-0.001347
-5.000000
-5.000000
-5.000000
0.000000
0.000000
0.000000
0.000000
2.615752
4.721548
6.910461
9.064485
11.175660
13.202983
15.097678
16.801878
18.253766
19.392974
20.166497
20.534122
20.472620
19.978057
19.065899
17.768922
16.133285
14.213448
12.066569
9.748233
7.304294
4.794016
2.141544
-0.001186
-5.000000
-5.000000
-5.000000
0.000000
0.000000
0.000000
0.000000
2.642931
4.770877
6.983230
9.160881
11.295816
13.346548
15.263651
16.988451
18.458239
19.611766
20.395252
20.767900
20.706157
20.206056
19.283328
17.971264
16.316730
14.374990
12.204020
9.860139
7.389841
4.852606
2.174115
-0.000788
-5.000000
-5.000000
-5.000000
0.000000
0.000000
0.000000
0.000000
2.642911
4.770837
6.983165
9.160785
11.295682
13.346369
15.263425
16.988177
18.457919
19.611409
20.394866
20.767499
20.705755
20.205668
19.282966
17.970939
16.316448
14.374756
12.203834
9.859998
7.389741
4.852543
2.174083
-0.000785
-5.000000
-5.000000
-5.000000
0.000000
0.000000
0.000000
0.000000
2.615692
4.721431
6.910268
9.064199
11.175261
13.202453
15.097006
16.801064
18.252818
19.391913
20.165353
20.532933
20.471429
19.976905
19.064825
17.767957
16.132451
14.212755
12.066018
9.747818
7.304001
4.793832
2.141450
-0.001177
-5.000000
-5.000000
-5.000000
0.000000
0.000000
0.000000
0.000000
2.562094
4.624148
6.766745
8.874057
10.938227
12.919208
14.769515
16.432890
17.849288
18.960096
19.713853
20.071510
20.010483
19.526899
18.635702
17.368635
15.770453
13.894007
11.794831
9.527049
7.135246
4.678257
2.077215
-0.001326
-5.000000
-5.000000
-5.000000
0.000000
0.000000
0.000000
0.000000
2.483725
4.481916
6.556930
8.596129
10.591806
12.505312
14.291028
15.895032
17.259843
18.329386
19.054437
19.397629
19.337312
18.869703
18.008987
16.785418
15.241712
13.428395
11.398643
9.204465
6.888609
4.509311
1.983275
-0.003044
-5.000000
-5.000000
-5.000000
0.000000
0.000000
0.000000
0.000000
2.382925
4.298993
6.287130
8.238807
10.146518
11.973402
13.676235
15.204081
16.502740
17.519385
18.207650
18.532319
18.472939
18.025837
17.204233
16.036467
14.562649
12.830316
10.889620
8.789857
6.571443
4.291908
1.862369
-0.003024
-5.000000
-5.000000
-5.000000
0.000000
0.000000
0.000000
0.000000
2.262659
4.080777
5.965346
7.812756
9.615740
11.339565
12.943847
14.381188
15.601268
16.555105
17.199717
17.502430
17.444206
17.021506
16.246400
15.144962
13.754200
12.118093
10.283168
8.295477
6.192715
4.031780
1.717309
-0.004625
-5.000000
-5.000000
-5.000000
0.000000
0.000000
0.000000
0.000000
2.126371
3.833546
5.600889
7.330389
9.015060
10.622566
12.115714
13.451070
14.582667
15.465823
16.061346
16.339408
16.282558
15.887400
15.164718
14.138030
12.840845
11.313088
9.597108
7.735161
5.761818
3.733848
1.549763
-0.005912
-5.000000
-5.000000
-5.000000
0.000000
0.000000
0.000000
0.000000
1.977793
3.564098
5.203854
6.805188
8.361427
9.842833
11.215648
12.440695
13.476678
14.283527
14.826109
15.077649
15.022391
14.657094
13.991153
13.045330
11.849319
10.438569
8.850671
7.123259
5.286831
3.399549
1.356899
-0.009017
-5.000000
-5.000000
-5.000000
0.000000
0.000000
0.000000
0.000000
1.820711
3.279347
4.784515
6.250886
7.672132
9.021237
10.268010
11.377690
12.313804
13.041049
13.528484
13.752485
13.699048
13.365090
12.758557
11.897330
10.807080
9.518416
8.063522
6.474018
4.774162
3.018541
1.101246
-0.006646
-5.000000
-5.000000
-5.000000
0.000000
0.000000
0.000000
0.000000
1.658732
2.985875
4.352669
5.680603
6.963722
8.177783
9.296191
10.288612
11.123402
11.770022
12.201715
12.398006
12.346639
12.044688
11.498643
10.723461
9.740688
8.575837
7.255082
5.802412
4.232754
2.576689
0.741567
-0.417436
-5.000000
-5.000000
-5.000000
0.000000
0.000000
0.000000
0.000000
1.495050
2.689522
3.917019
5.106016
6.250956
7.330354
8.321139
9.197289
9.931852
10.498900
10.875733
11.044923
10.995912
10.725923
10.240026
9.550314
8.674240
7.632171
6.444069
5.125439
3.679218
2.103122
0.284170
-1.829618
-5.000000
-5.000000
-5.000000
0.000000
0.000000
0.000000
0.000000
1.332263
2.395048
3.484679
4.536691
5.545954
6.493672
7.360141
8.123430
8.761008
9.251295
9.575403
9.718774
9.672449
9.433801
9.006564
8.400120
7.628031
6.705775
5.647585
4.461645
3.145831
1.666317
0.009751
-2.145614
-5.000000
-5.000000
-5.000000
0.000000
0.000000
0.000000
0.000000
1.172266
2.105926
3.060847
3.979645
4.857642
5.678615
6.426013
7.081681
7.627155
8.044833
8.319317
8.438674
8.395424
8.187089
7.816202
7.289681
6.617563
5.810992
4.879572
3.826797
2.652484
1.312499
0.009591
-2.297081
-5.000000
-5.000000
-5.000000
0.000000
0.000000
0.000000
0.000000
1.016211
1.824280
2.648722
3.439215
4.191559
4.891972
5.526786
6.081261
6.540576
6.890676
7.119274
7.216783
7.177055
6.997779
6.680456
6.229872
5.653026
4.957464
4.149406
3.229883
2.204809
1.024981
0.009298
-2.361952
-5.000000
-5.000000
-5.000000
0.000000
0.000000
0.000000
0.000000
0.864570
1.550981
2.249624
2.917207
3.550043
4.136632
4.665911
5.126163
5.505752
5.793716
5.980470
6.058479
6.022776
5.871243
5.604555
5.225740
4.739321
4.150002
3.461628
2.673993
1.798414
0.779355
0.008912
-2.398717
-5.000000
-5.000000
-5.000000
0.000000
0.000000
0.000000
0.000000
0.717254
1.285875
1.863330
2.413337
2.932745
3.412193
3.842937
4.215892
4.522157
4.753403
4.902349
4.963217
4.932082
4.807052
4.588200
4.277195
3.876643
3.389099
2.816682
2.158220
1.428085
0.562282
0.008428
-2.425060
-5.000000
-5.000000
-5.000000
0.000000
0.000000
0.000000
0.000000
0.573740
1.027996
1.488388
1.925633
2.337144
2.715561
3.054196
3.346234
3.585087
3.764635
3.879525
3.925467
3.899455
3.799869
3.626401
3.379758
3.061165
2.671626
2.211933
1.679762
1.090198
0.369375
0.007856
-2.442344
-5.000000
-5.000000
-5.000000
0.000000
0.000000
0.000000
0.000000
0.433490
0.776340
1.123238
1.451896
1.760320
2.043028
2.295161
2.511854
2.688463
2.820703
2.904828
2.937802
2.917434
2.842424
2.712298
2.527170
2.287379
1.992927
1.643617
1.235954
0.783492
0.202045
0.007004
-2.439542
-5.000000
-5.000000
-5.000000
0.000000
0.000000
0.000000
0.000000
0.294626
0.527428
0.762704
0.985195
1.193528
1.384018
1.553463
1.698701
1.816749
1.904869
1.960665
1.982179
1.967961
1.917088
1.829103
1.703858
1.541253
1.340826
1.101854
0.820430
0.506433
0.072799
0.006200
-2.362230
-5.000000
-5.000000
-5.000000
0.000000
0.000000
0.000000
0.000000
0.162656
0.291313
0.421090
0.543684
0.658303
0.762932
0.855837
0.935325
0.999811
1.047847
1.078164
1.089720
1.081726
1.053657
1.005210
0.936215
0.846484
0.735565
0.602757
0.445101
0.267243
0.009996
0.005720
-2.124921
-5.000000
-5.000000
-5.000000
0.000000
0.000000
0.000000
0.000000
0.000000
0.000000
0.000000
0.000000
0.000000
0.000000
0.000000
0.000000
0.000000
0.000000
0.000000
0.000000
0.000000
0.000000
0.000000
0.000000
0.000000
0.000000
0.000000
0.000000
0.000000
0.000000
0.000000
0.000000
-5.000000
-5.000000
-5.000000
0.000000
0.000000
0.000000
0.000000
0.000000
0.000000
0.000000
0.000000
0.000000
0.000000
0.000000
0.000000
0.000000
0.000000
0.000000
0.000000
0.000000
0.000000
0.000000
0.000000
0.000000
0.000000
0.000000
0.000000
0.000000
0.000000
0.000000
0.000000
-5.000000
-5.000000
-5.000000
0.000000
0.000000
0.000000
0.000000
0.000000
0.000000
0.000000
0.000000
0.000000
0.000000
0.000000
0.000000
0.000000
0.000000
0.000000
0.000000
0.000000
0.000000
0.000000
0.000000
0.000000
0.000000
0.000000
0.000000
0.000000
0.000000
0.000000
0.000000
-5.000000
-5.000000
-5.000000
0.000000
0.000000
0.000000
0.000000
0.000000
0.000000
0.000000
0.000000
0.000000
0.000000
0.000000
0.000000
0.000000
0.000000
0.000000
0.000000
0.000000
0.000000
0.000000
0.000000
0.000000
0.000000
0.000000
0.000000
0.000000
0.000000
0.000000
0.000000
-5.000000
-5.000000
-5.000000
</DataArray>
</PointData>
<Cells>
<DataArray type='Int32' Name='connectivity' format='ascii'>
0
1
2
3
4
5
6
7
8
9
10
11
12
13
14
15
16
17
18
19
20
21
22
23
24
25
26
27
28
29
30
31
32
33
34
35
36
37
38
39
40
41
42
43
44
45
46
47
48
49
50
51
52
53
54
55
56
57
58
59
60
61
62
63
64
65
66
67
68
69
70
71
72
73
74
75
76
77
78
79
80
81
82
83
84
85
86
87
88
89
90
91
92
93
94
95
96
97
98
99
100
101
102
103
104
105
106
107
108
109
110
111
112
113
114
115
116
117
118
119
120
121
122
123
124
125
126
127
128
129
130
131
132
133
134
135
136
137
138
139
140
141
142
143
144
145
146
147
148
149
150
151
152
153
154
155
156
157
158
159
160
161
162
163
164
165
166
167
168
169
170
171
172
173
174
175
176
177
178
179
180
181
182
183
184
185
186
187
188
189
190
191
192
193
194
195
196
197
198
199
200
201
202
203
204
205
206
207
208
209
210
211
212
213
214
215
216
217
218
219
220
221
222
223
224
225
226
227
228
229
230
231
232
233
234
235
236
237
238
239
240
241
242
243
244
245
246
247
248
249
250
251
252
253
254
255
256
257
258
259
260
261
262
263
264
265
266
267
268
269
270
271
272
273
274
275
276
277
278
279
280
281
282
283
284
285
286
287
288
289
290
291
292
293
294
295
296
297
298
299
300
301
302
303
304
305
306
307
308
309
310
311
312
313
314
315
316
317
318
319
320
321
322
323
324
325
326
327
328
329
330
331
332
333
334
335
336
337
338
339
340
341
342
343
344
345
346
347
348
349
350
351
352
353
354
355
356
357
358
359
360
361
362
363
364
365
366
367
368
369
370
371
372
373
374
375
376
377
378
379
380
381
382
383
384
385
386
387
388
389
390
391
392
393
394
395
396
397
398
399
400
401
402
403
404
405
406
407
408
409
410
411
412
413
414
415
416
417
418
419
420
421
422
423
424
425
426
427
428
429
430
431
432
433
434
435
436
437
438
439
440
441
442
443
444
445
446
447
448
449
450
451
452
453
454
455
456
457
458
459
460
461
462
463
464
465
466
467
468
469
470
471
472
473
474
475
476
477
478
479
480
481
482
483
484
485
486
487
488
489
490
491
492
493
494
495
496
497
498
499
500
501
502
503
504
505
506
507
508
509
510
511
512
513
514
515
516
517
518
519
520
521
522
523
524
525
526
527
528
529
530
531
532
533
534
535
536
537
538
539
540
541
542
543
544
545
546
547
548
549
550
551
552
553
554
555
556
557
558
559
560
561
562
563
564
565
566
567
568
569
570
571
572
573
574
575
576
577
578
579
580
581
582
583
584
585
586
587
588
589
590
591
592
593
594
595
596
597
598
599
600
601
602
603
604
605
606
607
608
609
610
611
612
613
614
615
616
617
618
619
620
621
622
623
624
625
626
627
628
629
630
631
632
633
634
635
636
637
638
639
640
641
642
643
644
645
646
647
648
649
650
651
652
653
654
655
656
657
658
659
660
661
662
663
664
665
666
667
668
669
670
671
672
673
674
675
676
677
678
679
680
681
682
683
684
685
686
687
688
689
690
691
692
693
694
695
696
697
698
699
700
701
702
703
704
705
706
707
708
709
710
711
712
713
714
715
716
717
718
719
720
721
722
723
724
725
726
727
728
729
730
731
732
733
734
735
736
737
738
739
740
741
742
743
744
745
746
747