<?xml version='1.0' encoding='UTF-8'?>
<VTKFile xmlns='VTK' byte_order='LittleEndian' version='0.1' type='UnstructuredGrid'>
<UnstructuredGrid>
<Piece NumberOfCells='1488' NumberOfPoints='1488'>
<Points>
<DataArray NumberOfComponents='3' type='Float32' Name='Position' format='ascii'>
-0.075000 -0.075000 0.000000
-0.075000 -0.050000 0.000000
-0.075000 -0.025000 0.000000
-0.075000 0.000000 0.000000
-0.075000 0.025000 0.000000
-0.075000 0.050000 0.000000
-0.075000 0.075000 0.000000
-0.075000 0.100000 0.000000
-0.075000 0.125000 0.000000
-0.075000 0.150000 0.000000
-0.075000 0.175000 0.000000
-0.075000 0.200000 0.000000
-0.075000 0.225000 0.000000
-0.075000 0.250000 0.000000
-0.075000 0.275000 0.000000
-0.075000 0.300000 0.000000
-0.075000 0.325000 0.000000
-0.075000 0.350000 0.000000
-0.075000 0.375000 0.000000
-0.075000 0.400000 0.000000
-0.075000 0.425000 0.000000
-0.075000 0.450000 0.000000
-0.075000 0.475000 0.000000
-0.075000 0.500000 0.000000
-0.075000 0.525000 0.000000
-0.075000 0.550000 0.000000
-0.075000 0.575000 0.000000
-0.075000 0.600000 0.000000
-0.075000 0.625000 0.000000
-0.075000 0.650000 0.000000
-0.075000 0.675000 0.000000
-0.050000 -0.075000 0.000000
-0.050000 -0.050000 0.000000
-0.050000 -0.025000 0.000000
-0.050000 0.000000 0.000000
-0.050000 0.025000 0.000000
-0.050000 0.050000 0.000000
-0.050000 0.075000 0.000000
-0.050000 0.100000 0.000000
-0.050000 0.125000 0.000000
-0.050000 0.150000 0.000000
-0.050000 0.175000 0.000000
-0.050000 0.200000 0.000000
-0.050000 0.225000 0.000000
-0.050000 0.250000 0.000000
-0.050000 0.275000 0.000000
-0.050000 0.300000 0.000000
-0.050000 0.325000 0.000000
-0.050000 0.350000 0.000000
-0.050000 0.375000 0.000000
-0.050000 0.400000 0.000000
-0.050000 0.425000 0.000000
-0.050000 0.450000 0.000000
-0.050000 0.475000 0.000000
-0.050000 0.500000 0.000000
-0.050000 0.525000 0.000000
-0.050000 0.550000 0.000000
-0.050000 0.575000 0.000000
-0.050000 0.600000 0.000000
-0.050000 0.625000 0.000000
-0.050000 0.650000 0.000000
-0.050000 0.675000 0.000000
-0.025000 -0.075000 0.000000
-0.025000 -0.050000 0.000000
-0.025000 -0.025000 0.000000
-0.025000 0.000000 0.000000
-0.025000 0.025000 0.000000
-0.025000 0.050000 0.000000
-0.025000 0.075000 0.000000
-0.025000 0.100000 0.000000
-0.025000 0.125000 0.000000
-0.025000 0.150000 0.000000
-0.025000 0.175000 0.000000
-0.025000 0.200000 0.000000
-0.025000 0.225000 0.000000
-0.025000 0.250000 0.000000
-0.025000 0.275000 0.000000
-0.025000 0.300000 0.000000
-0.025000 0.325000 0.000000
-0.025000 0.350000 0.000000
-0.025000 0.375000 0.000000
-0.025000 0.400000 0.000000
-0.025000 0.425000 0.000000
-0.025000 0.450000 0.000000
-0.025000 0.475000 0.000000
-0.025000 0.500000 0.000000
-0.025000 0.525000 0.000000
-0.025000 0.550000 0.000000
-0.025000 0.575000 0.000000
-0.025000 0.600000 0.000000
-0.025000 0.625000 0.000000
-0.025000 0.650000 0.000000
-0.025000 0.675000 0.000000
0.000000 -0.075000 0.000000
0.000000 -0.050000 0.000000
0.000000 -0.025000 0.000000
0.000000 0.000000 0.000000
0.000000 0.025000 0.000000
0.000000 0.050000 0.000000
0.000000 0.075000 0.000000
0.000000 0.100000 0.000000
0.000000 0.125000 0.000000
0.000000 0.150000 0.000000
0.000000 0.175000 0.000000
0.000000 0.200000 0.000000
0.000000 0.225000 0.000000
0.000000 0.250000 0.000000
0.000000 0.275000 0.000000
0.000000 0.300000 0.000000
0.000000 0.325000 0.000000
0.000000 0.350000 0.000000
0.000000 0.375000 0.000000
0.000000 0.400000 0.000000
0.000000 0.425000 0.000000
0.000000 0.450000 0.000000
0.000000 0.475000 0.000000
0.000000 0.500000 0.000000
0.000000 0.525000 0.000000
0.000000 0.550000 0.000000
0.000000 0.575000 0.000000
0.000000 0.600000 0.000000
0.000000 0.625000 0.000000
0.000000 0.650000 0.000000
0.000000 0.675000 0.000000
0.025000 -0.075000 0.000000
0.025000 -0.050000 0.000000
0.025000 -0.025000 0.000000
0.025000 0.000000 0.000000
0.025000 0.025000 0.000000
0.025000 0.050000 0.000000
0.025000 0.075000 0.000000
0.025000 0.100000 0.000000
0.025000 0.125000 0.000000
0.025000 0.150000 0.000000
0.025000 0.175000 0.000000
0.025000 0.200000 0.000000
0.025000 0.225000 0.000000
0.025000 0.250000 0.000000
0.025000 0.275000 0.000000
0.025000 0.300000 0.000000
0.025000 0.325000 0.000000
0.025000 0.350000 0.000000
0.025000 0.375000 0.000000
0.025000 0.400000 0.000000
0.025000 0.425000 0.000000
0.025000 0.450000 0.000000
0.025000 0.475000 0.000000
0.025000 0.500000 0.000000
0.025000 0.525000 0.000000
0.025000 0.550000 0.000000
0.025000 0.575000 0.000000
0.025000 0.600000 0.000000
0.025000 0.625000 0.000000
0.025000 0.650000 0.000000
0.025000 0.675000 0.000000
0.050000 -0.075000 0.000000
0.050000 -0.050000 0.000000
0.050000 -0.025000 0.000000
0.050000 0.000000 0.000000
0.050000 0.025000 0.000000
0.050000 0.050000 0.000000
0.050000 0.075000 0.000000
0.050000 0.100000 0.000000
0.050000 0.125000 0.000000
0.050000 0.150000 0.000000
0.050000 0.175000 0.000000
0.050000 0.200000 0.000000
0.050000 0.225000 0.000000
0.050000 0.250000 0.000000
0.050000 0.275000 0.000000
0.050000 0.300000 0.000000
0.050000 0.325000 0.000000
0.050000 0.350000 0.000000
0.050000 0.375000 0.000000
0.050000 0.400000 0.000000
0.050000 0.425000 0.000000
0.050000 0.450000 0.000000
0.050000 0.475000 0.000000
0.050000 0.500000 0.000000
0.050000 0.525000 0.000000
0.050000 0.550000 0.000000
0.050000 0.575000 0.000000
0.050000 0.600000 0.000000
0.050000 0.625000 0.000000
0.050000 0.650000 0.000000
0.050000 0.675000 0.000000
0.075000 -0.075000 0.000000
0.075000 -0.050000 0.000000
0.075000 -0.025000 0.000000
0.075000 0.000000 0.000000
0.075000 0.025000 0.000000
0.075000 0.050000 0.000000
0.075000 0.075000 0.000000
0.075000 0.100000 0.000000
0.075000 0.125000 0.000000
0.075000 0.150000 0.000000
0.075000 0.175000 0.000000
0.075000 0.200000 0.000000
0.075000 0.225000 0.000000
0.075000 0.250000 0.000000
0.075000 0.275000 0.000000
0.075000 0.300000 0.000000
0.075000 0.325000 0.000000
0.075000 0.350000 0.000000
0.075000 0.375000 0.000000
0.075000 0.400000 0.000000
0.075000 0.425000 0.000000
0.075000 0.450000 0.000000
0.075000 0.475000 0.000000
0.075000 0.500000 0.000000
0.075000 0.525000 0.000000
0.075000 0.550000 0.000000
0.075000 0.575000 0.000000
0.075000 0.600000 0.000000
0.075000 0.625000 0.000000
0.075000 0.650000 0.000000
0.075000 0.675000 0.000000
0.100000 -0.075000 0.000000
0.100000 -0.050000 0.000000
0.100000 -0.025000 0.000000
0.100000 0.000000 0.000000
0.100000 0.025000 0.000000
0.100000 0.050000 0.000000
0.100000 0.075000 0.000000
0.100000 0.100000 0.000000
0.100000 0.125000 0.000000
0.100000 0.150000 0.000000
0.100000 0.175000 0.000000
0.100000 0.200000 0.000000
0.100000 0.225000 0.000000
0.100000 0.250000 0.000000
0.100000 0.275000 0.000000
0.100000 0.300000 0.000000
0.100000 0.325000 0.000000
0.100000 0.350000 0.000000
0.100000 0.375000 0.000000
0.100000 0.400000 0.000000
0.100000 0.425000 0.000000
0.100000 0.450000 0.000000
0.100000 0.475000 0.000000
0.100000 0.500000 0.000000
0.100000 0.525000 0.000000
0.100000 0.550000 0.000000
0.100000 0.575000 0.000000
0.100000 0.600000 0.000000
0.100000 0.625000 0.000000
0.100000 0.650000 0.000000
0.100000 0.675000 0.000000
0.125000 -0.075000 0.000000
0.125000 -0.050000 0.000000
0.125000 -0.025000 0.000000
0.125000 0.000000 0.000000
0.125000 0.025000 0.000000
0.125000 0.050000 0.000000
0.125000 0.075000 0.000000
0.125000 0.100000 0.000000
0.125000 0.125000 0.000000
0.125000 0.150000 0.000000
0.125000 0.175000 0.000000
0.125000 0.200000 0.000000
0.125000 0.225000 0.000000
0.125000 0.250000 0.000000
0.125000 0.275000 0.000000
0.125000 0.300000 0.000000
0.125000 0.325000 0.000000
0.125000 0.350000 0.000000
0.125000 0.375000 0.000000
0.125000 0.400000 0.000000
0.125000 0.425000 0.000000
0.125000 0.450000 0.000000
0.125000 0.475000 0.000000
0.125000 0.500000 0.000000
0.125000 0.525000 0.000000
0.125000 0.550000 0.000000
0.125000 0.575000 0.000000
0.125000 0.600000 0.000000
0.125000 0.625000 0.000000
0.125000 0.650000 0.000000
0.125000 0.675000 0.000000
0.150000 -0.075000 0.000000
0.150000 -0.050000 0.000000
0.150000 -0.025000 0.000000
0.150000 0.000000 0.000000
0.150000 0.025000 0.000000
0.150000 0.050000 0.000000
0.150000 0.075000 0.000000
0.150000 0.100000 0.000000
0.150000 0.125000 0.000000
0.150000 0.150000 0.000000
0.150000 0.175000 0.000000
0.150000 0.200000 0.000000
0.150000 0.225000 0.000000
0.150000 0.250000 0.000000
0.150000 0.275000 0.000000
0.150000 0.300000 0.000000
0.150000 0.325000 0.000000
0.150000 0.350000 0.000000
0.150000 0.375000 0.000000
0.150000 0.400000 0.000000
0.150000 0.425000 0.000000
0.150000 0.450000 0.000000
0.150000 0.475000 0.000000
0.150000 0.500000 0.000000
0.150000 0.525000 0.000000
0.150000 0.550000 0.000000
0.150000 0.575000 0.000000
0.150000 0.600000 0.000000
0.150000 0.625000 0.000000
0.150000 0.650000 0.000000
0.150000 0.675000 0.000000
0.175000 -0.075000 0.000000
0.175000 -0.050000 0.000000
0.175000 -0.025000 0.000000
0.175000 0.000000 0.000000
0.175000 0.025000 0.000000
0.175000 0.050000 0.000000
0.175000 0.075000 0.000000
0.175000 0.100000 0.000000
0.175000 0.125000 0.000000
0.175000 0.150000 0.000000
0.175000 0.175000 0.000000
0.175000 0.200000 0.000000
0.175000 0.225000 0.000000
0.175000 0.250000 0.000000
0.175000 0.275000 0.000000
0.175000 0.300000 0.000000
0.175000 0.325000 0.000000
0.175000 0.350000 0.000000
0.175000 0.375000 0.000000
0.175000 0.400000 0.000000
0.175000 0.425000 0.000000
0.175000 0.450000 0.000000
0.175000 0.475000 0.000000
0.175000 0.500000 0.000000
0.175000 0.525000 0.000000
0.175000 0.550000 0.000000
0.175000 0.575000 0.000000
0.175000 0.600000 0.000000
0.175000 0.625000 0.000000
0.175000 0.650000 0.000000
0.175000 0.675000 0.000000
0.200000 -0.075000 0.000000
0.200000 -0.050000 0.000000
0.200000 -0.025000 0.000000
0.200000 0.000000 0.000000
0.200000 0.025000 0.000000
0.200000 0.050000 0.000000
0.200000 0.075000 0.000000
0.200000 0.100000 0.000000
0.200000 0.125000 0.000000
0.200000 0.150000 0.000000
0.200000 0.175000 0.000000
0.200000 0.200000 0.000000
0.200000 0.225000 0.000000
0.200000 0.250000 0.000000
[...]
<PointData>
<DataArray NumberOfComponents='1' type='Int32' Name='ParticleType' format='ascii'>
4
4
4
4
4
4
4
4
4
4
4
4
4
4
4
4
4
4
4
4
4
4
4
4
4
4
4
4
2
2
2
4
4
4
4
4
4
4
4
4
4
4
4
4
4
4
4
4
4
4
4
4
4
4
4
4
4
4
4
2
2
2
4
4
3
3
3
3
3
3
3
3
3
3
3
3
3
3
3
3
3
3
3
3
3
3
3
3
3
3
2
2
2
4
4
3
3
3
3
3
3
3
3
3
3
3
3
3
3
3
3
3
3
3
3
3
3
3
3
3
3
2
2
2
4
4
3
3
0
0
0
0
0
0
0
0
0
0
0
0
0
0
0
0
0
0
0
0
0
0
1
2
2
2
2
4
4
3
3
0
0
0
0
0
0
0
0
0
0
0
0
0
0
0
0
0
0
0
0
0
0
1
2
2
2
2
4
4
3
3
0
0
0
0
0
0
0
0
0
0
0
0
0
0
0
0
0
0
0
0
0
0
1
2
2
2
2
4
4
3
3
0
0
0
0
0
0
0
0
0
0
0
0
0
0
0
0
0
0
0
0
0
0
1
2
2
2
2
4
4
3
3
0
0
0
0
0
0
0
0
0
0
0
0
0
0
0
0
0
0
0
0
0
0
1
2
2
2
2
4
4
3
3
0
0
0
0
0
0
0
0
0
0
0
0
0
0
0
0
0
0
0
0
0
0
0
1
2
2
2
4
4
3
3
0
0
0
0
0
0
0
0
0
0
0
0
0
0
0
0
0
0
0
0
0
0
0
1
2
2
2
4
4
3
3
0
0
0
0
0
0
0
0
0
0
0
0
0
0
0
0
0
0
0
0
0
0
0
1
2
2
2
4
4
3
3
0
0
0
0
0
0
0
0
0
0
0
0
0
0
0
0
0
0
0
0
0
0
0
1
2
2
2
4
4
3
3
0
0
0
0
0
0
0
0
0
0
0
0
0
0
0
0
0
0
0
0
0
0
0
1
2
2
2
4
4
3
3
0
0
0
0
0
0
0
0
0
0
0
0
0
0
0
0
0
0
0
0
0
0
0
1
2
2
2
4
4
3
3
0
0
0
0
0
0
0
0
0
0
0
0
0
0
0
0
0
0
0
0
0
0
0
1
2
2
2
4
4
3
3
0
0
0
0
0
0
0
0
0
0
0
0
0
0
0
0
0
0
0
0
0
0
0
1
2
2
2
4
4
3
3
0
0
0
0
0
0
0
0
0
0
0
0
0
0
0
0
0
0
0
0
0
0
0
1
2
2
2
4
4
3
3
0
0
0
0
0
0
0
0
0
0
0
0
0
0
0
0
0
0
0
0
0
0
0
1
2
2
2
4
4
3
3
0
0
0
0
0
0
0
0
0
0
0
0
0
0
0
0
0
0
0
0
0
0
0
1
2
2
2
4
4
3
3
0
0
0
0
0
0
0
0
0
0
0
0
0
0
0
0
0
0
0
0
0
0
0
1
2
2
2
4
4
3
3
0
0
0
0
0
0
0
0
0
0
0
0
0
0
0
0
0
0
0
0
0
0
0
1
2
2
2
4
4
3
3
0
0
0
0
0
0
0
0
0
0
0
0
0
0
0
0
0
0
0
0
0
0
0
1
2
2
2
4
4
3
3
0
0
0
0
0
0
0
0
0
0
0
0
0
0
0
0
0
0
0
0
0
0
0
1
2
2
2
4
4
3
3
0
0
0
0
0
0
0
0
0
0
0
0
0
0
0
0
0
0
0
0
0
0
0
1
2
2
2
4
4
3
3
0
0
0
0
0
0
0
0
0
0
0
0
0
0
0
0
0
0
0
0
0
0
0
1
2
2
2
4
4
3
3
0
0
0
0
0
0
0
0
0
0
0
0
0
0
0
0
0
0
0
0
0
0
0
1
2
2
2
4
4
3
3
0
0
0
0
0
0
0
0
0
0
0
0
0
0
0
0
0
0
0
0
0
0
0
1
2
2
2
4
4
3
3
0
0
0
0
0
0
0
0
0
0
0
0
0
0
0
0
0
0
0
0
0
0
0
1
2
2
2
4
4
3
3
0
0
0
0
0
0
0
0
0
0
0
0
0
0
0
0
0
0
0
0
0
0
0
1
2
2
2
4
4
3
3
0
0
0
0
0
0
0
0
0
0
0
0
0
0
0
0
0
0
0
0
0
0
0
1
2
2
2
4
4
3
3
0
0
0
0
0
0
0
0
0
0
0
0
0
0
0
0
0
0
0
0
0
0
0
1
2
2
2
4
4
3
3
0
0
0
0
0
0
0
0
0
0
0
0
0
0
0
0
0
0
0
0
0
0
0
1
2
2
2
4
4
3
3
0
0
0
0
0
0
0
0
0
0
0
0
0
0
0
0
0
0
0
0
0
0
0
1
2
2
2
4
4
3
3
0
0
0
0
0
0
0
0
0
0
0
0
0
0
0
0
0
0
0
0
0
0
0
1
2
2
2
4
4
3
3
0
0
0
0
0
0
0
0
0
0
0
0
0
0
0
0
0
0
0
0
0
0
0
1
2
2
2
4
4
3
3
0
0
0
0
0
0
0
0
0
0
0
0
0
0
0
0
0
0
0
0
0
0
0
1
2
2
2
4
4
3
3
0
0
0
0
0
0
0
0
0
0
0
0
0
0
0
0
0
0
0
0
0
0
0
1
2
2
2
4
4
3
3
0
0
0
0
0
0
0
0
0
0
0
0
0
0
0
0
0
0
0
0
0
0
0
1
2
2
2
4
4
3
3
0
0
0
0
0
0
0
0
0
0
0
0
0
0
0
0
0
0
0
0
0
0
1
2
2
2
2
4
4
3
3
0
0
0
0
0
0
0
0
0
0
0
0
0
0
0
0
0
0
0
0
0
0
1
2
2
2
2
4
4
3
3
0
0
0
0
0
0
0
0
0
0
0
0
0
0
0
0
0
0
0
0
0
0
1
2
2
2
2
4
4
3
3
0
0
0
0
0
0
0
0
0
0
0
0
0
0
0
0
0
0
0
0
0
0
1
2
2
2
2
4
4
3
3
0
0
0
0
0
0
0
0
0
0
0
0
0
0
0
0
0
0
0
0
0
0
1
2
2
2
2
4
4
3
3
3
3
3
3
3
3
3
3
3
3
3
3
3
3
3
3
3
3
3
3
3
3
3
3
2
2
2
4
4
3
3
3
3
3
3
3
3
3
3
3
3
3
3
3
3
3
3
3
3
3
3
3
3
3
3
2
2
2
4
4
4
4
4
4
4
4
4
4
4
4
4
4
4
4
4
4
4
4
4
4
4
4
4
4
4
4
2
2
2
4
4
4
4
4
4
4
4
4
4
4
4
4
4
4
4
4
4
4
4
4
4
4
4
4
4
4
4
2
2
2
</DataArray>
<DataArray NumberOfComponents='1' type='Float32' Name='Temperature' format='ascii'>
0.000000
0.000000
0.000000
0.000000
0.000000
0.000000
0.000000
0.000000
0.000000
0.000000
0.000000
0.000000
0.000000
0.000000
0.000000
0.000000
0.000000
0.000000
0.000000
0.000000
0.000000
0.000000
0.000000
0.000000
0.000000
0.000000
0.000000
0.000000
-5.000000
-5.000000
-5.000000
0.000000
0.000000
0.000000
0.000000
0.000000
0.000000
0.000000
0.000000
0.000000
0.000000
0.000000
0.000000
0.000000
0.000000
0.000000
0.000000
0.000000
0.000000
0.000000
0.000000
0.000000
0.000000
0.000000
0.000000
0.000000
0.000000
0.000000
0.000000
-5.000000
-5.000000
-5.000000
0.000000
0.000000
0.000000
0.000000
0.000000
0.000000
0.000000
0.000000
0.000000
0.000000
0.000000
0.000000
0.000000
0.000000
0.000000
0.000000
0.000000
0.000000
0.000000
0.000000
0.000000
0.000000
0.000000
0.000000
0.000000
0.000000
0.000000
0.000000
-5.000000
-5.000000
-5.000000
0.000000
0.000000
0.000000
0.000000
0.000000
0.000000
0.000000
0.000000
0.000000
0.000000
0.000000
0.000000
0.000000
0.000000
0.000000
0.000000
0.000000
0.000000
0.000000
0.000000
0.000000
0.000000
0.000000
0.000000
0.000000
0.000000
0.000000
0.000000
-5.000000
-5.000000
-5.000000
0.000000
0.000000
0.000000
0.000000
0.174038
0.310642
0.446837
0.573402
0.689549
0.793531
0.884180
0.960529
1.021756
1.067107
1.095856
1.107302
1.100785
1.075718
1.031606
0.968078
0.884889
0.781825
0.658378
0.511349
0.338428
0.070420
0.008007
-2.114071
-5.000000
-5.000000
-5.000000
0.000000
0.000000
0.000000
0.000000
0.313584
0.559595
0.805565
1.034697
1.245653
1.435218
1.601142
1.741468
1.854464
1.938509
1.992066
2.013704
2.002154
1.956377
1.875604
1.759375
1.607534
1.420097
1.196798
0.933878
0.629633
0.194483
0.008385
-2.338168
-5.000000
-5.000000
-5.000000
0.000000
0.000000
0.000000
0.000000
0.457979
0.817924
1.178724
1.516159
1.828334
2.110417
2.358794
2.570128
2.741320
2.869417
2.951655
2.985563
2.969108
2.900812
2.779821
2.605926
2.379527
2.101458
1.772490
1.390412
0.953544
0.381274
0.009223
-2.386024
-5.000000
-5.000000
-5.000000
0.000000
0.000000
0.000000
0.000000
0.600782
1.074034
1.550114
1.997723
2.414488
2.793832
3.130433
3.419058
3.654622
3.832209
3.947259
3.995855
3.974997
3.882820
3.718677
3.483115
3.177745
2.804997
2.367552
1.866397
1.299734
0.614090
0.009641
-2.291855
-5.000000
-5.000000
-5.000000
0.000000
0.000000
0.000000
0.000000
0.744074
1.331861
1.925761
2.487738
3.015036
3.499139
3.932568
4.307530
4.616163
4.850767
5.004268
5.070763
5.046025
4.927848
4.716151
4.412861
4.021606
3.547308
2.995467
2.371198
1.674129
0.888322
0.009746
-2.027448
-5.000000
-5.000000
-5.000000
0.000000
0.000000
0.000000
0.000000
0.889031
1.593632
2.309164
2.991199
3.636694
4.234971
4.775856
5.248214
5.640473
5.941192
6.139918
6.228131
6.200060
6.053206
5.788465
5.409857
4.923954
4.339173
3.664794
2.910711
2.080722
1.193407
0.072541
-0.009427
-5.000000
-5.000000
-5.000000
0.000000
0.000000
0.000000
0.000000
1.037207
1.862208
2.704635
3.513968
4.286983
5.010578
5.671290
6.253779
6.741733
7.118902
7.370509
7.484710
7.453829
7.275117
6.950885
6.488019
5.897030
5.190891
4.383636
3.490341
2.519320
1.511801
0.302032
-0.008062
-5.000000
-5.000000
-5.000000
0.000000
0.000000
0.000000
0.000000
1.189868
2.139874
3.115521
4.060446
4.971350
5.832426
6.626309
7.332555
7.929043
8.393617
8.706181
8.850832
8.817612
8.603556
8.212827
7.655963
6.948419
6.108792
5.156817
4.113028
2.990906
1.837761
0.498967
-0.007642
-5.000000
-5.000000
-5.000000
0.000000
0.000000
0.000000
0.000000
1.347623
2.427673
3.543228
4.632280
5.691555
6.702269
7.642553
8.485999
9.203645
9.766360
10.147774
10.327210
10.292054
10.039149
9.574928
8.914322
8.078685
7.093246
5.984323
4.778307
3.493675
2.179314
0.688044
-0.005670
-5.000000
-5.000000
-5.000000
0.000000
0.000000
0.000000
0.000000
1.510094
2.724801
3.986332
5.227198
6.444236
7.615441
8.713918
9.706527
10.556554
11.226948
11.684217
11.902271
11.865510
11.570601
11.026608
10.253504
9.279375
8.136962
6.859943
5.481039
4.023722
2.538333
0.885984
-0.005098
-5.000000
-5.000000
-5.000000
0.000000
0.000000
0.000000
0.000000
1.675726
3.028285
4.440122
5.838423
7.220209
8.560073
9.825685
10.976578
11.967576
12.752969
13.291482
13.551112
13.513010
13.173680
12.545099
11.652782
10.532194
9.224271
7.770656
6.210821
4.573407
2.910147
1.090706
-0.003507
-5.000000
-5.000000
-5.000000
0.000000
0.000000
0.000000
0.000000
1.841803
3.333006
4.896655
6.454788
8.004665
9.517377
10.954918
12.269130
13.405936
14.310512
14.933386
15.236336
15.197103
14.812036
14.096200
13.080968
11.809579
10.331582
8.696957
6.952187
5.131209
3.287112
1.298095
-0.002597
-5.000000
-5.000000
-5.000000
0.000000
0.000000
0.000000
0.000000
2.004629
3.632059
5.345313
7.061521
8.778213
10.462984
12.072102
13.549634
14.832485
15.856598
16.564192
16.910746
16.870550
16.439808
15.636729
14.498629
13.076633
11.429010
9.614156
7.685605
5.682575
3.659482
1.502855
-0.002262
-5.000000
-5.000000
-5.000000
0.000000
0.000000
0.000000
0.000000
2.159872
3.917372
5.773756
7.641558
9.518588
11.369068
13.143707
14.779001
16.203077
17.342881
18.132537
18.521389
18.480371
18.005552
17.118206
15.861451
14.294092
12.482888
10.494416
8.389051
6.211110
4.016275
1.699035
-0.000384
-5.000000
-5.000000
-5.000000
0.000000
0.000000
0.000000
0.000000
2.302958
4.180455
6.169050
8.177093
10.202663
12.206850
14.135175
15.917072
17.472466
18.719901
19.585943
20.014205
19.972491
19.456743
18.491105
17.124115
15.421751
13.458696
11.309159
9.039888
6.699939
4.346165
1.880358
0.000280
-5.000000
-5.000000
-5.000000
0.000000
0.000000
0.000000
0.000000
2.429476
4.413134
6.518781
8.651094
10.808394
12.948990
15.013782
16.925914
18.598005
19.941116
20.875078
21.338405
21.296110
20.744027
19.708858
18.243963
16.421714
14.323846
12.031363
9.616682
7.133070
4.638401
2.040945
0.001241
-5.000000
-5.000000
-5.000000
0.000000
0.000000
0.000000
0.000000
2.535501
4.608150
6.811955
9.048524
11.316383
13.571500
15.750895
17.772416
19.542540
20.966035
21.957071
22.449874
22.407112
21.824529
20.730975
19.183869
17.260952
15.049891
12.637399
10.100657
7.496467
4.883565
2.175625
0.001013
-5.000000
-5.000000
-5.000000
0.000000
0.000000
0.000000
0.000000
2.617814
4.759559
7.039588
9.357129
11.710867
14.054951
16.323378
18.429886
20.276177
21.762128
22.797513
23.313223
23.270109
22.663842
21.524942
19.913980
17.912869
15.613882
13.108168
10.476609
7.778756
5.074014
2.280285
0.002216
-5.000000
-5.000000
-5.000000
0.000000
0.000000
0.000000
0.000000
2.674004
4.862918
7.194981
9.567795
11.980154
14.384963
16.714159
18.878670
20.776943
22.305517
23.371166
23.902512
23.859161
23.236738
22.066900
20.412366
18.357896
15.998903
13.429564
10.733285
7.971493
5.204055
2.351741
0.002229
-5.000000
-5.000000
-5.000000
0.000000
0.000000
0.000000
0.000000
2.702489
4.915312
7.273746
9.674568
12.116624
14.552191
16.912162
19.106044
21.030634
22.580786
23.661757
24.201017
24.157547
23.526946
22.341447
20.664857
18.583370
16.193993
13.592430
10.863368
8.069181
5.269970
2.387968
0.002493
-5.000000
-5.000000
-5.000000
0.000000
0.000000
0.000000
0.000000
2.702490
4.915307
7.273728
9.674526
12.116546
14.552065
16.911980
19.105803
21.030335
22.580436
23.661369
24.200610
24.157139
23.526557
22.341094
20.664552
18.583122
16.193803
13.592294
10.863277
8.069126
5.269941
2.387956
0.002495
-5.000000
-5.000000
-5.000000
0.000000
0.000000
0.000000
0.000000
2.674005
4.862903
7.194925
9.567666
11.979916
14.384582
16.713611
18.877944
20.776041
22.304464
23.370000
23.901285
23.857932
23.235566
22.065836
20.411450
18.357148
15.998329
13.429151
10.733010
7.971326
5.203966
2.351705
0.002236
-5.000000
-5.000000
-5.000000
0.000000
0.000000
0.000000
0.000000
2.617811
4.759529
7.039488
9.356906
11.710461
14.054307
16.322457
18.428667
20.274668
21.760367
22.795564
23.311174
23.268057
22.661884
21.523164
19.912446
17.911616
15.612916
13.107471
10.476143
7.778472
5.073862
2.280222
0.002233
-5.000000
-5.000000
-5.000000
0.000000
0.000000
0.000000
0.000000
2.535493
4.608099
6.811805
9.048200
11.315805
13.570593
15.749602
17.770710
19.540434
20.963580
21.954358
22.447021
22.404255
21.821802
20.728496
19.181728
17.259199
15.048538
12.636420
10.099999
7.496064
4.883350
2.175537
0.001046
-5.000000
-5.000000
-5.000000
0.000000
0.000000
0.000000
0.000000
2.429461
4.413063
6.518582
8.650675
10.807654
12.947836
15.012144
16.923759
18.595347
19.938022
20.871660
21.334812
21.292512
20.740592
19.705734
18.241262
16.419500
14.322133
12.030120
9.615844
7.132554
4.638125
2.040835
0.001296
-5.000000
-5.000000
-5.000000
0.000000
0.000000
0.000000
0.000000
2.302939
4.180369
6.168813
8.176598
10.201793
12.205496
14.133256
15.914549
17.469356
18.716282
19.581945
20.010004
19.968283
19.452725
18.487451
17.120954
15.419158
13.456688
11.307701
9.038903
6.699333
4.345843
1.880234
0.000353
-5.000000
-5.000000
-5.000000
0.000000
0.000000
0.000000
0.000000
2.159855
3.917285
5.773506
7.641027
9.517645
11.367595
13.141612
14.776243
16.199673
17.338916
18.128156
18.516783
18.475758
18.001147
17.114201
15.857988
14.291255
12.480693
10.492824
8.387979
6.210454
4.015931
1.698908
-0.000270
-5.000000
-5.000000
-5.000000
0.000000
0.000000
0.000000
0.000000
2.004624
3.631990
5.345084
7.061007
8.777277
10.461499
12.069973
13.546816
14.828995
15.852524
16.559683
16.906002
16.865798
16.435273
15.632609
14.495073
13.073725
11.426769
9.612539
7.684525
5.681922
3.659146
1.502740
-0.002120
-5.000000
-5.000000
-5.000000
0.000000
0.000000
0.000000
0.000000
1.841820
3.332977
4.896485
6.454350
8.003823
9.516003
10.952913
12.266448
13.402592
14.306591
14.929035
15.231752
15.192510
14.807656
14.092229
13.077551
11.806798
10.329454
8.695438
6.951188
5.130618
3.286821
1.298005
-0.002471
-5.000000
-5.000000
-5.000000
0.000000
0.000000
0.000000
0.000000
1.675776
3.028318
4.440048
5.838119
7.219544
8.558922
9.823954
10.974219
11.964600
12.749453
13.287563
13.546974
13.508861
13.169728
12.541527
11.649725
10.529727
9.222405
7.769348
6.209985
4.572936
2.909936
1.090659
-0.003388
-5.000000
-5.000000
-5.000000
0.000000
0.000000
0.000000
0.000000
1.510182
2.724907
3.986376
5.227066
6.443808
7.614601
8.712578
9.704638
10.554123
11.224039
11.680951
11.898809
11.862036
11.567299
11.023639
10.250984
9.277368
8.135474
6.858932
5.480431
4.023423
2.538249
0.886019
-0.004979
-5.000000
-5.000000
-5.000000
0.000000
0.000000
0.000000
0.000000
1.347749
2.427854
3.543395
4.632335
5.691391
6.701784
7.641666
8.484663
9.201862
9.764180
10.145296
10.324565
10.289396
10.036631
9.572682
8.912442
8.077219
7.092194
5.983650
4.777967
3.493641
2.179542
0.688376
-0.005592
-5.000000
-5.000000
-5.000000
0.000000
0.000000
0.000000
0.000000
1.190024
2.140118
3.115797
4.060673
4.971437
5.832287
6.625874
7.331781
7.927926
8.392192
8.704521
8.849040
8.815806
8.601854
8.211328
7.654737
6.947495
6.108162
5.156460
4.112989
2.991440
1.839049
0.500485
-0.007539
-5.000000
-5.000000
-5.000000
0.000000
0.000000
0.000000
0.000000
1.037381
1.862492
2.704988
3.514325
4.287273
5.010731
5.671248
6.253505
6.741217
7.118166
7.369602
7.483703
7.452807
7.274164
6.950067
6.487378
5.896571
5.190593
4.383494
3.490617
2.520856
1.517072
0.313937
-0.007898
-5.000000
-5.000000
-5.000000
0.000000
0.000000
0.000000
0.000000
0.889205
1.593925
2.309548
2.991626
3.637112
4.235327
4.776105
5.248324
5.640432
5.941007
6.139620
6.227764
6.199677
6.052858
5.788190
5.409666
4.923821
4.339044
3.664665
2.911157
2.083113
1.208543
0.110289
-0.009033
-5.000000
-5.000000
-5.000000
0.000000
0.000000
0.000000
0.000000
0.744232
1.332133
1.926129
2.488172
3.015500
3.499596
3.932985
4.307881
4.616434
4.850959
5.004393
5.070844
5.046090
4.927921
4.716243
4.412952
4.021630
3.547147
2.995045
2.371182
1.676817
0.911556
0.009917
-1.962176
-5.000000
-5.000000
-5.000000
0.000000
0.000000
0.000000
0.000000
0.600911
1.074258
1.550427
1.998106
2.414921
2.794291
3.130896
3.419507
3.655043
3.832596
3.947614
3.996184
3.975311
3.883122
3.718956
3.483325
3.177772
2.804624
2.366520
1.865067
1.300012
0.633515
0.009689
-2.257816
-5.000000
-5.000000
-5.000000
0.000000
0.000000
0.000000
0.000000
0.458071
0.818086
1.178955
1.516453
1.828680
2.110802
2.359207
2.570555
2.741750
2.869842
2.952070
2.985966
2.969496
2.901177
2.780139
2.606132
2.379468
2.100820
1.770776
1.387295
0.949628
0.386080
0.009179
-2.368903
-5.000000
-5.000000
-5.000000
0.000000
0.000000
0.000000
0.000000
0.313638
0.559693
0.805708
1.034884
1.245882
1.435484
1.601440
1.741789
1.854801
1.938855
1.992414
2.014046
2.002485
1.956683
1.875859
1.759512
1.607399
1.419349
1.194821
0.929818
0.623458
0.187936
0.008555
-2.331832
-5.000000
-5.000000
-5.000000
0.000000
0.000000
0.000000
0.000000
0.174061
0.310684
0.446902
0.573491
0.689663
0.793670
0.884342
0.960710
1.021952
1.067313
1.096066
1.107511
1.100987
1.075901
1.031752
0.968140
0.884755
0.781241
0.656856
0.508060
0.333084
0.062860
0.007904
-2.112211
-5.000000
-5.000000
-5.000000
0.000000
0.000000
0.000000
0.000000
0.000000
0.000000
0.000000
0.000000
0.000000
0.000000
0.000000
0.000000
0.000000
0.000000
0.000000
0.000000
0.000000
0.000000
0.000000
0.000000
0.000000
0.000000
0.000000
0.000000
0.000000
0.000000
0.000000
0.000000
-5.000000
-5.000000
-5.000000
0.000000
0.000000
0.000000
0.000000
0.000000
0.000000
0.000000
0.000000
0.000000
0.000000
0.000000
0.000000
0.000000
0.000000
0.000000
0.000000
0.000000
0.000000
0.000000
0.000000
0.000000
0.000000
0.000000
0.000000
0.000000
0.000000
0.000000
0.000000
-5.000000
-5.000000
-5.000000
0.000000
0.000000
0.000000
0.000000
0.000000
0.000000
0.000000
0.000000
0.000000
0.000000
0.000000
0.000000
0.000000
0.000000
0.000000
0.000000
0.000000
0.000000
0.000000
0.000000
0.000000
0.000000
0.000000
0.000000
0.000000
0.000000
0.000000
0.000000
-5.000000
-5.000000
-5.000000
0.000000
0.000000
0.000000
0.000000
0.000000
0.000000
0.000000
0.000000
0.000000
0.000000
0.000000
0.000000
0.000000
0.000000
0.000000
0.000000
0.000000
0.000000
0.000000
0.000000
0.000000
0.000000
0.000000
0.000000
0.000000
0.000000
0.000000
0.000000
-5.000000
-5.000000
-5.000000
</DataArray>
</PointData>
<Cells>
<DataArray type='Int32' Name='connectivity' format='ascii'>
0
1
2
3
4
5
6
7
8
9
10
11
12
13
14
15
16
17
18
19
20
21
22
23
24
25
26
27
28
29
30
31
32
33
34
35
36
37
38
39
40
41
42
43
44
45
46
47
48
49
50
51
52
53
54
55
56
57
58
59
60
61
62
63
64
65
66
67
68
69
70
71
72
73
74
75
76
77
78
79
80
81
82
83
84
85
86
87
88
89
90
91
92
93
94
95
96
97
98
99
100
101
102
103
104
105
106
107
108
109
110
111
112
113
114
115
116
117
118
119
120
121
122
123
124
125
126
127
128
129
130
131
132
133
134
135
136
137
138
139
140
141
142
143
144
145
146
147
148
149
150
151
152
153
154
155
156
157
158
159
160
161
162
163
164
165
166
167
168
169
170
171
172
173
174
175
176
177
178
179
180
181
182
183
184
185
186
187
188
189
190
191
192
193
194
195
196
197
198
199
200
201
202
203
204
205
206
207
208
209
210
211
212
213
214
215
216
217
218
219
220
221
222
223
224
225
226
227
228
229
230
231
232
233
234
235
236
237
238
239
240
241
242
243
244
245
246
247
248
249
250
251
252
253
254
255
256
257
258
259
260
261
262
263
264
265
266
267
268
269
270
271
272
273
274
275
276
277
278
279
280
281
282
283
284
285
286
287
288
289
290
291
292
293
294
295
296
297
298
299
300
301
302
303
304
305
306
307
308
309
310
311
312
313
314
315
316
317
318
319
320
321
322
323
324
325
326
327
328
329
330
331
332
333
334
335
336
337
338
339
340
341
342
343
344
345
346
347
348
349
350
351
352
353
354
355
356
357
358
359
360
361
362
363
364
365
366
367
368
369
370
371
372
373
374
375
376
377
378
379
380
381
382
383
384
385
386
387
388
389
390
391
392
393
394
395
396
397
398
399
400
401
402
403
404
405
406
407
408
409
410
411
412
413
414
415
416
417
418
419
420
421
422
423
424
425
426
427
428
429
430
431
432
433
434
435
436
437
438
439
440
441
442
443
444
445
446
447
448
449
450
451
452
453
454
455
456
457
458
459
460
461
462
463
464
465
466
467
468
469
470
471
472
473
474
475
476
477
478
479
480
481
482
483
484
485
486
487
488
489
490
491
492
493
494
495
496
497
498
499
500
501
502
503
504
505
506
507
508
509
510
511
512
513
514
515
516
517
518
519
520
521
522
523
524
525
526
527
528
529
530
531
532
533
534
535
536
537
538
539
540
541
542
543
544
545
546
547
548
549
550
551
552
553
554
555
556
557
558
559
560
561
562
563
564
565
566
567
568
569
570
571
572
573
574
575
576
577
578
579
580
581
582
583
584
585
586
587
588
589
590
591
592
593
594
595
596
597
598
599
600
601
602
603
604
605
606
607
608
609
610
611
612
613
614
615
616
617
618
619
620
621
622
623
624
625
626
627
628
629
630
631
632
633
634
635
636
637
638
639
640
641
642
643
644
645
646
647
648
649
650
651
652
653
654
655
656
657
658
659
660
661
662
663
664
665
666
667
668
669
670
671
672
673
674
675
676
677
678
679
680
681
682
683
684
685
686
687
688
689
690
691
692
693
694
695
696
697
698
699
700
701
702
703
704
705
706
707
708
709
710
711
712
713
714
715
716
717
718
719
720
721
722
723
724
725
726
727
728
729
730
731
732
733
734
735
736
737
738
739
740
741
742