<?xml version='1.0' encoding='UTF-8'?>
<VTKFile xmlns='VTK' byte_order='LittleEndian' version='0.1' type='UnstructuredGrid'>
<UnstructuredGrid>
<Piece NumberOfCells='1488' NumberOfPoints='1488'>
<Points>
<DataArray NumberOfComponents='3' type='Float32' Name='Position' format='ascii'>
-0.075000 -0.075000 0.000000
-0.075000 -0.050000 0.000000
-0.075000 -0.025000 0.000000
-0.075000 0.000000 0.000000
-0.075000 0.025000 0.000000
-0.075000 0.050000 0.000000
-0.075000 0.075000 0.000000
-0.075000 0.100000 0.000000
-0.075000 0.125000 0.000000
-0.075000 0.150000 0.000000
-0.075000 0.175000 0.000000
-0.075000 0.200000 0.000000
-0.075000 0.225000 0.000000
-0.075000 0.250000 0.000000
-0.075000 0.275000 0.000000
-0.075000 0.300000 0.000000
-0.075000 0.325000 0.000000
-0.075000 0.350000 0.000000
-0.075000 0.375000 0.000000
-0.075000 0.400000 0.000000
-0.075000 0.425000 0.000000
-0.075000 0.450000 0.000000
-0.075000 0.475000 0.000000
-0.075000 0.500000 0.000000
-0.075000 0.525000 0.000000
-0.075000 0.550000 0.000000
-0.075000 0.575000 0.000000
-0.075000 0.600000 0.000000
-0.075000 0.625000 0.000000
-0.075000 0.650000 0.000000
-0.075000 0.675000 0.000000
-0.050000 -0.075000 0.000000
-0.050000 -0.050000 0.000000
-0.050000 -0.025000 0.000000
-0.050000 0.000000 0.000000
-0.050000 0.025000 0.000000
-0.050000 0.050000 0.000000
-0.050000 0.075000 0.000000
-0.050000 0.100000 0.000000
-0.050000 0.125000 0.000000
-0.050000 0.150000 0.000000
-0.050000 0.175000 0.000000
-0.050000 0.200000 0.000000
-0.050000 0.225000 0.000000
-0.050000 0.250000 0.000000
-0.050000 0.275000 0.000000
-0.050000 0.300000 0.000000
-0.050000 0.325000 0.000000
-0.050000 0.350000 0.000000
-0.050000 0.375000 0.000000
-0.050000 0.400000 0.000000
-0.050000 0.425000 0.000000
-0.050000 0.450000 0.000000
-0.050000 0.475000 0.000000
-0.050000 0.500000 0.000000
-0.050000 0.525000 0.000000
-0.050000 0.550000 0.000000
-0.050000 0.575000 0.000000
-0.050000 0.600000 0.000000
-0.050000 0.625000 0.000000
-0.050000 0.650000 0.000000
-0.050000 0.675000 0.000000
-0.025000 -0.075000 0.000000
-0.025000 -0.050000 0.000000
-0.025000 -0.025000 0.000000
-0.025000 0.000000 0.000000
-0.025000 0.025000 0.000000
-0.025000 0.050000 0.000000
-0.025000 0.075000 0.000000
-0.025000 0.100000 0.000000
-0.025000 0.125000 0.000000
-0.025000 0.150000 0.000000
-0.025000 0.175000 0.000000
-0.025000 0.200000 0.000000
-0.025000 0.225000 0.000000
-0.025000 0.250000 0.000000
-0.025000 0.275000 0.000000
-0.025000 0.300000 0.000000
-0.025000 0.325000 0.000000
-0.025000 0.350000 0.000000
-0.025000 0.375000 0.000000
-0.025000 0.400000 0.000000
-0.025000 0.425000 0.000000
-0.025000 0.450000 0.000000
-0.025000 0.475000 0.000000
-0.025000 0.500000 0.000000
-0.025000 0.525000 0.000000
-0.025000 0.550000 0.000000
-0.025000 0.575000 0.000000
-0.025000 0.600000 0.000000
-0.025000 0.625000 0.000000
-0.025000 0.650000 0.000000
-0.025000 0.675000 0.000000
0.000000 -0.075000 0.000000
0.000000 -0.050000 0.000000
0.000000 -0.025000 0.000000
0.000000 0.000000 0.000000
0.000000 0.025000 0.000000
0.000000 0.050000 0.000000
0.000000 0.075000 0.000000
0.000000 0.100000 0.000000
0.000000 0.125000 0.000000
0.000000 0.150000 0.000000
0.000000 0.175000 0.000000
0.000000 0.200000 0.000000
0.000000 0.225000 0.000000
0.000000 0.250000 0.000000
0.000000 0.275000 0.000000
0.000000 0.300000 0.000000
0.000000 0.325000 0.000000
0.000000 0.350000 0.000000
0.000000 0.375000 0.000000
0.000000 0.400000 0.000000
0.000000 0.425000 0.000000
0.000000 0.450000 0.000000
0.000000 0.475000 0.000000
0.000000 0.500000 0.000000
0.000000 0.525000 0.000000
0.000000 0.550000 0.000000
0.000000 0.575000 0.000000
0.000000 0.600000 0.000000
0.000000 0.625000 0.000000
0.000000 0.650000 0.000000
0.000000 0.675000 0.000000
0.025000 -0.075000 0.000000
0.025000 -0.050000 0.000000
0.025000 -0.025000 0.000000
0.025000 0.000000 0.000000
0.025000 0.025000 0.000000
0.025000 0.050000 0.000000
0.025000 0.075000 0.000000
0.025000 0.100000 0.000000
0.025000 0.125000 0.000000
0.025000 0.150000 0.000000
0.025000 0.175000 0.000000
0.025000 0.200000 0.000000
0.025000 0.225000 0.000000
0.025000 0.250000 0.000000
0.025000 0.275000 0.000000
0.025000 0.300000 0.000000
0.025000 0.325000 0.000000
0.025000 0.350000 0.000000
0.025000 0.375000 0.000000
0.025000 0.400000 0.000000
0.025000 0.425000 0.000000
0.025000 0.450000 0.000000
0.025000 0.475000 0.000000
0.025000 0.500000 0.000000
0.025000 0.525000 0.000000
0.025000 0.550000 0.000000
0.025000 0.575000 0.000000
0.025000 0.600000 0.000000
0.025000 0.625000 0.000000
0.025000 0.650000 0.000000
0.025000 0.675000 0.000000
0.050000 -0.075000 0.000000
0.050000 -0.050000 0.000000
0.050000 -0.025000 0.000000
0.050000 0.000000 0.000000
0.050000 0.025000 0.000000
0.050000 0.050000 0.000000
0.050000 0.075000 0.000000
0.050000 0.100000 0.000000
0.050000 0.125000 0.000000
0.050000 0.150000 0.000000
0.050000 0.175000 0.000000
0.050000 0.200000 0.000000
0.050000 0.225000 0.000000
0.050000 0.250000 0.000000
0.050000 0.275000 0.000000
0.050000 0.300000 0.000000
0.050000 0.325000 0.000000
0.050000 0.350000 0.000000
0.050000 0.375000 0.000000
0.050000 0.400000 0.000000
0.050000 0.425000 0.000000
0.050000 0.450000 0.000000
0.050000 0.475000 0.000000
0.050000 0.500000 0.000000
0.050000 0.525000 0.000000
0.050000 0.550000 0.000000
0.050000 0.575000 0.000000
0.050000 0.600000 0.000000
0.050000 0.625000 0.000000
0.050000 0.650000 0.000000
0.050000 0.675000 0.000000
0.075000 -0.075000 0.000000
0.075000 -0.050000 0.000000
0.075000 -0.025000 0.000000
0.075000 0.000000 0.000000
0.075000 0.025000 0.000000
0.075000 0.050000 0.000000
0.075000 0.075000 0.000000
0.075000 0.100000 0.000000
0.075000 0.125000 0.000000
0.075000 0.150000 0.000000
0.075000 0.175000 0.000000
0.075000 0.200000 0.000000
0.075000 0.225000 0.000000
0.075000 0.250000 0.000000
0.075000 0.275000 0.000000
0.075000 0.300000 0.000000
0.075000 0.325000 0.000000
0.075000 0.350000 0.000000
0.075000 0.375000 0.000000
0.075000 0.400000 0.000000
0.075000 0.425000 0.000000
0.075000 0.450000 0.000000
0.075000 0.475000 0.000000
0.075000 0.500000 0.000000
0.075000 0.525000 0.000000
0.075000 0.550000 0.000000
0.075000 0.575000 0.000000
0.075000 0.600000 0.000000
0.075000 0.625000 0.000000
0.075000 0.650000 0.000000
0.075000 0.675000 0.000000
0.100000 -0.075000 0.000000
0.100000 -0.050000 0.000000
0.100000 -0.025000 0.000000
0.100000 0.000000 0.000000
0.100000 0.025000 0.000000
0.100000 0.050000 0.000000
0.100000 0.075000 0.000000
0.100000 0.100000 0.000000
0.100000 0.125000 0.000000
0.100000 0.150000 0.000000
0.100000 0.175000 0.000000
0.100000 0.200000 0.000000
0.100000 0.225000 0.000000
0.100000 0.250000 0.000000
0.100000 0.275000 0.000000
0.100000 0.300000 0.000000
0.100000 0.325000 0.000000
0.100000 0.350000 0.000000
0.100000 0.375000 0.000000
0.100000 0.400000 0.000000
0.100000 0.425000 0.000000
0.100000 0.450000 0.000000
0.100000 0.475000 0.000000
0.100000 0.500000 0.000000
0.100000 0.525000 0.000000
0.100000 0.550000 0.000000
0.100000 0.575000 0.000000
0.100000 0.600000 0.000000
0.100000 0.625000 0.000000
0.100000 0.650000 0.000000
0.100000 0.675000 0.000000
0.125000 -0.075000 0.000000
0.125000 -0.050000 0.000000
0.125000 -0.025000 0.000000
0.125000 0.000000 0.000000
0.125000 0.025000 0.000000
0.125000 0.050000 0.000000
0.125000 0.075000 0.000000
0.125000 0.100000 0.000000
0.125000 0.125000 0.000000
0.125000 0.150000 0.000000
0.125000 0.175000 0.000000
0.125000 0.200000 0.000000
0.125000 0.225000 0.000000
0.125000 0.250000 0.000000
0.125000 0.275000 0.000000
0.125000 0.300000 0.000000
0.125000 0.325000 0.000000
0.125000 0.350000 0.000000
0.125000 0.375000 0.000000
0.125000 0.400000 0.000000
0.125000 0.425000 0.000000
0.125000 0.450000 0.000000
0.125000 0.475000 0.000000
0.125000 0.500000 0.000000
0.125000 0.525000 0.000000
0.125000 0.550000 0.000000
0.125000 0.575000 0.000000
0.125000 0.600000 0.000000
0.125000 0.625000 0.000000
0.125000 0.650000 0.000000
0.125000 0.675000 0.000000
0.150000 -0.075000 0.000000
0.150000 -0.050000 0.000000
0.150000 -0.025000 0.000000
0.150000 0.000000 0.000000
0.150000 0.025000 0.000000
0.150000 0.050000 0.000000
0.150000 0.075000 0.000000
0.150000 0.100000 0.000000
0.150000 0.125000 0.000000
0.150000 0.150000 0.000000
0.150000 0.175000 0.000000
0.150000 0.200000 0.000000
0.150000 0.225000 0.000000
0.150000 0.250000 0.000000
0.150000 0.275000 0.000000
0.150000 0.300000 0.000000
0.150000 0.325000 0.000000
0.150000 0.350000 0.000000
0.150000 0.375000 0.000000
0.150000 0.400000 0.000000
0.150000 0.425000 0.000000
0.150000 0.450000 0.000000
0.150000 0.475000 0.000000
0.150000 0.500000 0.000000
0.150000 0.525000 0.000000
0.150000 0.550000 0.000000
0.150000 0.575000 0.000000
0.150000 0.600000 0.000000
0.150000 0.625000 0.000000
0.150000 0.650000 0.000000
0.150000 0.675000 0.000000
0.175000 -0.075000 0.000000
0.175000 -0.050000 0.000000
0.175000 -0.025000 0.000000
0.175000 0.000000 0.000000
0.175000 0.025000 0.000000
0.175000 0.050000 0.000000
0.175000 0.075000 0.000000
0.175000 0.100000 0.000000
0.175000 0.125000 0.000000
0.175000 0.150000 0.000000
0.175000 0.175000 0.000000
0.175000 0.200000 0.000000
0.175000 0.225000 0.000000
0.175000 0.250000 0.000000
0.175000 0.275000 0.000000
0.175000 0.300000 0.000000
0.175000 0.325000 0.000000
0.175000 0.350000 0.000000
0.175000 0.375000 0.000000
0.175000 0.400000 0.000000
0.175000 0.425000 0.000000
0.175000 0.450000 0.000000
0.175000 0.475000 0.000000
0.175000 0.500000 0.000000
0.175000 0.525000 0.000000
0.175000 0.550000 0.000000
0.175000 0.575000 0.000000
0.175000 0.600000 0.000000
0.175000 0.625000 0.000000
0.175000 0.650000 0.000000
0.175000 0.675000 0.000000
0.200000 -0.075000 0.000000
0.200000 -0.050000 0.000000
0.200000 -0.025000 0.000000
0.200000 0.000000 0.000000
0.200000 0.025000 0.000000
0.200000 0.050000 0.000000
0.200000 0.075000 0.000000
0.200000 0.100000 0.000000
0.200000 0.125000 0.000000
0.200000 0.150000 0.000000
0.200000 0.175000 0.000000
0.200000 0.200000 0.000000
0.200000 0.225000 0.000000
0.200000 0.250000 0.000000
[...]
<PointData>
<DataArray NumberOfComponents='1' type='Int32' Name='ParticleType' format='ascii'>
4
4
4
4
4
4
4
4
4
4
4
4
4
4
4
4
4
4
4
4
4
4
4
4
4
4
4
4
2
2
2
4
4
4
4
4
4
4
4
4
4
4
4
4
4
4
4
4
4
4
4
4
4
4
4
4
4
4
4
2
2
2
4
4
3
3
3
3
3
3
3
3
3
3
3
3
3
3
3
3
3
3
3
3
3
3
3
3
3
3
2
2
2
4
4
3
3
3
3
3
3
3
3
3
3
3
3
3
3
3
3
3
3
3
3
3
3
3
3
3
3
2
2
2
4
4
3
3
0
0
0
0
0
0
0
0
0
0
0
0
0
0
0
0
0
0
0
0
0
0
1
2
2
2
2
4
4
3
3
0
0
0
0
0
0
0
0
0
0
0
0
0
0
0
0
0
0
0
0
0
0
1
2
2
2
2
4
4
3
3
0
0
0
0
0
0
0
0
0
0
0
0
0
0
0
0
0
0
0
0
0
0
1
2
2
2
2
4
4
3
3
0
0
0
0
0
0
0
0
0
0
0
0
0
0
0
0
0
0
0
0
0
0
1
2
2
2
2
4
4
3
3
0
0
0
0
0
0
0
0
0
0
0
0
0
0
0
0
0
0
0
0
0
0
1
2
2
2
2
4
4
3
3
0
0
0
0
0
0
0
0
0
0
0
0
0
0
0
0
0
0
0
0
0
0
1
2
2
2
2
4
4
3
3
0
0
0
0
0
0
0
0
0
0
0
0
0
0
0
0
0
0
0
0
0
0
1
2
2
2
2
4
4
3
3
0
0
0
0
0
0
0
0
0
0
0
0
0
0
0
0
0
0
0
0
0
0
1
2
2
2
2
4
4
3
3
0
0
0
0
0
0
0
0
0
0
0
0
0
0
0
0
0
0
0
0
0
0
0
2
2
2
2
4
4
3
3
0
0
0
0
0
0
0
0
0
0
0
0
0
0
0
0
0
0
0
0
0
0
0
1
2
2
2
4
4
3
3
0
0
0
0
0
0
0
0
0
0
0
0
0
0
0
0
0
0
0
0
0
0
0
1
2
2
2
4
4
3
3
0
0
0
0
0
0
0
0
0
0
0
0
0
0
0
0
0
0
0
0
0
0
0
1
2
2
2
4
4
3
3
0
0
0
0
0
0
0
0
0
0
0
0
0
0
0
0
0
0
0
0
0
0
0
1
2
2
2
4
4
3
3
0
0
0
0
0
0
0
0
0
0
0
0
0
0
0
0
0
0
0
0
0
0
0
1
2
2
2
4
4
3
3
0
0
0
0
0
0
0
0
0
0
0
0
0
0
0
0
0
0
0
0
0
0
0
1
2
2
2
4
4
3
3
0
0
0
0
0
0
0
0
0
0
0
0
0
0
0
0
0
0
0
0
0
0
0
1
2
2
2
4
4
3
3
0
0
0
0
0
0
0
0
0
0
0
0
0
0
0
0
0
0
0
0
0
0
0
1
2
2
2
4
4
3
3
0
0
0
0
0
0
0
0
0
0
0
0
0
0
0
0
0
0
0
0
0
0
0
1
2
2
2
4
4
3
3
0
0
0
0
0
0
0
0
0
0
0
0
0
0
0
0
0
0
0
0
0
0
0
1
2
2
2
4
4
3
3
0
0
0
0
0
0
0
0
0
0
0
0
0
0
0
0
0
0
0
0
0
0
0
1
2
2
2
4
4
3
3
0
0
0
0
0
0
0
0
0
0
0
0
0
0
0
0
0
0
0
0
0
0
0
1
2
2
2
4
4
3
3
0
0
0
0
0
0
0
0
0
0
0
0
0
0
0
0
0
0
0
0
0
0
0
1
2
2
2
4
4
3
3
0
0
0
0
0
0
0
0
0
0
0
0
0
0
0
0
0
0
0
0
0
0
0
1
2
2
2
4
4
3
3
0
0
0
0
0
0
0
0
0
0
0
0
0
0
0
0
0
0
0
0
0
0
0
1
2
2
2
4
4
3
3
0
0
0
0
0
0
0
0
0
0
0
0
0
0
0
0
0
0
0
0
0
0
0
1
2
2
2
4
4
3
3
0
0
0
0
0
0
0
0
0
0
0
0
0
0
0
0
0
0
0
0
0
0
0
1
2
2
2
4
4
3
3
0
0
0
0
0
0
0
0
0
0
0
0
0
0
0
0
0
0
0
0
0
0
0
1
2
2
2
4
4
3
3
0
0
0
0
0
0
0
0
0
0
0
0
0
0
0
0
0
0
0
0
0
0
0
1
2
2
2
4
4
3
3
0
0
0
0
0
0
0
0
0
0
0
0
0
0
0
0
0
0
0
0
0
0
0
1
2
2
2
4
4
3
3
0
0
0
0
0
0
0
0
0
0
0
0
0
0
0
0
0
0
0
0
0
0
0
1
2
2
2
4
4
3
3
0
0
0
0
0
0
0
0
0
0
0
0
0
0
0
0
0
0
0
0
0
0
0
1
2
2
2
4
4
3
3
0
0
0
0
0
0
0
0
0
0
0
0
0
0
0
0
0
0
0
0
0
0
0
2
2
2
2
4
4
3
3
0
0
0
0
0
0
0
0
0
0
0
0
0
0
0
0
0
0
0
0
0
0
1
2
2
2
2
4
4
3
3
0
0
0
0
0
0
0
0
0
0
0
0
0
0
0
0
0
0
0
0
0
0
1
2
2
2
2
4
4
3
3
0
0
0
0
0
0
0
0
0
0
0
0
0
0
0
0
0
0
0
0
0
0
1
2
2
2
2
4
4
3
3
0
0
0
0
0
0
0
0
0
0
0
0
0
0
0
0
0
0
0
0
0
0
1
2
2
2
2
4
4
3
3
0
0
0
0
0
0
0
0
0
0
0
0
0
0
0
0
0
0
0
0
0
0
1
2
2
2
2
4
4
3
3
0
0
0
0
0
0
0
0
0
0
0
0
0
0
0
0
0
0
0
0
0
0
1
2
2
2
2
4
4
3
3
0
0
0
0
0
0
0
0
0
0
0
0
0
0
0
0
0
0
0
0
0
0
1
2
2
2
2
4
4
3
3
0
0
0
0
0
0
0
0
0
0
0
0
0
0
0
0
0
0
0
0
0
0
1
2
2
2
2
4
4
3
3
3
3
3
3
3
3
3
3
3
3
3
3
3
3
3
3
3
3
3
3
3
3
3
3
2
2
2
4
4
3
3
3
3
3
3
3
3
3
3
3
3
3
3
3
3
3
3
3
3
3
3
3
3
3
3
2
2
2
4
4
4
4
4
4
4
4
4
4
4
4
4
4
4
4
4
4
4
4
4
4
4
4
4
4
4
4
2
2
2
4
4
4
4
4
4
4
4
4
4
4
4
4
4
4
4
4
4
4
4
4
4
4
4
4
4
4
4
2
2
2
</DataArray>
<DataArray NumberOfComponents='1' type='Float32' Name='Temperature' format='ascii'>
0.000000
0.000000
0.000000
0.000000
0.000000
0.000000
0.000000
0.000000
0.000000
0.000000
0.000000
0.000000
0.000000
0.000000
0.000000
0.000000
0.000000
0.000000
0.000000
0.000000
0.000000
0.000000
0.000000
0.000000
0.000000
0.000000
0.000000
0.000000
-5.000000
-5.000000
-5.000000
0.000000
0.000000
0.000000
0.000000
0.000000
0.000000
0.000000
0.000000
0.000000
0.000000
0.000000
0.000000
0.000000
0.000000
0.000000
0.000000
0.000000
0.000000
0.000000
0.000000
0.000000
0.000000
0.000000
0.000000
0.000000
0.000000
0.000000
0.000000
-5.000000
-5.000000
-5.000000
0.000000
0.000000
0.000000
0.000000
0.000000
0.000000
0.000000
0.000000
0.000000
0.000000
0.000000
0.000000
0.000000
0.000000
0.000000
0.000000
0.000000
0.000000
0.000000
0.000000
0.000000
0.000000
0.000000
0.000000
0.000000
0.000000
0.000000
0.000000
-5.000000
-5.000000
-5.000000
0.000000
0.000000
0.000000
0.000000
0.000000
0.000000
0.000000
0.000000
0.000000
0.000000
0.000000
0.000000
0.000000
0.000000
0.000000
0.000000
0.000000
0.000000
0.000000
0.000000
0.000000
0.000000
0.000000
0.000000
0.000000
0.000000
0.000000
0.000000
-5.000000
-5.000000
-5.000000
0.000000
0.000000
0.000000
0.000000
0.165889
0.296847
0.428558
0.552471
0.667796
0.772578
0.865224
0.944218
1.008162
1.055781
1.085941
1.097685
1.090270
1.063180
1.016115
0.948910
0.861371
0.752918
0.622372
0.465651
0.285548
0.015720
0.006772
-2.123342
-5.000000
-5.000000
-5.000000
0.000000
0.000000
0.000000
0.000000
0.300072
0.536759
0.775334
1.000127
1.209774
1.400697
1.569920
1.714566
1.831952
1.919605
1.975330
1.997299
1.984120
1.934885
1.849151
1.726803
1.567777
1.371473
1.136433
0.856933
0.539609
0.096093
0.007025
-2.359171
-5.000000
-5.000000
-5.000000
0.000000
0.000000
0.000000
0.000000
0.440675
0.788696
1.140065
1.471982
1.782480
2.066217
2.318615
2.535152
2.711527
2.843743
2.928262
2.962165
2.943307
2.870405
2.743021
2.561381
2.325983
2.036819
1.692906
1.288460
0.832106
0.237167
0.008007
-2.434726
-5.000000
-5.000000
-5.000000
0.000000
0.000000
0.000000
0.000000
0.581970
1.042251
1.508034
1.949505
2.364138
2.744730
3.084872
3.378061
3.617988
3.798737
3.915067
3.962720
3.938679
3.841331
3.670458
3.427019
3.112638
2.728657
2.275358
1.748022
1.154966
0.417962
0.008618
-2.435266
-5.000000
-5.000000
-5.000000
0.000000
0.000000
0.000000
0.000000
0.725931
1.301105
1.884764
2.440175
2.964296
3.447917
3.882497
4.259121
4.568974
4.803705
4.955922
5.019698
4.990987
4.867885
4.650649
4.341414
3.943564
3.460584
2.894801
2.243185
1.511374
0.628692
0.008938
-2.414012
-5.000000
-5.000000
-5.000000
0.000000
0.000000
0.000000
0.000000
0.873311
1.566666
2.272451
2.947092
3.587083
4.181034
4.717924
5.185932
5.573154
5.868215
6.061051
6.143683
6.110849
5.960394
5.693313
5.313399
4.826461
4.238953
3.556136
2.777508
1.904186
0.871631
0.009182
-2.378662
-5.000000
-5.000000
-5.000000
0.000000
0.000000
0.000000
0.000000
1.024948
1.840477
2.673411
3.473397
4.236511
4.948998
5.596972
6.165173
6.637977
7.000348
7.238982
7.343431
7.307008
7.127337
6.806419
6.350192
5.767546
5.068732
4.262995
3.353831
2.338211
1.159233
0.009747
-2.314126
-5.000000
-5.000000
-5.000000
0.000000
0.000000
0.000000
0.000000
1.181273
2.123314
3.088774
4.020563
4.914388
5.753931
6.522057
7.199519
7.766339
8.203168
8.492886
8.622151
8.582634
8.371756
7.992785
7.454256
6.768762
5.951104
5.015601
3.971661
2.816786
1.511172
0.009902
-2.162307
-5.000000
-5.000000
-5.000000
0.000000
0.000000
0.000000
0.000000
1.342122
2.414844
3.517980
4.587735
5.619491
6.594185
7.491066
8.286386
8.955210
9.473261
9.819059
9.975960
9.933785
9.689767
9.248667
8.622027
7.826667
6.882556
5.809926
4.625895
3.334793
1.931612
0.275177
-1.845077
-5.000000
-5.000000
-5.000000
0.000000
0.000000
0.000000
0.000000
1.506544
2.713285
3.958283
5.171084
6.346788
7.463431
8.496332
9.416799
10.194420
10.799458
11.205599
11.392547
11.348088
11.069275
10.562550
9.842799
8.931485
7.854144
6.637313
5.306065
3.875721
2.374567
0.680606
-0.009248
-5.000000
-5.000000
-5.000000
0.000000
0.000000
0.000000
0.000000
1.672712
3.015247
4.404530
5.763537
7.087120
8.350307
9.524258
10.575003
11.466260
12.162431
12.632008
12.850777
12.804349
12.489597
11.914791
11.098401
10.066815
8.851355
7.484841
5.999437
4.418653
2.792439
0.996621
-0.008425
-5.000000
-5.000000
-5.000000
0.000000
0.000000
0.000000
0.000000
1.837945
3.315783
4.849246
6.354901
7.827384
9.238675
10.555649
11.738873
12.745969
13.535247
14.069794
14.321324
14.273189
13.922092
13.278205
12.363723
11.210105
9.854517
8.335867
6.692356
4.953392
3.173429
1.235294
-0.006859
-5.000000
-5.000000
-5.000000
0.000000
0.000000
0.000000
0.000000
1.998845
3.608636
5.283015
6.932396
8.551231
10.108485
11.566755
12.881130
14.003108
14.884868
15.484064
15.768309
15.718693
15.331748
14.619571
13.608094
12.333841
10.839751
9.170576
7.369835
5.471494
3.530435
1.436007
-0.006106
-5.000000
-5.000000
-5.000000
0.000000
0.000000
0.000000
0.000000
2.151523
3.886661
5.695112
7.481515
9.240160
10.937121
12.530864
13.971170
15.203595
16.174367
16.835860
17.151711
17.100812
16.679536
15.901848
14.797309
13.407341
11.780431
9.966875
8.015080
5.963020
3.866553
1.622933
-0.003551
-5.000000
-5.000000
-5.000000
0.000000
0.000000
0.000000
0.000000
2.291880
4.142340
6.074276
7.987057
9.874834
11.701009
13.420196
14.977229
16.312115
17.365526
18.084907
18.430178
18.378180
17.925139
17.086769
15.896017
14.398871
12.648973
10.701751
8.610100
6.415670
4.175394
1.794157
-0.002515
-5.000000
-5.000000
-5.000000
0.000000
0.000000
0.000000
0.000000
2.415898
4.368309
6.409494
8.434189
10.436431
12.377243
14.207813
15.868556
17.294531
18.421446
19.192344
19.563827
19.510908
19.029682
18.137422
16.870101
15.277778
13.418692
11.352832
9.137081
6.816365
4.448600
1.945496
-0.001186
-5.000000
-5.000000
-5.000000
0.000000
0.000000
0.000000
0.000000
2.519902
4.557840
6.690717
8.809400
10.907829
12.945029
14.869297
16.617322
18.119983
19.308801
20.123101
20.516686
20.463023
19.958097
19.020502
17.688760
16.016370
14.065441
11.899812
9.579724
7.152860
4.677976
2.072488
-0.001283
-5.000000
-5.000000
-5.000000
0.000000
0.000000
0.000000
0.000000
2.600764
4.705212
6.909415
9.101235
11.274540
13.386797
15.384049
17.200077
18.762499
19.999566
20.847702
21.258527
21.204299
20.680922
19.708015
18.326094
16.591337
14.568878
12.325553
9.924225
7.414727
4.856468
2.171344
0.000218
-5.000000
-5.000000
-5.000000
0.000000
0.000000
0.000000
0.000000
2.656051
4.805977
7.058958
9.300803
11.525332
13.688945
15.736140
17.598708
19.202034
20.472128
21.343430
21.766060
21.711453
21.175453
20.178385
18.762128
16.984695
14.913291
12.616805
10.159893
7.593860
4.978571
2.238956
0.000315
-5.000000
-5.000000
-5.000000
0.000000
0.000000
0.000000
0.000000
2.684105
4.857109
7.134840
9.402069
11.652587
13.842255
15.914789
17.800968
19.425044
20.711893
21.594946
22.023566
21.968768
21.426367
20.417044
18.983370
17.184290
15.088056
12.764599
10.279485
7.684767
5.040535
2.273274
0.000654
-5.000000
-5.000000
-5.000000
0.000000
0.000000
0.000000
0.000000
2.684092
4.857081
7.134790
9.401989
11.652469
13.842091
15.914573
17.800699
19.424725
20.711531
21.594552
22.023154
21.968356
21.425970
20.416677
18.983045
17.184014
15.087831
12.764425
10.279358
7.684680
5.040481
2.273247
0.000656
-5.000000
-5.000000
-5.000000
0.000000
0.000000
0.000000
0.000000
2.656011
4.805893
7.058809
9.300565
11.524979
13.688455
15.735497
17.597907
19.201083
20.471049
21.342255
21.764835
21.710226
21.174271
20.177293
18.761159
16.983872
14.912622
12.616286
10.159513
7.593600
4.978411
2.238878
0.000323
-5.000000
-5.000000
-5.000000
0.000000
0.000000
0.000000
0.000000
2.600698
4.705073
6.909170
9.100844
11.273961
13.385993
15.382994
17.198763
18.760939
19.997796
20.845777
21.256518
21.202287
20.678985
19.706225
18.324506
16.589987
14.567780
12.324703
9.923602
7.414301
4.856208
2.171217
0.000238
-5.000000
-5.000000
-5.000000
0.000000
0.000000
0.000000
0.000000
2.519812
4.557651
6.690383
8.808868
10.907042
12.943935
14.867862
16.615535
18.117862
19.306393
20.120483
20.513954
20.460285
19.955462
19.018066
17.686599
16.014533
14.063948
11.898655
9.578877
7.152283
4.677626
2.072322
-0.001246
-5.000000
-5.000000
-5.000000
0.000000
0.000000
0.000000
0.000000
2.415789
4.368079
6.409086
8.433539
10.435466
12.375901
14.206052
15.866361
17.291924
18.418487
19.189125
19.560469
19.507543
19.026442
18.134428
16.867445
15.275521
13.416859
11.351415
9.136048
6.815666
4.448183
1.945305
-0.001123
-5.000000
-5.000000
-5.000000
0.000000
0.000000
0.000000
0.000000
2.291758
4.142082
6.073817
7.986321
9.873739
11.699482
13.418189
14.974723
16.309136
17.362142
18.081224
18.426334
18.374328
17.921432
17.083343
15.892980
14.396293
12.646884
10.700145
8.608943
6.414909
4.174964
1.793980
-0.002429
-5.000000
-5.000000
-5.000000
0.000000
0.000000
0.000000
0.000000
2.151398
3.886394
5.694633
7.480739
9.238997
10.935492
12.528714
13.968480
15.200390
16.170721
16.831890
17.147565
17.096656
16.675537
15.898154
14.794038
13.404571
11.778198
9.965185
8.013914
5.962334
3.866261
1.622895
-0.003414
-5.000000
-5.000000
-5.000000
0.000000
0.000000
0.000000
0.000000
1.998729
3.608383
5.282551
6.931634
8.550075
10.106851
11.564585
12.878403
13.999849
14.881153
15.480012
15.764074
15.714447
15.327664
14.615801
13.604763
12.331032
10.837516
9.168955
7.368880
5.471252
3.530803
1.436604
-0.005934
-5.000000
-5.000000
-5.000000
0.000000
0.000000
0.000000
0.000000
1.837850
3.315567
4.848836
6.354207
7.826312
9.237138
10.553587
11.736264
12.742836
13.531663
14.065877
14.317224
14.269078
13.918138
13.274562
12.360513
11.207419
9.852437
8.334522
6.692024
4.954533
3.176037
1.238199
-0.006700
-5.000000
-5.000000
-5.000000
0.000000
0.000000
0.000000
0.000000
1.672648
3.015088
4.404207
5.762963
7.086201
8.348960
9.522423
10.572655
11.463419
12.159165
12.628427
12.847023
12.800581
12.485977
11.911461
11.095480
10.064403
8.849580
7.484001
6.000329
4.422880
2.801617
1.009882
-0.008247
-5.000000
-5.000000
-5.000000
0.000000
0.000000
0.000000
0.000000
1.506518
2.713197
3.958069
5.170664
6.346074
7.462344
8.494815
9.414826
10.192006
10.796662
11.202517
11.389308
11.344834
11.066149
10.559682
9.840299
8.929458
7.852777
6.637124
5.308636
3.884484
2.396548
0.717014
-0.009624
-5.000000
-5.000000
-5.000000
0.000000
0.000000
0.000000
0.000000
1.342135
2.414831
3.517885
4.587486
5.619009
6.593397
7.489919
8.284855
8.953305
9.471029
9.816581
9.973344
9.931152
9.687239
9.246353
8.620025
7.825082
6.881610
5.810305
4.629829
3.347330
1.965052
0.338059
-1.828072
-5.000000
-5.000000
-5.000000
0.000000
0.000000
0.000000
0.000000
1.181321
2.123370
3.088792
4.020480
4.914135
5.753446
6.521291
7.198448
7.764967
8.201530
8.491047
8.620196
8.580659
8.369858
7.991052
7.452765
6.767605
5.950498
5.016213
3.975680
2.828693
1.542668
0.009875
-2.149915
-5.000000
-5.000000
-5.000000
0.000000
0.000000
0.000000
0.000000
1.025023
1.840588
2.673520
3.473453
4.236458
4.948784
5.596554
6.164528
6.637105
6.999272
7.237750
7.342104
7.305659
7.126035
6.805227
6.349164
5.766753
5.068336
4.263477
3.356662
2.345667
1.177155
0.009737
-2.307425
-5.000000
-5.000000
-5.000000
0.000000
0.000000
0.000000
0.000000
0.873401
1.566810
2.272620
2.947247
3.587180
4.181031
4.717786
5.185639
5.572702
5.867617
6.060339
6.142897
6.110036
5.959599
5.692571
5.312741
4.825928
4.238646
3.556323
2.778922
1.907510
0.878072
0.009478
-2.375841
-5.000000
-5.000000
-5.000000
0.000000
0.000000
0.000000
0.000000
0.726023
1.301257
1.884959
2.440382
2.964483
3.448053
3.882555
4.259084
4.568835
4.803469
4.955606
5.019326
4.990585
4.867474
4.650240
4.341011
3.943178
3.460266
2.894686
2.243568
1.512435
0.630410
0.009117
-2.412837
-5.000000
-5.000000
-5.000000
0.000000
0.000000
0.000000
0.000000
0.582052
1.042391
1.508220
1.949717
2.364355
2.744930
3.085036
3.378174
3.618043
3.798734
3.915014
3.962625
3.938552
3.841173
3.670260
3.426762
3.112304
2.728256
2.274964
1.747790
1.155034
0.418434
0.008670
-2.434841
-5.000000
-5.000000
-5.000000
0.000000
0.000000
0.000000
0.000000
0.440739
0.788807
1.140217
1.472164
1.782677
2.066417
2.318805
2.535321
2.711669
2.843855
2.928344
2.962217
2.943328
2.870385
2.742936
2.561195
2.325654
2.036327
1.692285
1.287828
0.831631
0.237012
0.007956
-2.434604
-5.000000
-5.000000
-5.000000
0.000000
0.000000
0.000000
0.000000
0.300115
0.536833
0.775438
1.000254
1.209918
1.400851
1.570076
1.714719
1.832095
1.919735
1.975445
1.997395
1.984189
1.934914
1.849113
1.726659
1.567477
1.370978
1.135747
0.856139
0.538881
0.095618
0.007222
-2.359155
-5.000000
-5.000000
-5.000000
0.000000
0.000000
0.000000
0.000000
0.165910
0.296884
0.428610
0.552538
0.667874
0.772665
0.865316
0.944311
1.008255
1.055870
1.086022
1.097757
1.090325
1.063208
1.016095
0.948813
0.861160
0.752558
0.621854
0.465017
0.284922
0.015258
0.006654
-2.123364
-5.000000
-5.000000
-5.000000
0.000000
0.000000
0.000000
0.000000
0.000000
0.000000
0.000000
0.000000
0.000000
0.000000
0.000000
0.000000
0.000000
0.000000
0.000000
0.000000
0.000000
0.000000
0.000000
0.000000
0.000000
0.000000
0.000000
0.000000
0.000000
0.000000
0.000000
0.000000
-5.000000
-5.000000
-5.000000
0.000000
0.000000
0.000000
0.000000
0.000000
0.000000
0.000000
0.000000
0.000000
0.000000
0.000000
0.000000
0.000000
0.000000
0.000000
0.000000
0.000000
0.000000
0.000000
0.000000
0.000000
0.000000
0.000000
0.000000
0.000000
0.000000
0.000000
0.000000
-5.000000
-5.000000
-5.000000
0.000000
0.000000
0.000000
0.000000
0.000000
0.000000
0.000000
0.000000
0.000000
0.000000
0.000000
0.000000
0.000000
0.000000
0.000000
0.000000
0.000000
0.000000
0.000000
0.000000
0.000000
0.000000
0.000000
0.000000
0.000000
0.000000
0.000000
0.000000
-5.000000
-5.000000
-5.000000
0.000000
0.000000
0.000000
0.000000
0.000000
0.000000
0.000000
0.000000
0.000000
0.000000
0.000000
0.000000
0.000000
0.000000
0.000000
0.000000
0.000000
0.000000
0.000000
0.000000
0.000000
0.000000
0.000000
0.000000
0.000000
0.000000
0.000000
0.000000
-5.000000
-5.000000
-5.000000
</DataArray>
</PointData>
<Cells>
<DataArray type='Int32' Name='connectivity' format='ascii'>
0
1
2
3
4
5
6
7
8
9
10
11
12
13
14
15
16
17
18
19
20
21
22
23
24
25
26
27
28
29
30
31
32
33
34
35
36
37
38
39
40
41
42
43
44
45
46
47
48
49
50
51
52
53
54
55
56
57
58
59
60
61
62
63
64
65
66
67
68
69
70
71
72
73
74
75
76
77
78
79
80
81
82
83
84
85
86
87
88
89
90
91
92
93
94
95
96
97
98
99
100
101
102
103
104
105
106
107
108
109
110
111
112
113
114
115
116
117
118
119
120
121
122
123
124
125
126
127
128
129
130
131
132
133
134
135
136
137
138
139
140
141
142
143
144
145
146
147
148
149
150
151
152
153
154
155
156
157
158
159
160
161
162
163
164
165
166
167
168
169
170
171
172
173
174
175
176
177
178
179
180
181
182
183
184
185
186
187
188
189
190
191
192
193
194
195
196
197
198
199
200
201
202
203
204
205
206
207
208
209
210
211
212
213
214
215
216
217
218
219
220
221
222
223
224
225
226
227
228
229
230
231
232
233
234
235
236
237
238
239
240
241
242
243
244
245
246
247
248
249
250
251
252
253
254
255
256
257
258
259
260
261
262
263
264
265
266
267
268
269
270
271
272
273
274
275
276
277
278
279
280
281
282
283
284
285
286
287
288
289
290
291
292
293
294
295
296
297
298
299
300
301
302
303
304
305
306
307
308
309
310
311
312
313
314
315
316
317
318
319
320
321
322
323
324
325
326
327
328
329
330
331
332
333
334
335
336
337
338
339
340
341
342
343
344
345
346
347
348
349
350
351
352
353
354
355
356
357
358
359
360
361
362
363
364
365
366
367
368
369
370
371
372
373
374
375
376
377
378
379
380
381
382
383
384
385
386
387
388
389
390
391
392
393
394
395
396
397
398
399
400
401
402
403
404
405
406
407
408
409
410
411
412
413
414
415
416
417
418
419
420
421
422
423
424
425
426
427
428
429
430
431
432
433
434
435
436
437
438
439
440
441
442
443
444
445
446
447
448
449
450
451
452
453
454
455
456
457
458
459
460
461
462
463
464
465
466
467
468
469
470
471
472
473
474
475
476
477
478
479
480
481
482
483
484
485
486
487
488
489
490
491
492
493
494
495
496
497
498
499
500
501
502
503
504
505
506
507
508
509
510
511
512
513
514
515
516
517
518
519
520
521
522
523
524
525
526
527
528
529
530
531
532
533
534
535
536
537
538
539
540
541
542
543
544
545
546
547
548
549
550
551
552
553
554
555
556
557
558
559
560
561
562
563
564
565
566
567
568
569
570
571
572
573
574
575
576
577
578
579
580
581
582
583
584
585
586
587
588
589
590
591
592
593
594
595
596
597
598
599
600
601
602
603
604
605
606
607
608
609
610
611
612
613
614
615
616
617
618
619
620
621
622
623
624
625
626
627
628
629
630
631
632
633
634
635
636
637
638
639
640
641
642
643
644
645
646
647
648
649
650
651
652
653
654
655
656
657
658
659
660
661
662
663
664
665
666
667
668
669
670
671
672
673
674
675
676
677
678
679
680
681
682
683
684
685
686
687
688
689
690
691
692
693
694
695
696
697
698
699
700
701
702
703
704
705
706
707
708
709
710
711
712
713
714
715
716
717
718
719
720
721
722
723
724
725
726
727
728
729
730
731
732
733
734
735
736
737
738
739
740
741
742
743
744
745
746