<?xml version='1.0' encoding='UTF-8'?>
<VTKFile xmlns='VTK' byte_order='LittleEndian' version='0.1' type='UnstructuredGrid'>
<UnstructuredGrid>
<Piece NumberOfCells='1488' NumberOfPoints='1488'>
<Points>
<DataArray NumberOfComponents='3' type='Float32' Name='Position' format='ascii'>
-0.075000 -0.075000 0.000000
-0.075000 -0.050000 0.000000
-0.075000 -0.025000 0.000000
-0.075000 0.000000 0.000000
-0.075000 0.025000 0.000000
-0.075000 0.050000 0.000000
-0.075000 0.075000 0.000000
-0.075000 0.100000 0.000000
-0.075000 0.125000 0.000000
-0.075000 0.150000 0.000000
-0.075000 0.175000 0.000000
-0.075000 0.200000 0.000000
-0.075000 0.225000 0.000000
-0.075000 0.250000 0.000000
-0.075000 0.275000 0.000000
-0.075000 0.300000 0.000000
-0.075000 0.325000 0.000000
-0.075000 0.350000 0.000000
-0.075000 0.375000 0.000000
-0.075000 0.400000 0.000000
-0.075000 0.425000 0.000000
-0.075000 0.450000 0.000000
-0.075000 0.475000 0.000000
-0.075000 0.500000 0.000000
-0.075000 0.525000 0.000000
-0.075000 0.550000 0.000000
-0.075000 0.575000 0.000000
-0.075000 0.600000 0.000000
-0.075000 0.625000 0.000000
-0.075000 0.650000 0.000000
-0.075000 0.675000 0.000000
-0.050000 -0.075000 0.000000
-0.050000 -0.050000 0.000000
-0.050000 -0.025000 0.000000
-0.050000 0.000000 0.000000
-0.050000 0.025000 0.000000
-0.050000 0.050000 0.000000
-0.050000 0.075000 0.000000
-0.050000 0.100000 0.000000
-0.050000 0.125000 0.000000
-0.050000 0.150000 0.000000
-0.050000 0.175000 0.000000
-0.050000 0.200000 0.000000
-0.050000 0.225000 0.000000
-0.050000 0.250000 0.000000
-0.050000 0.275000 0.000000
-0.050000 0.300000 0.000000
-0.050000 0.325000 0.000000
-0.050000 0.350000 0.000000
-0.050000 0.375000 0.000000
-0.050000 0.400000 0.000000
-0.050000 0.425000 0.000000
-0.050000 0.450000 0.000000
-0.050000 0.475000 0.000000
-0.050000 0.500000 0.000000
-0.050000 0.525000 0.000000
-0.050000 0.550000 0.000000
-0.050000 0.575000 0.000000
-0.050000 0.600000 0.000000
-0.050000 0.625000 0.000000
-0.050000 0.650000 0.000000
-0.050000 0.675000 0.000000
-0.025000 -0.075000 0.000000
-0.025000 -0.050000 0.000000
-0.025000 -0.025000 0.000000
-0.025000 0.000000 0.000000
-0.025000 0.025000 0.000000
-0.025000 0.050000 0.000000
-0.025000 0.075000 0.000000
-0.025000 0.100000 0.000000
-0.025000 0.125000 0.000000
-0.025000 0.150000 0.000000
-0.025000 0.175000 0.000000
-0.025000 0.200000 0.000000
-0.025000 0.225000 0.000000
-0.025000 0.250000 0.000000
-0.025000 0.275000 0.000000
-0.025000 0.300000 0.000000
-0.025000 0.325000 0.000000
-0.025000 0.350000 0.000000
-0.025000 0.375000 0.000000
-0.025000 0.400000 0.000000
-0.025000 0.425000 0.000000
-0.025000 0.450000 0.000000
-0.025000 0.475000 0.000000
-0.025000 0.500000 0.000000
-0.025000 0.525000 0.000000
-0.025000 0.550000 0.000000
-0.025000 0.575000 0.000000
-0.025000 0.600000 0.000000
-0.025000 0.625000 0.000000
-0.025000 0.650000 0.000000
-0.025000 0.675000 0.000000
0.000000 -0.075000 0.000000
0.000000 -0.050000 0.000000
0.000000 -0.025000 0.000000
0.000000 0.000000 0.000000
0.000000 0.025000 0.000000
0.000000 0.050000 0.000000
0.000000 0.075000 0.000000
0.000000 0.100000 0.000000
0.000000 0.125000 0.000000
0.000000 0.150000 0.000000
0.000000 0.175000 0.000000
0.000000 0.200000 0.000000
0.000000 0.225000 0.000000
0.000000 0.250000 0.000000
0.000000 0.275000 0.000000
0.000000 0.300000 0.000000
0.000000 0.325000 0.000000
0.000000 0.350000 0.000000
0.000000 0.375000 0.000000
0.000000 0.400000 0.000000
0.000000 0.425000 0.000000
0.000000 0.450000 0.000000
0.000000 0.475000 0.000000
0.000000 0.500000 0.000000
0.000000 0.525000 0.000000
0.000000 0.550000 0.000000
0.000000 0.575000 0.000000
0.000000 0.600000 0.000000
0.000000 0.625000 0.000000
0.000000 0.650000 0.000000
0.000000 0.675000 0.000000
0.025000 -0.075000 0.000000
0.025000 -0.050000 0.000000
0.025000 -0.025000 0.000000
0.025000 0.000000 0.000000
0.025000 0.025000 0.000000
0.025000 0.050000 0.000000
0.025000 0.075000 0.000000
0.025000 0.100000 0.000000
0.025000 0.125000 0.000000
0.025000 0.150000 0.000000
0.025000 0.175000 0.000000
0.025000 0.200000 0.000000
0.025000 0.225000 0.000000
0.025000 0.250000 0.000000
0.025000 0.275000 0.000000
0.025000 0.300000 0.000000
0.025000 0.325000 0.000000
0.025000 0.350000 0.000000
0.025000 0.375000 0.000000
0.025000 0.400000 0.000000
0.025000 0.425000 0.000000
0.025000 0.450000 0.000000
0.025000 0.475000 0.000000
0.025000 0.500000 0.000000
0.025000 0.525000 0.000000
0.025000 0.550000 0.000000
0.025000 0.575000 0.000000
0.025000 0.600000 0.000000
0.025000 0.625000 0.000000
0.025000 0.650000 0.000000
0.025000 0.675000 0.000000
0.050000 -0.075000 0.000000
0.050000 -0.050000 0.000000
0.050000 -0.025000 0.000000
0.050000 0.000000 0.000000
0.050000 0.025000 0.000000
0.050000 0.050000 0.000000
0.050000 0.075000 0.000000
0.050000 0.100000 0.000000
0.050000 0.125000 0.000000
0.050000 0.150000 0.000000
0.050000 0.175000 0.000000
0.050000 0.200000 0.000000
0.050000 0.225000 0.000000
0.050000 0.250000 0.000000
0.050000 0.275000 0.000000
0.050000 0.300000 0.000000
0.050000 0.325000 0.000000
0.050000 0.350000 0.000000
0.050000 0.375000 0.000000
0.050000 0.400000 0.000000
0.050000 0.425000 0.000000
0.050000 0.450000 0.000000
0.050000 0.475000 0.000000
0.050000 0.500000 0.000000
0.050000 0.525000 0.000000
0.050000 0.550000 0.000000
0.050000 0.575000 0.000000
0.050000 0.600000 0.000000
0.050000 0.625000 0.000000
0.050000 0.650000 0.000000
0.050000 0.675000 0.000000
0.075000 -0.075000 0.000000
0.075000 -0.050000 0.000000
0.075000 -0.025000 0.000000
0.075000 0.000000 0.000000
0.075000 0.025000 0.000000
0.075000 0.050000 0.000000
0.075000 0.075000 0.000000
0.075000 0.100000 0.000000
0.075000 0.125000 0.000000
0.075000 0.150000 0.000000
0.075000 0.175000 0.000000
0.075000 0.200000 0.000000
0.075000 0.225000 0.000000
0.075000 0.250000 0.000000
0.075000 0.275000 0.000000
0.075000 0.300000 0.000000
0.075000 0.325000 0.000000
0.075000 0.350000 0.000000
0.075000 0.375000 0.000000
0.075000 0.400000 0.000000
0.075000 0.425000 0.000000
0.075000 0.450000 0.000000
0.075000 0.475000 0.000000
0.075000 0.500000 0.000000
0.075000 0.525000 0.000000
0.075000 0.550000 0.000000
0.075000 0.575000 0.000000
0.075000 0.600000 0.000000
0.075000 0.625000 0.000000
0.075000 0.650000 0.000000
0.075000 0.675000 0.000000
0.100000 -0.075000 0.000000
0.100000 -0.050000 0.000000
0.100000 -0.025000 0.000000
0.100000 0.000000 0.000000
0.100000 0.025000 0.000000
0.100000 0.050000 0.000000
0.100000 0.075000 0.000000
0.100000 0.100000 0.000000
0.100000 0.125000 0.000000
0.100000 0.150000 0.000000
0.100000 0.175000 0.000000
0.100000 0.200000 0.000000
0.100000 0.225000 0.000000
0.100000 0.250000 0.000000
0.100000 0.275000 0.000000
0.100000 0.300000 0.000000
0.100000 0.325000 0.000000
0.100000 0.350000 0.000000
0.100000 0.375000 0.000000
0.100000 0.400000 0.000000
0.100000 0.425000 0.000000
0.100000 0.450000 0.000000
0.100000 0.475000 0.000000
0.100000 0.500000 0.000000
0.100000 0.525000 0.000000
0.100000 0.550000 0.000000
0.100000 0.575000 0.000000
0.100000 0.600000 0.000000
0.100000 0.625000 0.000000
0.100000 0.650000 0.000000
0.100000 0.675000 0.000000
0.125000 -0.075000 0.000000
0.125000 -0.050000 0.000000
0.125000 -0.025000 0.000000
0.125000 0.000000 0.000000
0.125000 0.025000 0.000000
0.125000 0.050000 0.000000
0.125000 0.075000 0.000000
0.125000 0.100000 0.000000
0.125000 0.125000 0.000000
0.125000 0.150000 0.000000
0.125000 0.175000 0.000000
0.125000 0.200000 0.000000
0.125000 0.225000 0.000000
0.125000 0.250000 0.000000
0.125000 0.275000 0.000000
0.125000 0.300000 0.000000
0.125000 0.325000 0.000000
0.125000 0.350000 0.000000
0.125000 0.375000 0.000000
0.125000 0.400000 0.000000
0.125000 0.425000 0.000000
0.125000 0.450000 0.000000
0.125000 0.475000 0.000000
0.125000 0.500000 0.000000
0.125000 0.525000 0.000000
0.125000 0.550000 0.000000
0.125000 0.575000 0.000000
0.125000 0.600000 0.000000
0.125000 0.625000 0.000000
0.125000 0.650000 0.000000
0.125000 0.675000 0.000000
0.150000 -0.075000 0.000000
0.150000 -0.050000 0.000000
0.150000 -0.025000 0.000000
0.150000 0.000000 0.000000
0.150000 0.025000 0.000000
0.150000 0.050000 0.000000
0.150000 0.075000 0.000000
0.150000 0.100000 0.000000
0.150000 0.125000 0.000000
0.150000 0.150000 0.000000
0.150000 0.175000 0.000000
0.150000 0.200000 0.000000
0.150000 0.225000 0.000000
0.150000 0.250000 0.000000
0.150000 0.275000 0.000000
0.150000 0.300000 0.000000
0.150000 0.325000 0.000000
0.150000 0.350000 0.000000
0.150000 0.375000 0.000000
0.150000 0.400000 0.000000
0.150000 0.425000 0.000000
0.150000 0.450000 0.000000
0.150000 0.475000 0.000000
0.150000 0.500000 0.000000
0.150000 0.525000 0.000000
0.150000 0.550000 0.000000
0.150000 0.575000 0.000000
0.150000 0.600000 0.000000
0.150000 0.625000 0.000000
0.150000 0.650000 0.000000
0.150000 0.675000 0.000000
0.175000 -0.075000 0.000000
0.175000 -0.050000 0.000000
0.175000 -0.025000 0.000000
0.175000 0.000000 0.000000
0.175000 0.025000 0.000000
0.175000 0.050000 0.000000
0.175000 0.075000 0.000000
0.175000 0.100000 0.000000
0.175000 0.125000 0.000000
0.175000 0.150000 0.000000
0.175000 0.175000 0.000000
0.175000 0.200000 0.000000
0.175000 0.225000 0.000000
0.175000 0.250000 0.000000
0.175000 0.275000 0.000000
0.175000 0.300000 0.000000
0.175000 0.325000 0.000000
0.175000 0.350000 0.000000
0.175000 0.375000 0.000000
0.175000 0.400000 0.000000
0.175000 0.425000 0.000000
0.175000 0.450000 0.000000
0.175000 0.475000 0.000000
0.175000 0.500000 0.000000
0.175000 0.525000 0.000000
0.175000 0.550000 0.000000
0.175000 0.575000 0.000000
0.175000 0.600000 0.000000
0.175000 0.625000 0.000000
0.175000 0.650000 0.000000
0.175000 0.675000 0.000000
0.200000 -0.075000 0.000000
0.200000 -0.050000 0.000000
0.200000 -0.025000 0.000000
0.200000 0.000000 0.000000
0.200000 0.025000 0.000000
0.200000 0.050000 0.000000
0.200000 0.075000 0.000000
0.200000 0.100000 0.000000
0.200000 0.125000 0.000000
0.200000 0.150000 0.000000
0.200000 0.175000 0.000000
0.200000 0.200000 0.000000
0.200000 0.225000 0.000000
0.200000 0.250000 0.000000
[...]
<PointData>
<DataArray NumberOfComponents='1' type='Int32' Name='ParticleType' format='ascii'>
4
4
4
4
4
4
4
4
4
4
4
4
4
4
4
4
4
4
4
4
4
4
4
4
4
4
4
4
2
2
2
4
4
4
4
4
4
4
4
4
4
4
4
4
4
4
4
4
4
4
4
4
4
4
4
4
4
4
4
2
2
2
4
4
3
3
3
3
3
3
3
3
3
3
3
3
3
3
3
3
3
3
3
3
3
3
3
3
3
3
2
2
2
4
4
3
3
3
3
3
3
3
3
3
3
3
3
3
3
3
3
3
3
3
3
3
3
3
3
3
3
2
2
2
4
4
3
3
0
0
0
0
0
0
0
0
0
0
0
0
0
0
0
0
0
0
0
0
0
1
1
2
2
2
2
4
4
3
3
0
0
0
0
0
0
0
0
0
0
0
0
0
0
0
0
0
0
0
0
0
0
1
2
2
2
2
4
4
3
3
0
0
0
0
0
0
0
0
0
0
0
0
0
0
0
0
0
0
0
0
0
0
1
2
2
2
2
4
4
3
3
0
0
0
0
0
0
0
0
0
0
0
0
0
0
0
0
0
0
0
0
0
0
1
2
2
2
2
4
4
3
3
0
0
0
0
0
0
0
0
0
0
0
0
0
0
0
0
0
0
0
0
0
0
1
2
2
2
2
4
4
3
3
0
0
0
0
0
0
0
0
0
0
0
0
0
0
0
0
0
0
0
0
0
0
1
2
2
2
2
4
4
3
3
0
0
0
0
0
0
0
0
0
0
0
0
0
0
0
0
0
0
0
0
0
0
1
2
2
2
2
4
4
3
3
0
0
0
0
0
0
0
0
0
0
0
0
0
0
0
0
0
0
0
0
0
0
1
2
2
2
2
4
4
3
3
0
0
0
0
0
0
0
0
0
0
0
0
0
0
0
0
0
0
0
0
0
0
1
2
2
2
2
4
4
3
3
0
0
0
0
0
0
0
0
0
0
0
0
0
0
0
0
0
0
0
0
0
0
1
2
2
2
2
4
4
3
3
0
0
0
0
0
0
0
0
0
0
0
0
0
0
0
0
0
0
0
0
0
0
1
2
2
2
2
4
4
3
3
0
0
0
0
0
0
0
0
0
0
0
0
0
0
0
0
0
0
0
0
0
0
1
2
2
2
2
4
4
3
3
0
0
0
0
0
0
0
0
0
0
0
0
0
0
0
0
0
0
0
0
0
0
1
2
2
2
2
4
4
3
3
0
0
0
0
0
0
0
0
0
0
0
0
0
0
0
0
0
0
0
0
0
0
0
2
2
2
2
4
4
3
3
0
0
0
0
0
0
0
0
0
0
0
0
0
0
0
0
0
0
0
0
0
0
0
2
2
2
2
4
4
3
3
0
0
0
0
0
0
0
0
0
0
0
0
0
0
0
0
0
0
0
0
0
0
0
2
2
2
2
4
4
3
3
0
0
0
0
0
0
0
0
0
0
0
0
0
0
0
0
0
0
0
0
0
0
0
2
2
2
2
4
4
3
3
0
0
0
0
0
0
0
0
0
0
0
0
0
0
0
0
0
0
0
0
0
0
0
2
2
2
2
4
4
3
3
0
0
0
0
0
0
0
0
0
0
0
0
0
0
0
0
0
0
0
0
0
0
0
1
2
2
2
4
4
3
3
0
0
0
0
0
0
0
0
0
0
0
0
0
0
0
0
0
0
0
0
0
0
0
1
2
2
2
4
4
3
3
0
0
0
0
0
0
0
0
0
0
0
0
0
0
0
0
0
0
0
0
0
0
0
2
2
2
2
4
4
3
3
0
0
0
0
0
0
0
0
0
0
0
0
0
0
0
0
0
0
0
0
0
0
0
2
2
2
2
4
4
3
3
0
0
0
0
0
0
0
0
0
0
0
0
0
0
0
0
0
0
0
0
0
0
0
2
2
2
2
4
4
3
3
0
0
0
0
0
0
0
0
0
0
0
0
0
0
0
0
0
0
0
0
0
0
0
2
2
2
2
4
4
3
3
0
0
0
0
0
0
0
0
0
0
0
0
0
0
0
0
0
0
0
0
0
0
0
2
2
2
2
4
4
3
3
0
0
0
0
0
0
0
0
0
0
0
0
0
0
0
0
0
0
0
0
0
0
0
2
2
2
2
4
4
3
3
0
0
0
0
0
0
0
0
0
0
0
0
0
0
0
0
0
0
0
0
0
0
0
2
2
2
2
4
4
3
3
0
0
0
0
0
0
0
0
0
0
0
0
0
0
0
0
0
0
0
0
0
0
1
2
2
2
2
4
4
3
3
0
0
0
0
0
0
0
0
0
0
0
0
0
0
0
0
0
0
0
0
0
0
1
2
2
2
2
4
4
3
3
0
0
0
0
0
0
0
0
0
0
0
0
0
0
0
0
0
0
0
0
0
0
1
2
2
2
2
4
4
3
3
0
0
0
0
0
0
0
0
0
0
0
0
0
0
0
0
0
0
0
0
0
0
1
2
2
2
2
4
4
3
3
0
0
0
0
0
0
0
0
0
0
0
0
0
0
0
0
0
0
0
0
0
0
1
2
2
2
2
4
4
3
3
0
0
0
0
0
0
0
0
0
0
0
0
0
0
0
0
0
0
0
0
0
0
1
2
2
2
2
4
4
3
3
0
0
0
0
0
0
0
0
0
0
0
0
0
0
0
0
0
0
0
0
0
0
1
2
2
2
2
4
4
3
3
0
0
0
0
0
0
0
0
0
0
0
0
0
0
0
0
0
0
0
0
0
0
1
2
2
2
2
4
4
3
3
0
0
0
0
0
0
0
0
0
0
0
0
0
0
0
0
0
0
0
0
0
0
1
2
2
2
2
4
4
3
3
0
0
0
0
0
0
0
0
0
0
0
0
0
0
0
0
0
0
0
0
0
0
1
2
2
2
2
4
4
3
3
0
0
0
0
0
0
0
0
0
0
0
0
0
0
0
0
0
0
0
0
0
0
1
2
2
2
2
4
4
3
3
0
0
0
0
0
0
0
0
0
0
0
0
0
0
0
0
0
0
0
0
0
0
1
2
2
2
2
4
4
3
3
0
0
0
0
0
0
0
0
0
0
0
0
0
0
0
0
0
0
0
0
0
1
1
2
2
2
2
4
4
3
3
3
3
3
3
3
3
3
3
3
3
3
3
3
3
3
3
3
3
3
3
3
3
3
3
2
2
2
4
4
3
3
3
3
3
3
3
3
3
3
3
3
3
3
3
3
3
3
3
3
3
3
3
3
3
3
2
2
2
4
4
4
4
4
4
4
4
4
4
4
4
4
4
4
4
4
4
4
4
4
4
4
4
4
4
4
4
2
2
2
4
4
4
4
4
4
4
4
4
4
4
4
4
4
4
4
4
4
4
4
4
4
4
4
4
4
4
4
2
2
2
</DataArray>
<DataArray NumberOfComponents='1' type='Float32' Name='Temperature' format='ascii'>
0.000000
0.000000
0.000000
0.000000
0.000000
0.000000
0.000000
0.000000
0.000000
0.000000
0.000000
0.000000
0.000000
0.000000
0.000000
0.000000
0.000000
0.000000
0.000000
0.000000
0.000000
0.000000
0.000000
0.000000
0.000000
0.000000
0.000000
0.000000
-5.000000
-5.000000
-5.000000
0.000000
0.000000
0.000000
0.000000
0.000000
0.000000
0.000000
0.000000
0.000000
0.000000
0.000000
0.000000
0.000000
0.000000
0.000000
0.000000
0.000000
0.000000
0.000000
0.000000
0.000000
0.000000
0.000000
0.000000
0.000000
0.000000
0.000000
0.000000
-5.000000
-5.000000
-5.000000
0.000000
0.000000
0.000000
0.000000
0.000000
0.000000
0.000000
0.000000
0.000000
0.000000
0.000000
0.000000
0.000000
0.000000
0.000000
0.000000
0.000000
0.000000
0.000000
0.000000
0.000000
0.000000
0.000000
0.000000
0.000000
0.000000
0.000000
0.000000
-5.000000
-5.000000
-5.000000
0.000000
0.000000
0.000000
0.000000
0.000000
0.000000
0.000000
0.000000
0.000000
0.000000
0.000000
0.000000
0.000000
0.000000
0.000000
0.000000
0.000000
0.000000
0.000000
0.000000
0.000000
0.000000
0.000000
0.000000
0.000000
0.000000
0.000000
0.000000
-5.000000
-5.000000
-5.000000
0.000000
0.000000
0.000000
0.000000
0.151667
0.271747
0.393032
0.507782
0.615194
0.713270
0.800240
0.874356
0.933980
0.977626
1.004004
1.012061
1.001014
0.970362
0.919895
0.849680
0.760031
0.651399
0.524475
0.378253
0.218753
0.009876
-0.000542
-2.129340
-5.000000
-5.000000
-5.000000
0.000000
0.000000
0.000000
0.000000
0.274810
0.492068
0.711774
0.919658
1.114314
1.292116
1.449848
1.584335
1.692596
1.771924
1.819974
1.834838
1.815102
1.759879
1.668822
1.542108
1.380408
1.184726
0.956602
0.695079
0.411888
0.016055
-0.001664
-2.370919
-5.000000
-5.000000
-5.000000
0.000000
0.000000
0.000000
0.000000
0.404414
0.724224
1.047684
1.353858
1.640683
1.902813
2.135501
2.334043
2.494021
2.611420
2.682767
2.705246
2.676788
2.596125
2.462812
2.277221
2.040523
1.754537
1.422130
1.043595
0.636206
0.111197
0.000010
-2.452844
-5.000000
-5.000000
-5.000000
0.000000
0.000000
0.000000
0.000000
0.535118
0.958364
1.386588
1.792124
2.172259
2.519914
2.828771
3.092559
3.305375
3.461852
3.557355
3.588144
3.551498
3.445798
3.270555
3.026420
2.715188
2.339708
1.904453
1.412114
0.883858
0.241387
0.001739
-2.460413
-5.000000
-5.000000
-5.000000
0.000000
0.000000
0.000000
0.000000
0.668240
1.196911
1.732007
2.239048
2.714671
3.150019
3.537158
3.868181
4.135631
4.332725
4.453617
4.493609
4.449330
4.318829
4.101625
3.798716
3.412606
2.947276
2.408860
1.802691
1.152611
0.390525
0.003035
-2.449003
-5.000000
-5.000000
-5.000000
0.000000
0.000000
0.000000
0.000000
0.803690
1.439696
2.083717
2.694370
3.267642
3.792863
4.260425
4.660719
4.984660
5.223981
5.371567
5.421736
5.370457
5.215473
4.956355
4.594496
4.133141
3.577387
2.934908
2.213405
1.438426
0.552128
0.004211
-2.431574
-5.000000
-5.000000
-5.000000
0.000000
0.000000
0.000000
0.000000
0.941279
1.686389
2.441246
3.157491
3.830465
4.447649
4.997705
5.469255
5.851512
6.134653
6.310242
6.371581
6.313977
6.134893
5.833988
5.413089
4.876174
4.229368
3.481650
2.642704
1.739102
0.723431
0.005874
-2.411743
-5.000000
-5.000000
-5.000000
0.000000
0.000000
0.000000
0.000000
1.080449
1.935989
2.803143
3.626534
4.400859
5.111722
5.746010
6.290511
6.732668
7.061042
7.265825
7.339276
7.276046
7.073346
6.730972
6.251218
5.638785
4.900701
4.046955
3.088762
2.053098
0.903143
0.006895
-2.390585
-5.000000
-5.000000
-5.000000
0.000000
0.000000
0.000000
0.000000
1.220286
2.186853
3.167020
4.098388
4.975025
5.780637
6.500302
7.118926
7.622130
7.996805
8.231734
8.318121
8.249969
8.024279
7.641046
7.103089
6.415835
5.587107
4.627583
3.549444
2.379257
1.090773
0.007905
-2.368319
-5.000000
-5.000000
-5.000000
0.000000
0.000000
0.000000
0.000000
1.359506
2.436668
3.529509
4.568668
5.547593
6.448096
7.253430
7.946593
8.511347
8.932883
9.198557
9.298510
9.226127
8.978253
8.555159
7.960283
7.199839
6.282394
5.219014
4.022176
2.716783
1.286573
0.008497
-2.344700
-5.000000
-5.000000
-5.000000
0.000000
0.000000
0.000000
0.000000
1.496470
2.682489
3.886316
5.031770
6.111699
7.106045
7.996243
8.763381
9.389358
9.857658
10.154207
10.268103
10.192148
9.923097
9.461598
8.811835
7.980948
6.978319
5.815241
4.503823
3.065401
1.492098
0.009294
-2.318702
-5.000000
-5.000000
-5.000000
0.000000
0.000000
0.000000
0.000000
1.629228
2.920807
4.232330
5.481027
6.659172
7.744888
8.717832
9.557213
10.243090
10.757267
11.084266
11.212173
11.133252
10.844241
10.346275
9.644446
8.747032
7.664471
6.408409
4.990244
3.425766
1.712733
0.009611
-2.286430
-5.000000
-5.000000
-5.000000
0.000000
0.000000
0.000000
0.000000
1.755587
3.147673
4.561795
5.908930
7.180809
8.353821
9.405915
10.314488
11.057827
11.616108
11.972502
12.114133
12.032784
11.725240
11.193227
10.442903
9.483948
8.328249
6.988326
5.475199
3.798934
1.958604
0.009933
-2.238414
-5.000000
-5.000000
-5.000000
0.000000
0.000000
0.000000
0.000000
1.873197
3.358858
4.868547
6.307434
7.666752
8.921271
10.047336
11.020644
11.817808
12.417472
12.801537
12.956232
12.872913
12.548468
11.985279
11.190699
10.176048
8.955118
7.542135
5.948992
4.182193
2.239623
0.092293
-2.161541
-5.000000
-5.000000
-5.000000
0.000000
0.000000
0.000000
0.000000
1.979653
3.550035
5.146283
6.668318
8.106927
9.435410
10.628655
11.660803
12.506937
13.144300
13.553633
13.720354
13.635445
13.295930
12.704868
11.870849
10.806972
9.529299
8.054611
6.397341
4.564068
2.550524
0.321273
-2.049958
-5.000000
-5.000000
-5.000000
0.000000
0.000000
0.000000
0.000000
2.072613
3.716989
5.388859
6.983569
8.491516
9.884717
11.136778
12.220475
13.109543
13.779989
14.211533
14.388882
14.302700
13.950148
13.334929
12.466814
11.360654
10.034899
8.509429
6.802588
4.924345
2.870426
0.587060
-1.907823
-5.000000
-5.000000
-5.000000
0.000000
0.000000
0.000000
0.000000
2.149910
3.855821
5.590594
7.245776
8.811441
10.258537
11.559603
12.686269
13.611145
14.309201
14.759303
14.945562
14.858377
14.495032
13.859785
12.963428
11.822362
10.457238
8.891010
7.146574
5.239358
3.171878
0.875575
-1.717799
-5.000000
-5.000000
-5.000000
0.000000
0.000000
0.000000
0.000000
2.209659
3.963141
5.746550
7.448501
9.058817
10.547621
11.886621
13.046562
13.999176
14.718631
15.183126
15.376307
15.288366
14.916681
14.265933
13.347705
12.179597
10.783986
9.186316
7.413505
5.486517
3.427790
1.150113
-1.447399
-5.000000
-5.000000
-5.000000
0.000000
0.000000
0.000000
0.000000
2.250357
4.036244
5.852789
7.586606
9.227352
10.744585
12.109448
13.292080
14.263615
14.997671
15.471989
15.669898
15.581444
15.204060
14.542703
13.609463
12.422706
11.005880
9.385942
7.592378
5.651297
3.604867
1.375170
-0.009862
-5.000000
-5.000000
-5.000000
0.000000
0.000000
0.000000
0.000000
2.270957
4.073248
5.906566
7.656514
9.312666
10.844292
12.222250
13.416373
14.397490
15.138941
15.618236
15.818541
15.729822
15.349528
14.682732
13.741733
12.545192
11.116916
9.484250
7.677105
5.722224
3.669614
1.437185
-0.009432
-5.000000
-5.000000
-5.000000
0.000000
0.000000
0.000000
0.000000
2.270924
4.073188
5.906476
7.656394
9.312515
10.844110
12.222039
13.416135
14.397230
15.138665
15.617950
15.818249
15.729519
15.349188
14.682282
13.741006
12.543844
11.114262
9.478910
7.666091
5.699234
3.612209
1.330036
-1.316104
-5.000000
-5.000000
-5.000000
0.000000
0.000000
0.000000
0.000000
2.250259
4.036065
5.852523
7.586251
9.226906
10.744048
12.108825
13.291379
14.262848
14.996856
15.471145
15.669039
15.580557
15.203068
14.541391
13.607342
12.418769
10.998145
9.370531
7.561154
5.587565
3.462376
1.108405
-1.573317
-5.000000
-5.000000
-5.000000
0.000000
0.000000
0.000000
0.000000
2.209500
3.962851
5.746120
7.447926
9.058096
10.546753
11.885613
13.045427
13.997936
14.717316
15.181767
15.374929
15.286954
14.915118
14.263881
13.344387
12.173425
10.771902
9.162608
7.367214
5.398805
3.255721
0.881388
-1.745889
-5.000000
-5.000000
-5.000000
0.000000
0.000000
0.000000
0.000000
2.149697
3.855433
5.590018
7.245008
8.810476
10.257376
11.558254
12.684751
13.609487
14.307446
14.757498
14.943744
14.856536
14.493030
13.857196
12.959261
11.814600
10.442107
8.861867
7.091979
5.142179
3.009495
0.651490
-1.880932
-5.000000
-5.000000
-5.000000
0.000000
0.000000
0.000000
0.000000
2.072357
3.716521
5.388164
6.982640
8.490348
9.883312
11.135147
12.218639
13.107541
13.777874
14.209368
14.386723
14.300553
13.947877
13.332075
12.462283
11.352229
10.018552
8.478521
6.747121
4.832167
2.733590
0.425769
-2.002425
-5.000000
-5.000000
-5.000000
0.000000
0.000000
0.000000
0.000000
1.979364
3.549506
5.145497
6.667268
8.105607
9.433821
10.626809
11.658727
12.504676
13.141918
13.551209
13.717966
13.633126
13.293574
12.702047
11.866504
10.798948
9.513794
8.025790
6.347614
4.486693
2.446585
0.210447
-2.110897
-5.000000
-5.000000
-5.000000
0.000000
0.000000
0.000000
0.000000
1.872886
3.358290
4.867704
6.306307
7.665334
8.919563
10.045352
11.018413
11.815381
12.414922
12.798959
12.953728
12.870550
12.546196
11.982762
11.187032
10.169377
8.942254
7.518530
5.909660
4.125029
2.169850
0.025928
-2.197696
-5.000000
-5.000000
-5.000000
0.000000
0.000000
0.000000
0.000000
1.755268
3.147090
4.560928
5.907769
7.179347
8.352060
9.403868
10.312187
11.055327
11.613490
11.969873
12.111616
12.030485
11.723179
11.191193
10.440231
9.479226
8.319094
6.971586
5.448101
3.762219
1.918879
0.009843
-2.255626
-5.000000
-5.000000
-5.000000
0.000000
0.000000
0.000000
0.000000
1.628912
2.920229
4.231470
5.479876
6.657721
7.743139
8.715797
9.554925
10.240607
10.754674
11.081677
11.209729
11.131094
10.842455
10.344787
9.642847
8.744378
7.659170
6.398486
4.974313
3.405502
1.693138
0.009591
-2.293237
-5.000000
-5.000000
-5.000000
0.000000
0.000000
0.000000
0.000000
1.496167
2.681937
3.885493
5.030667
6.110307
7.104365
7.994287
8.761182
9.386971
9.855170
10.151736
10.265799
10.190174
9.921594
9.460605
8.811167
7.980059
6.976248
5.810824
4.496356
3.056041
1.483748
0.009220
-2.321077
-5.000000
-5.000000
-5.000000
0.000000
0.000000
0.000000
0.000000
1.359226
2.436157
3.528745
4.567643
5.546299
6.446532
7.251608
7.944543
8.509122
8.930567
9.196264
9.296390
9.224354
8.976999
8.554540
7.960272
7.200173
6.282535
5.218274
4.020089
2.713734
1.283739
0.008803
-2.345569
-5.000000
-5.000000
-5.000000
0.000000
0.000000
0.000000
0.000000
1.220036
2.186393
3.166334
4.097467
4.973859
5.779225
6.498655
7.117071
7.620116
7.994708
8.229663
8.316214
8.248397
8.023223
7.640656
7.103431
6.416815
5.588435
4.628819
3.550180
2.379386
1.090531
0.007749
-2.368576
-5.000000
-5.000000
-5.000000
0.000000
0.000000
0.000000
0.000000
1.080231
1.935589
2.802545
3.625729
4.399839
5.110485
5.744565
6.288881
6.730896
7.059196
7.264000
7.337598
7.274668
7.072437
6.730689
6.251662
5.639946
4.902419
4.048923
3.090603
2.054489
0.903936
0.006888
-2.390581
-5.000000
-5.000000
-5.000000
0.000000
0.000000
0.000000
0.000000
0.941095
1.686051
2.440740
3.156809
3.829599
4.446596
4.996474
5.467863
5.849996
6.133071
6.308674
6.370134
6.312782
6.134096
5.833730
5.413471
4.877220
4.230982
3.483607
2.644680
1.740746
0.724491
0.005877
-2.411616
-5.000000
-5.000000
-5.000000
0.000000
0.000000
0.000000
0.000000
0.803539
1.439419
2.083302
2.693809
3.266928
3.791994
4.259405
4.659565
4.983400
5.222663
5.370255
5.420517
5.369436
5.214770
4.956083
4.594743
4.133936
3.578668
2.936510
2.215075
1.439870
0.553123
0.004708
-2.431383
-5.000000
-5.000000
-5.000000
0.000000
0.000000
0.000000
0.000000
0.668121
1.196691
1.731676
2.238600
2.714100
3.149323
3.536340
3.867252
4.134615
4.331658
4.452549
4.492609
4.448477
4.318214
4.101335
3.798819
3.413127
2.948173
2.410017
1.803923
1.153699
0.391297
0.003354
-2.448829
-5.000000
-5.000000
-5.000000
0.000000
0.000000
0.000000
0.000000
0.535026
0.958195
1.386333
1.791778
2.171819
2.519376
2.828137
3.091838
3.304584
3.461018
3.556516
3.587349
3.550807
3.445275
3.270265
3.026410
2.715477
2.340269
1.905206
1.412932
0.884591
0.241909
0.001838
-2.460292
-5.000000
-5.000000
-5.000000
0.000000
0.000000
0.000000
0.000000
0.404347
0.724100
1.047497
1.353604
1.640358
1.902417
2.135033
2.333510
2.493435
2.610800
2.682139
2.704645
2.676255
2.595704
2.462548
2.277145
2.040647
1.754845
1.422572
1.044088
0.636653
0.111514
-0.000086
-2.452770
-5.000000
-5.000000
-5.000000
0.000000
0.000000
0.000000
0.000000
0.274764
0.491984
0.711648
0.919487
1.114096
1.291848
1.449532
1.583975
1.692199
1.771502
1.819545
1.834423
1.814727
1.759573
1.668611
1.542013
1.380436
1.184868
0.956829
0.695341
0.412129
0.016235
-0.001288
-2.370867
-5.000000
-5.000000
-5.000000
0.000000
0.000000
0.000000
0.000000
0.151641
0.271700
0.392961
0.507686
0.615071
0.713119
0.800062
0.874153
0.933756
0.977388
1.003760
1.011824
1.000796
0.970179
0.919761
0.849605
0.760019
0.651447
0.524568
0.378366
0.218856
0.009892
-0.000748
-2.129328
-5.000000
-5.000000
-5.000000
0.000000
0.000000
0.000000
0.000000
0.000000
0.000000
0.000000
0.000000
0.000000
0.000000
0.000000
0.000000
0.000000
0.000000
0.000000
0.000000
0.000000
0.000000
0.000000
0.000000
0.000000
0.000000
0.000000
0.000000
0.000000
0.000000
0.000000
0.000000
-5.000000
-5.000000
-5.000000
0.000000
0.000000
0.000000
0.000000
0.000000
0.000000
0.000000
0.000000
0.000000
0.000000
0.000000
0.000000
0.000000
0.000000
0.000000
0.000000
0.000000
0.000000
0.000000
0.000000
0.000000
0.000000
0.000000
0.000000
0.000000
0.000000
0.000000
0.000000
-5.000000
-5.000000
-5.000000
0.000000
0.000000
0.000000
0.000000
0.000000
0.000000
0.000000
0.000000
0.000000
0.000000
0.000000
0.000000
0.000000
0.000000
0.000000
0.000000
0.000000
0.000000
0.000000
0.000000
0.000000
0.000000
0.000000
0.000000
0.000000
0.000000
0.000000
0.000000
-5.000000
-5.000000
-5.000000
0.000000
0.000000
0.000000
0.000000
0.000000
0.000000
0.000000
0.000000
0.000000
0.000000
0.000000
0.000000
0.000000
0.000000
0.000000
0.000000
0.000000
0.000000
0.000000
0.000000
0.000000
0.000000
0.000000
0.000000
0.000000
0.000000
0.000000
0.000000
-5.000000
-5.000000
-5.000000
</DataArray>
</PointData>
<Cells>
<DataArray type='Int32' Name='connectivity' format='ascii'>
0
1
2
3
4
5
6
7
8
9
10
11
12
13
14
15
16
17
18
19
20
21
22
23
24
25
26
27
28
29
30
31
32
33
34
35
36
37
38
39
40
41
42
43
44
45
46
47
48
49
50
51
52
53
54
55
56
57
58
59
60
61
62
63
64
65
66
67
68
69
70
71
72
73
74
75
76
77
78
79
80
81
82
83
84
85
86
87
88
89
90
91
92
93
94
95
96
97
98
99
100
101
102
103
104
105
106
107
108
109
110
111
112
113
114
115
116
117
118
119
120
121
122
123
124
125
126
127
128
129
130
131
132
133
134
135
136
137
138
139
140
141
142
143
144
145
146
147
148
149
150
151
152
153
154
155
156
157
158
159
160
161
162
163
164
165
166
167
168
169
170
171
172
173
174
175
176
177
178
179
180
181
182
183
184
185
186
187
188
189
190
191
192
193
194
195
196
197
198
199
200
201
202
203
204
205
206
207
208
209
210
211
212
213
214
215
216
217
218
219
220
221
222
223
224
225
226
227
228
229
230
231
232
233
234
235
236
237
238
239
240
241
242
243
244
245
246
247
248
249
250
251
252
253
254
255
256
257
258
259
260
261
262
263
264
265
266
267
268
269
270
271
272
273
274
275
276
277
278
279
280
281
282
283
284
285
286
287
288
289
290
291
292
293
294
295
296
297
298
299
300
301
302
303
304
305
306
307
308
309
310
311
312
313
314
315
316
317
318
319
320
321
322
323
324
325
326
327
328
329
330
331
332
333
334
335
336
337
338
339
340
341
342
343
344
345
346
347
348
349
350
351
352
353
354
355
356
357
358
359
360
361
362
363
364
365
366
367
368
369
370
371
372
373
374
375
376
377
378
379
380
381
382
383
384
385
386
387
388
389
390
391
392
393
394
395
396
397
398
399
400
401
402
403
404
405
406
407
408
409
410
411
412
413
414
415
416
417
418
419
420
421
422
423
424
425
426
427
428
429
430
431
432
433
434
435
436
437
438
439
440
441
442
443
444
445
446
447
448
449
450
451
452
453
454
455
456
457
458
459
460
461
462
463
464
465
466
467
468
469
470
471
472
473
474
475
476
477
478
479
480
481
482
483
484
485
486
487
488
489
490
491
492
493
494
495
496
497
498
499
500
501
502
503
504
505
506
507
508
509
510
511
512
513
514
515
516
517
518
519
520
521
522
523
524
525
526
527
528
529
530
531
532
533
534
535
536
537
538
539
540
541
542
543
544
545
546
547
548
549
550
551
552
553
554
555
556
557
558
559
560
561
562
563
564
565
566
567
568
569
570
571
572
573
574
575
576
577
578
579
580
581
582
583
584
585
586
587
588
589
590
591
592
593
594
595
596
597
598
599
600
601
602
603
604
605
606
607
608
609
610
611
612
613
614
615
616
617
618
619
620
621
622
623
624
625
626
627
628
629
630
631
632
633
634
635
636
637
638
639
640
641
642
643
644
645
646
647
648
649
650
651
652
653
654
655
656
657
658
659
660
661
662
663
664
665
666
667
668
669
670
671
672
673
674
675
676
677
678
679
680
681
682
683
684
685
686
687
688
689
690
691
692
693
694
695
696
697
698
699
700
701
702
703
704
705
706
707
708
709
710
711
712
713
714
715
716
717
718
719
720
721
722
723
724
725
726
727
728
729
730
731
732
733
734
735
736
737
738
739
740
741
742
743
744
745
746
747
748
749
750
751
752
753
754
755
756
757
758
759
760
761
762
763