<?xml version='1.0' encoding='UTF-8'?>
<VTKFile xmlns='VTK' byte_order='LittleEndian' version='0.1' type='UnstructuredGrid'>
<UnstructuredGrid>
<Piece NumberOfCells='1488' NumberOfPoints='1488'>
<Points>
<DataArray NumberOfComponents='3' type='Float32' Name='Position' format='ascii'>
-0.075000 -0.075000 0.000000
-0.075000 -0.050000 0.000000
-0.075000 -0.025000 0.000000
-0.075000 0.000000 0.000000
-0.075000 0.025000 0.000000
-0.075000 0.050000 0.000000
-0.075000 0.075000 0.000000
-0.075000 0.100000 0.000000
-0.075000 0.125000 0.000000
-0.075000 0.150000 0.000000
-0.075000 0.175000 0.000000
-0.075000 0.200000 0.000000
-0.075000 0.225000 0.000000
-0.075000 0.250000 0.000000
-0.075000 0.275000 0.000000
-0.075000 0.300000 0.000000
-0.075000 0.325000 0.000000
-0.075000 0.350000 0.000000
-0.075000 0.375000 0.000000
-0.075000 0.400000 0.000000
-0.075000 0.425000 0.000000
-0.075000 0.450000 0.000000
-0.075000 0.475000 0.000000
-0.075000 0.500000 0.000000
-0.075000 0.525000 0.000000
-0.075000 0.550000 0.000000
-0.075000 0.575000 0.000000
-0.075000 0.600000 0.000000
-0.075000 0.625000 0.000000
-0.075000 0.650000 0.000000
-0.075000 0.675000 0.000000
-0.050000 -0.075000 0.000000
-0.050000 -0.050000 0.000000
-0.050000 -0.025000 0.000000
-0.050000 0.000000 0.000000
-0.050000 0.025000 0.000000
-0.050000 0.050000 0.000000
-0.050000 0.075000 0.000000
-0.050000 0.100000 0.000000
-0.050000 0.125000 0.000000
-0.050000 0.150000 0.000000
-0.050000 0.175000 0.000000
-0.050000 0.200000 0.000000
-0.050000 0.225000 0.000000
-0.050000 0.250000 0.000000
-0.050000 0.275000 0.000000
-0.050000 0.300000 0.000000
-0.050000 0.325000 0.000000
-0.050000 0.350000 0.000000
-0.050000 0.375000 0.000000
-0.050000 0.400000 0.000000
-0.050000 0.425000 0.000000
-0.050000 0.450000 0.000000
-0.050000 0.475000 0.000000
-0.050000 0.500000 0.000000
-0.050000 0.525000 0.000000
-0.050000 0.550000 0.000000
-0.050000 0.575000 0.000000
-0.050000 0.600000 0.000000
-0.050000 0.625000 0.000000
-0.050000 0.650000 0.000000
-0.050000 0.675000 0.000000
-0.025000 -0.075000 0.000000
-0.025000 -0.050000 0.000000
-0.025000 -0.025000 0.000000
-0.025000 0.000000 0.000000
-0.025000 0.025000 0.000000
-0.025000 0.050000 0.000000
-0.025000 0.075000 0.000000
-0.025000 0.100000 0.000000
-0.025000 0.125000 0.000000
-0.025000 0.150000 0.000000
-0.025000 0.175000 0.000000
-0.025000 0.200000 0.000000
-0.025000 0.225000 0.000000
-0.025000 0.250000 0.000000
-0.025000 0.275000 0.000000
-0.025000 0.300000 0.000000
-0.025000 0.325000 0.000000
-0.025000 0.350000 0.000000
-0.025000 0.375000 0.000000
-0.025000 0.400000 0.000000
-0.025000 0.425000 0.000000
-0.025000 0.450000 0.000000
-0.025000 0.475000 0.000000
-0.025000 0.500000 0.000000
-0.025000 0.525000 0.000000
-0.025000 0.550000 0.000000
-0.025000 0.575000 0.000000
-0.025000 0.600000 0.000000
-0.025000 0.625000 0.000000
-0.025000 0.650000 0.000000
-0.025000 0.675000 0.000000
0.000000 -0.075000 0.000000
0.000000 -0.050000 0.000000
0.000000 -0.025000 0.000000
0.000000 0.000000 0.000000
0.000000 0.025000 0.000000
0.000000 0.050000 0.000000
0.000000 0.075000 0.000000
0.000000 0.100000 0.000000
0.000000 0.125000 0.000000
0.000000 0.150000 0.000000
0.000000 0.175000 0.000000
0.000000 0.200000 0.000000
0.000000 0.225000 0.000000
0.000000 0.250000 0.000000
0.000000 0.275000 0.000000
0.000000 0.300000 0.000000
0.000000 0.325000 0.000000
0.000000 0.350000 0.000000
0.000000 0.375000 0.000000
0.000000 0.400000 0.000000
0.000000 0.425000 0.000000
0.000000 0.450000 0.000000
0.000000 0.475000 0.000000
0.000000 0.500000 0.000000
0.000000 0.525000 0.000000
0.000000 0.550000 0.000000
0.000000 0.575000 0.000000
0.000000 0.600000 0.000000
0.000000 0.625000 0.000000
0.000000 0.650000 0.000000
0.000000 0.675000 0.000000
0.025000 -0.075000 0.000000
0.025000 -0.050000 0.000000
0.025000 -0.025000 0.000000
0.025000 0.000000 0.000000
0.025000 0.025000 0.000000
0.025000 0.050000 0.000000
0.025000 0.075000 0.000000
0.025000 0.100000 0.000000
0.025000 0.125000 0.000000
0.025000 0.150000 0.000000
0.025000 0.175000 0.000000
0.025000 0.200000 0.000000
0.025000 0.225000 0.000000
0.025000 0.250000 0.000000
0.025000 0.275000 0.000000
0.025000 0.300000 0.000000
0.025000 0.325000 0.000000
0.025000 0.350000 0.000000
0.025000 0.375000 0.000000
0.025000 0.400000 0.000000
0.025000 0.425000 0.000000
0.025000 0.450000 0.000000
0.025000 0.475000 0.000000
0.025000 0.500000 0.000000
0.025000 0.525000 0.000000
0.025000 0.550000 0.000000
0.025000 0.575000 0.000000
0.025000 0.600000 0.000000
0.025000 0.625000 0.000000
0.025000 0.650000 0.000000
0.025000 0.675000 0.000000
0.050000 -0.075000 0.000000
0.050000 -0.050000 0.000000
0.050000 -0.025000 0.000000
0.050000 0.000000 0.000000
0.050000 0.025000 0.000000
0.050000 0.050000 0.000000
0.050000 0.075000 0.000000
0.050000 0.100000 0.000000
0.050000 0.125000 0.000000
0.050000 0.150000 0.000000
0.050000 0.175000 0.000000
0.050000 0.200000 0.000000
0.050000 0.225000 0.000000
0.050000 0.250000 0.000000
0.050000 0.275000 0.000000
0.050000 0.300000 0.000000
0.050000 0.325000 0.000000
0.050000 0.350000 0.000000
0.050000 0.375000 0.000000
0.050000 0.400000 0.000000
0.050000 0.425000 0.000000
0.050000 0.450000 0.000000
0.050000 0.475000 0.000000
0.050000 0.500000 0.000000
0.050000 0.525000 0.000000
0.050000 0.550000 0.000000
0.050000 0.575000 0.000000
0.050000 0.600000 0.000000
0.050000 0.625000 0.000000
0.050000 0.650000 0.000000
0.050000 0.675000 0.000000
0.075000 -0.075000 0.000000
0.075000 -0.050000 0.000000
0.075000 -0.025000 0.000000
0.075000 0.000000 0.000000
0.075000 0.025000 0.000000
0.075000 0.050000 0.000000
0.075000 0.075000 0.000000
0.075000 0.100000 0.000000
0.075000 0.125000 0.000000
0.075000 0.150000 0.000000
0.075000 0.175000 0.000000
0.075000 0.200000 0.000000
0.075000 0.225000 0.000000
0.075000 0.250000 0.000000
0.075000 0.275000 0.000000
0.075000 0.300000 0.000000
0.075000 0.325000 0.000000
0.075000 0.350000 0.000000
0.075000 0.375000 0.000000
0.075000 0.400000 0.000000
0.075000 0.425000 0.000000
0.075000 0.450000 0.000000
0.075000 0.475000 0.000000
0.075000 0.500000 0.000000
0.075000 0.525000 0.000000
0.075000 0.550000 0.000000
0.075000 0.575000 0.000000
0.075000 0.600000 0.000000
0.075000 0.625000 0.000000
0.075000 0.650000 0.000000
0.075000 0.675000 0.000000
0.100000 -0.075000 0.000000
0.100000 -0.050000 0.000000
0.100000 -0.025000 0.000000
0.100000 0.000000 0.000000
0.100000 0.025000 0.000000
0.100000 0.050000 0.000000
0.100000 0.075000 0.000000
0.100000 0.100000 0.000000
0.100000 0.125000 0.000000
0.100000 0.150000 0.000000
0.100000 0.175000 0.000000
0.100000 0.200000 0.000000
0.100000 0.225000 0.000000
0.100000 0.250000 0.000000
0.100000 0.275000 0.000000
0.100000 0.300000 0.000000
0.100000 0.325000 0.000000
0.100000 0.350000 0.000000
0.100000 0.375000 0.000000
0.100000 0.400000 0.000000
0.100000 0.425000 0.000000
0.100000 0.450000 0.000000
0.100000 0.475000 0.000000
0.100000 0.500000 0.000000
0.100000 0.525000 0.000000
0.100000 0.550000 0.000000
0.100000 0.575000 0.000000
0.100000 0.600000 0.000000
0.100000 0.625000 0.000000
0.100000 0.650000 0.000000
0.100000 0.675000 0.000000
0.125000 -0.075000 0.000000
0.125000 -0.050000 0.000000
0.125000 -0.025000 0.000000
0.125000 0.000000 0.000000
0.125000 0.025000 0.000000
0.125000 0.050000 0.000000
0.125000 0.075000 0.000000
0.125000 0.100000 0.000000
0.125000 0.125000 0.000000
0.125000 0.150000 0.000000
0.125000 0.175000 0.000000
0.125000 0.200000 0.000000
0.125000 0.225000 0.000000
0.125000 0.250000 0.000000
0.125000 0.275000 0.000000
0.125000 0.300000 0.000000
0.125000 0.325000 0.000000
0.125000 0.350000 0.000000
0.125000 0.375000 0.000000
0.125000 0.400000 0.000000
0.125000 0.425000 0.000000
0.125000 0.450000 0.000000
0.125000 0.475000 0.000000
0.125000 0.500000 0.000000
0.125000 0.525000 0.000000
0.125000 0.550000 0.000000
0.125000 0.575000 0.000000
0.125000 0.600000 0.000000
0.125000 0.625000 0.000000
0.125000 0.650000 0.000000
0.125000 0.675000 0.000000
0.150000 -0.075000 0.000000
0.150000 -0.050000 0.000000
0.150000 -0.025000 0.000000
0.150000 0.000000 0.000000
0.150000 0.025000 0.000000
0.150000 0.050000 0.000000
0.150000 0.075000 0.000000
0.150000 0.100000 0.000000
0.150000 0.125000 0.000000
0.150000 0.150000 0.000000
0.150000 0.175000 0.000000
0.150000 0.200000 0.000000
0.150000 0.225000 0.000000
0.150000 0.250000 0.000000
0.150000 0.275000 0.000000
0.150000 0.300000 0.000000
0.150000 0.325000 0.000000
0.150000 0.350000 0.000000
0.150000 0.375000 0.000000
0.150000 0.400000 0.000000
0.150000 0.425000 0.000000
0.150000 0.450000 0.000000
0.150000 0.475000 0.000000
0.150000 0.500000 0.000000
0.150000 0.525000 0.000000
0.150000 0.550000 0.000000
0.150000 0.575000 0.000000
0.150000 0.600000 0.000000
0.150000 0.625000 0.000000
0.150000 0.650000 0.000000
0.150000 0.675000 0.000000
0.175000 -0.075000 0.000000
0.175000 -0.050000 0.000000
0.175000 -0.025000 0.000000
0.175000 0.000000 0.000000
0.175000 0.025000 0.000000
0.175000 0.050000 0.000000
0.175000 0.075000 0.000000
0.175000 0.100000 0.000000
0.175000 0.125000 0.000000
0.175000 0.150000 0.000000
0.175000 0.175000 0.000000
0.175000 0.200000 0.000000
0.175000 0.225000 0.000000
0.175000 0.250000 0.000000
0.175000 0.275000 0.000000
0.175000 0.300000 0.000000
0.175000 0.325000 0.000000
0.175000 0.350000 0.000000
0.175000 0.375000 0.000000
0.175000 0.400000 0.000000
0.175000 0.425000 0.000000
0.175000 0.450000 0.000000
0.175000 0.475000 0.000000
0.175000 0.500000 0.000000
0.175000 0.525000 0.000000
0.175000 0.550000 0.000000
0.175000 0.575000 0.000000
0.175000 0.600000 0.000000
0.175000 0.625000 0.000000
0.175000 0.650000 0.000000
0.175000 0.675000 0.000000
0.200000 -0.075000 0.000000
0.200000 -0.050000 0.000000
0.200000 -0.025000 0.000000
0.200000 0.000000 0.000000
0.200000 0.025000 0.000000
0.200000 0.050000 0.000000
0.200000 0.075000 0.000000
0.200000 0.100000 0.000000
0.200000 0.125000 0.000000
0.200000 0.150000 0.000000
0.200000 0.175000 0.000000
0.200000 0.200000 0.000000
0.200000 0.225000 0.000000
0.200000 0.250000 0.000000
[...]
<PointData>
<DataArray NumberOfComponents='1' type='Int32' Name='ParticleType' format='ascii'>
4
4
4
4
4
4
4
4
4
4
4
4
4
4
4
4
4
4
4
4
4
4
4
4
4
4
4
4
2
2
2
4
4
4
4
4
4
4
4
4
4
4
4
4
4
4
4
4
4
4
4
4
4
4
4
4
4
4
4
2
2
2
4
4
3
3
3
3
3
3
3
3
3
3
3
3
3
3
3
3
3
3
3
3
3
3
3
3
3
3
2
2
2
4
4
3
3
3
3
3
3
3
3
3
3
3
3
3
3
3
3
3
3
3
3
3
3
3
3
3
3
2
2
2
4
4
3
3
0
0
0
0
0
0
0
0
0
0
0
0
0
0
0
0
0
0
0
0
0
0
1
2
2
2
2
4
4
3
3
0
0
0
0
0
0
0
0
0
0
0
0
0
0
0
0
0
0
0
0
0
0
1
2
2
2
2
4
4
3
3
0
0
0
0
0
0
0
0
0
0
0
0
0
0
0
0
0
0
0
0
0
0
1
2
2
2
2
4
4
3
3
0
0
0
0
0
0
0
0
0
0
0
0
0
0
0
0
0
0
0
0
0
0
1
2
2
2
2
4
4
3
3
0
0
0
0
0
0
0
0
0
0
0
0
0
0
0
0
0
0
0
0
0
0
1
2
2
2
2
4
4
3
3
0
0
0
0
0
0
0
0
0
0
0
0
0
0
0
0
0
0
0
0
0
0
0
1
2
2
2
4
4
3
3
0
0
0
0
0
0
0
0
0
0
0
0
0
0
0
0
0
0
0
0
0
0
0
1
2
2
2
4
4
3
3
0
0
0
0
0
0
0
0
0
0
0
0
0
0
0
0
0
0
0
0
0
0
0
1
2
2
2
4
4
3
3
0
0
0
0
0
0
0
0
0
0
0
0
0
0
0
0
0
0
0
0
0
0
0
1
2
2
2
4
4
3
3
0
0
0
0
0
0
0
0
0
0
0
0
0
0
0
0
0
0
0
0
0
0
0
1
2
2
2
4
4
3
3
0
0
0
0
0
0
0
0
0
0
0
0
0
0
0
0
0
0
0
0
0
0
0
1
2
2
2
4
4
3
3
0
0
0
0
0
0
0
0
0
0
0
0
0
0
0
0
0
0
0
0
0
0
0
1
2
2
2
4
4
3
3
0
0
0
0
0
0
0
0
0
0
0
0
0
0
0
0
0
0
0
0
0
0
0
1
2
2
2
4
4
3
3
0
0
0
0
0
0
0
0
0
0
0
0
0
0
0
0
0
0
0
0
0
0
0
1
2
2
2
4
4
3
3
0
0
0
0
0
0
0
0
0
0
0
0
0
0
0
0
0
0
0
0
0
0
0
1
2
2
2
4
4
3
3
0
0
0
0
0
0
0
0
0
0
0
0
0
0
0
0
0
0
0
0
0
0
0
1
2
2
2
4
4
3
3
0
0
0
0
0
0
0
0
0
0
0
0
0
0
0
0
0
0
0
0
0
0
0
1
2
2
2
4
4
3
3
0
0
0
0
0
0
0
0
0
0
0
0
0
0
0
0
0
0
0
0
0
0
0
1
2
2
2
4
4
3
3
0
0
0
0
0
0
0
0
0
0
0
0
0
0
0
0
0
0
0
0
0
0
0
1
2
2
2
4
4
3
3
0
0
0
0
0
0
0
0
0
0
0
0
0
0
0
0
0
0
0
0
0
0
0
1
2
2
2
4
4
3
3
0
0
0
0
0
0
0
0
0
0
0
0
0
0
0
0
0
0
0
0
0
0
0
1
2
2
2
4
4
3
3
0
0
0
0
0
0
0
0
0
0
0
0
0
0
0
0
0
0
0
0
0
0
0
1
2
2
2
4
4
3
3
0
0
0
0
0
0
0
0
0
0
0
0
0
0
0
0
0
0
0
0
0
0
0
1
2
2
2
4
4
3
3
0
0
0
0
0
0
0
0
0
0
0
0
0
0
0
0
0
0
0
0
0
0
0
1
2
2
2
4
4
3
3
0
0
0
0
0
0
0
0
0
0
0
0
0
0
0
0
0
0
0
0
0
0
0
1
2
2
2
4
4
3
3
0
0
0
0
0
0
0
0
0
0
0
0
0
0
0
0
0
0
0
0
0
0
0
1
2
2
2
4
4
3
3
0
0
0
0
0
0
0
0
0
0
0
0
0
0
0
0
0
0
0
0
0
0
0
1
2
2
2
4
4
3
3
0
0
0
0
0
0
0
0
0
0
0
0
0
0
0
0
0
0
0
0
0
0
0
1
2
2
2
4
4
3
3
0
0
0
0
0
0
0
0
0
0
0
0
0
0
0
0
0
0
0
0
0
0
0
1
2
2
2
4
4
3
3
0
0
0
0
0
0
0
0
0
0
0
0
0
0
0
0
0
0
0
0
0
0
0
1
2
2
2
4
4
3
3
0
0
0
0
0
0
0
0
0
0
0
0
0
0
0
0
0
0
0
0
0
0
0
1
2
2
2
4
4
3
3
0
0
0
0
0
0
0
0
0
0
0
0
0
0
0
0
0
0
0
0
0
0
0
1
2
2
2
4
4
3
3
0
0
0
0
0
0
0
0
0
0
0
0
0
0
0
0
0
0
0
0
0
0
0
1
2
2
2
4
4
3
3
0
0
0
0
0
0
0
0
0
0
0
0
0
0
0
0
0
0
0
0
0
0
0
1
2
2
2
4
4
3
3
0
0
0
0
0
0
0
0
0
0
0
0
0
0
0
0
0
0
0
0
0
0
0
1
2
2
2
4
4
3
3
0
0
0
0
0
0
0
0
0
0
0
0
0
0
0
0
0
0
0
0
0
0
1
2
2
2
2
4
4
3
3
0
0
0
0
0
0
0
0
0
0
0
0
0
0
0
0
0
0
0
0
0
0
1
2
2
2
2
4
4
3
3
0
0
0
0
0
0
0
0
0
0
0
0
0
0
0
0
0
0
0
0
0
0
1
2
2
2
2
4
4
3
3
0
0
0
0
0
0
0
0
0
0
0
0
0
0
0
0
0
0
0
0
0
0
1
2
2
2
2
4
4
3
3
0
0
0
0
0
0
0
0
0
0
0
0
0
0
0
0
0
0
0
0
0
0
1
2
2
2
2
4
4
3
3
3
3
3
3
3
3
3
3
3
3
3
3
3
3
3
3
3
3
3
3
3
3
3
3
2
2
2
4
4
3
3
3
3
3
3
3
3
3
3
3
3
3
3
3
3
3
3
3
3
3
3
3
3
3
3
2
2
2
4
4
4
4
4
4
4
4
4
4
4
4
4
4
4
4
4
4
4
4
4
4
4
4
4
4
4
4
2
2
2
4
4
4
4
4
4
4
4
4
4
4
4
4
4
4
4
4
4
4
4
4
4
4
4
4
4
4
4
2
2
2
</DataArray>
<DataArray NumberOfComponents='1' type='Float32' Name='Temperature' format='ascii'>
0.000000
0.000000
0.000000
0.000000
0.000000
0.000000
0.000000
0.000000
0.000000
0.000000
0.000000
0.000000
0.000000
0.000000
0.000000
0.000000
0.000000
0.000000
0.000000
0.000000
0.000000
0.000000
0.000000
0.000000
0.000000
0.000000
0.000000
0.000000
-5.000000
-5.000000
-5.000000
0.000000
0.000000
0.000000
0.000000
0.000000
0.000000
0.000000
0.000000
0.000000
0.000000
0.000000
0.000000
0.000000
0.000000
0.000000
0.000000
0.000000
0.000000
0.000000
0.000000
0.000000
0.000000
0.000000
0.000000
0.000000
0.000000
0.000000
0.000000
-5.000000
-5.000000
-5.000000
0.000000
0.000000
0.000000
0.000000
0.000000
0.000000
0.000000
0.000000
0.000000
0.000000
0.000000
0.000000
0.000000
0.000000
0.000000
0.000000
0.000000
0.000000
0.000000
0.000000
0.000000
0.000000
0.000000
0.000000
0.000000
0.000000
0.000000
0.000000
-5.000000
-5.000000
-5.000000
0.000000
0.000000
0.000000
0.000000
0.000000
0.000000
0.000000
0.000000
0.000000
0.000000
0.000000
0.000000
0.000000
0.000000
0.000000
0.000000
0.000000
0.000000
0.000000
0.000000
0.000000
0.000000
0.000000
0.000000
0.000000
0.000000
0.000000
0.000000
-5.000000
-5.000000
-5.000000
0.000000
0.000000
0.000000
0.000000
0.174586
0.311565
0.448054
0.574784
0.690969
0.794878
0.885371
0.961520
1.022543
1.067722
1.096359
1.107770
1.101302
1.076361
1.032435
0.969126
0.886164
0.783343
0.660235
0.513970
0.342116
0.076433
0.008062
-2.112309
-5.000000
-5.000000
-5.000000
0.000000
0.000000
0.000000
0.000000
0.314488
0.561116
0.807565
1.036959
1.247965
1.437393
1.603046
1.743031
1.855684
1.939443
1.992817
2.014403
2.002942
1.957384
1.876929
1.761073
1.609617
1.422580
1.199811
0.938103
0.635615
0.205440
0.008444
-2.333977
-5.000000
-5.000000
-5.000000
0.000000
0.000000
0.000000
0.000000
0.459129
0.819853
1.181250
1.519000
1.831215
2.113099
2.361111
2.572000
2.742751
2.870489
2.952505
2.986363
2.970040
2.902041
2.781474
2.608073
2.382176
2.104609
1.776261
1.395610
0.960939
0.397261
0.009274
-2.377222
-5.000000
-5.000000
-5.000000
0.000000
0.000000
0.000000
0.000000
0.602015
1.076096
1.552800
2.000723
2.417506
2.796616
3.132816
3.420968
3.656082
3.833315
3.948167
3.996747
3.976063
3.884230
3.720561
3.485540
3.180712
2.808478
2.371615
1.871787
1.307404
0.633640
0.009681
-2.276543
-5.000000
-5.000000
-5.000000
0.000000
0.000000
0.000000
0.000000
0.745231
1.333791
1.928265
2.490525
3.017832
3.501729
3.934821
4.309407
4.617707
4.852084
5.005497
5.072059
5.047537
4.929704
4.718445
4.415635
4.024844
3.550958
2.999535
2.376223
1.681272
0.906421
0.009770
-2.002829
-5.000000
-5.000000
-5.000000
0.000000
0.000000
0.000000
0.000000
0.889979
1.595213
2.311221
2.993510
3.639068
4.237278
4.778043
5.250299
5.642526
5.943302
6.142172
6.230597
6.202784
6.056211
5.791754
5.413412
4.927728
4.343100
3.668840
2.915180
2.086247
1.205603
0.095969
-0.009006
-5.000000
-5.000000
-5.000000
0.000000
0.000000
0.000000
0.000000
1.037857
1.863307
2.706106
3.515714
4.288955
5.012788
5.673807
6.256702
6.745153
7.122868
7.375000
7.489637
7.459054
7.280479
6.956229
6.493217
5.901984
5.195531
4.387933
3.494425
2.523620
1.517624
0.310885
-0.007727
-5.000000
-5.000000
-5.000000
0.000000
0.000000
0.000000
0.000000
1.190183
2.140451
3.116407
4.061726
4.973177
5.835011
6.629883
7.337319
7.935105
8.400946
8.714589
8.859992
8.827108
8.612949
8.221726
7.664072
6.955559
6.114896
5.161909
4.117229
2.994466
1.840834
0.501257
-0.007340
-5.000000
-5.000000
-5.000000
0.000000
0.000000
0.000000
0.000000
1.347617
2.427780
3.543659
4.633358
5.693692
6.705926
7.648165
8.493885
9.213919
9.778871
10.162102
10.342700
10.307914
10.054568
9.589192
8.926901
8.089285
7.101799
5.990950
4.783252
3.497244
2.181768
0.689528
-0.005410
-5.000000
-5.000000
-5.000000
0.000000
0.000000
0.000000
0.000000
1.509819
2.724553
3.986529
5.228442
6.447253
7.620988
8.722667
9.718926
10.572710
11.246553
11.706550
11.926268
11.889910
11.594124
11.048134
10.272209
9.294810
8.149053
6.868931
5.487371
4.027933
2.540925
0.887373
-0.004860
-5.000000
-5.000000
-5.000000
0.000000
0.000000
0.000000
0.000000
1.675254
3.027831
4.440338
5.840233
7.224688
8.568312
9.838615
10.994786
11.991149
12.781407
13.323706
13.585578
13.547909
13.207184
12.575611
11.679130
10.553741
9.240926
7.782792
6.219126
4.578713
2.913250
1.092274
-0.003301
-5.000000
-5.000000
-5.000000
0.000000
0.000000
0.000000
0.000000
1.841205
3.332488
4.897124
6.457512
8.011094
9.528957
10.972854
12.294150
13.438096
14.349094
14.976915
15.282738
15.243964
14.856926
14.136997
13.116110
11.838217
10.353600
8.712865
6.962932
5.137941
3.290947
1.299969
-0.002415
-5.000000
-5.000000
-5.000000
0.000000
0.000000
0.000000
0.000000
2.003966
3.631588
5.346206
7.065397
8.786905
10.478298
12.095521
13.582026
14.873867
15.906020
16.619766
16.969844
16.930131
16.496816
15.688490
14.543179
13.112898
11.456839
9.634196
7.699067
5.690937
3.664183
1.505109
-0.002096
-5.000000
-5.000000
-5.000000
0.000000
0.000000
0.000000
0.000000
2.159180
3.917011
5.775155
7.646680
9.529639
11.388205
13.172679
14.818811
16.253701
17.403136
18.200129
18.593145
18.552631
18.074641
17.180913
15.915408
14.338004
12.516568
10.518642
8.405287
6.221156
4.021886
1.701695
-0.000247
-5.000000
-5.000000
-5.000000
0.000000
0.000000
0.000000
0.000000
2.302251
4.180218
6.170953
8.183415
10.215958
12.229599
14.169377
15.963851
17.531758
18.790309
19.664790
20.097811
20.056617
19.537141
18.564062
17.186887
15.472834
13.497868
11.337320
9.058740
6.711577
4.352640
1.883407
0.000402
-5.000000
-5.000000
-5.000000
0.000000
0.000000
0.000000
0.000000
2.428752
4.412999
6.521117
8.658461
10.823651
12.974903
15.052572
16.978810
18.664910
20.020441
20.963813
21.432421
21.390661
20.834360
19.790814
18.314472
16.479087
14.367832
12.062969
9.637819
7.146095
4.645626
2.044329
0.001347
-5.000000
-5.000000
-5.000000
0.000000
0.000000
0.000000
0.000000
2.534751
4.608078
6.814619
9.056716
11.333215
13.599979
15.793420
17.830309
19.615676
21.052668
22.053914
22.552429
22.510215
21.923008
20.820306
19.260710
17.323464
15.097799
12.671802
10.123640
7.510605
4.891386
2.179274
0.001114
-5.000000
-5.000000
-5.000000
0.000000
0.000000
0.000000
0.000000
2.617032
4.759512
7.042470
9.365910
11.728853
14.085330
16.368693
18.491527
20.353998
21.854266
22.900469
23.422220
23.379664
22.768464
21.619830
19.995586
17.979239
15.664724
13.144651
10.500954
7.793706
5.082264
2.284120
0.002303
-5.000000
-5.000000
-5.000000
0.000000
0.000000
0.000000
0.000000
2.673192
4.862873
7.197987
9.576943
11.998882
14.416582
16.761305
18.942783
20.857863
22.401302
23.478178
24.015785
23.972997
23.345435
22.165470
20.497124
18.426812
16.051676
13.467410
10.758516
7.986965
5.212576
2.355693
0.002313
-5.000000
-5.000000
-5.000000
0.000000
0.000000
0.000000
0.000000
2.701659
4.915263
7.276807
9.683891
12.135712
14.584418
16.960212
19.171379
21.113090
22.678381
23.770782
24.316413
24.273510
23.637667
22.441845
20.751177
18.653547
16.247719
13.630947
10.889032
8.084907
5.278622
2.391975
0.002573
-5.000000
-5.000000
-5.000000
0.000000
0.000000
0.000000
0.000000
2.701660
4.915260
7.276792
9.683851
12.135637
14.584295
16.960033
19.171141
21.112793
22.678033
23.770396
24.316007
24.273103
23.637279
22.441493
20.750874
18.653301
16.247531
13.630813
10.888944
8.084854
5.278594
2.391964
0.002575
-5.000000
-5.000000
-5.000000
0.000000
0.000000
0.000000
0.000000
2.673194
4.862862
7.197937
9.576821
11.998651
14.416209
16.760765
18.942062
20.856966
22.400253
23.477015
24.014560
23.971771
23.344266
22.164410
20.496212
18.426070
16.051108
13.467004
10.758248
7.986804
5.212492
2.355659
0.002320
-5.000000
-5.000000
-5.000000
0.000000
0.000000
0.000000
0.000000
2.617033
4.759488
7.042378
9.365696
11.728458
14.084698
16.367781
18.490316
20.352495
21.852509
22.898523
23.420173
23.377613
22.766509
21.618056
19.994058
17.977994
15.663768
13.143966
10.500499
7.793431
5.082119
2.284062
0.002320
-5.000000
-5.000000
-5.000000
0.000000
0.000000
0.000000
0.000000
2.534748
4.608035
6.814479
9.056404
11.332650
13.599083
15.792137
17.828611
19.613573
21.050214
22.051199
22.549573
22.507355
21.920280
20.817829
19.258574
17.321720
15.096457
12.670834
10.122994
7.510212
4.891179
2.179191
0.001146
-5.000000
-5.000000
-5.000000
0.000000
0.000000
0.000000
0.000000
2.428743
4.412937
6.520930
8.658055
10.822924
12.973761
15.050942
16.976659
18.662252
20.017342
20.960386
21.428818
21.387053
20.830917
19.787686
18.311772
16.476878
14.366128
12.061738
9.636994
7.145591
4.645359
2.044225
0.001401
-5.000000
-5.000000
-5.000000
0.000000
0.000000
0.000000
0.000000
2.302238
4.180142
6.170729
8.182935
10.215101
12.228256
14.167465
15.961329
17.528643
18.786678
19.660776
20.093591
20.052391
19.533108
18.560396
17.183721
15.470243
13.495867
11.335872
9.057768
6.710984
4.352328
1.883287
0.000474
-5.000000
-5.000000
-5.000000
0.000000
0.000000
0.000000
0.000000
2.159169
3.916934
5.774918
7.646163
9.528709
11.386741
13.170589
14.816050
16.250287
17.399155
18.195726
18.588515
18.547993
18.070215
17.176892
15.911937
14.335165
12.514377
10.517059
8.404227
6.220511
4.021551
1.701574
-0.000133
-5.000000
-5.000000
-5.000000
0.000000
0.000000
0.000000
0.000000
2.003967
3.631529
5.345989
7.064896
8.785981
10.476822
12.093396
13.579203
14.870365
15.901926
16.615232
16.965073
16.925351
16.492256
15.684351
14.539611
13.109987
11.454602
9.632588
7.697999
5.690296
3.663857
1.504999
-0.001956
-5.000000
-5.000000
-5.000000
0.000000
0.000000
0.000000
0.000000
1.841229
3.332470
4.896967
6.457088
8.010265
9.527591
10.970853
12.291464
13.434740
14.345154
14.972540
15.278127
15.239343
14.852522
14.133006
13.112681
11.835433
10.351476
8.711354
6.961944
5.137362
3.290665
1.299884
-0.002290
-5.000000
-5.000000
-5.000000
0.000000
0.000000
0.000000
0.000000
1.675310
3.027874
4.440276
5.839943
7.224037
8.567172
9.836890
10.992426
11.988165
12.777876
13.319767
13.581418
13.543738
13.203213
12.572025
11.676066
10.551274
9.239067
7.781495
6.218302
4.578252
2.913046
1.092230
-0.003184
-5.000000
-5.000000
-5.000000
0.000000
0.000000
0.000000
0.000000
1.509913
2.724670
3.986586
5.228327
6.446840
7.620162
8.721336
9.717041
10.570277
11.243638
11.703273
11.922793
11.886424
11.590812
11.045159
10.269689
9.292809
8.147577
6.867933
5.486772
4.027635
2.540832
0.887395
-0.004742
-5.000000
-5.000000
-5.000000
0.000000
0.000000
0.000000
0.000000
1.347749
2.427971
3.543841
4.633429
5.693545
6.705457
7.647292
8.492560
9.212143
9.776695
10.159623
10.340053
10.305256
10.052051
9.586949
8.925030
8.087831
7.100763
5.990289
4.782907
3.497163
2.181897
0.689751
-0.005333
-5.000000
-5.000000
-5.000000
0.000000
0.000000
0.000000
0.000000
1.190345
2.140705
3.116697
4.061969
4.973283
5.834891
6.629466
7.336562
7.934003
8.399533
8.712940
8.858209
8.825311
8.611258
8.220242
7.662863
6.954655
6.114286
5.161558
4.117138
2.994792
1.841710
0.502316
-0.007239
-5.000000
-5.000000
-5.000000
0.000000
0.000000
0.000000
0.000000
1.038036
1.863600
2.706471
3.516087
4.289263
5.012961
5.673786
6.256449
6.744658
7.122151
7.374111
7.488649
7.458051
7.279545
6.955433
6.492600
5.901552
5.195256
4.387782
3.494556
2.524644
1.522280
0.323162
-0.007567
-5.000000
-5.000000
-5.000000
0.000000
0.000000
0.000000
0.000000
0.890157
1.595514
2.311616
2.993951
3.639503
4.237653
4.778313
5.250432
5.642508
5.943141
6.141897
6.230254
6.202425
6.055888
5.791506
5.413251
4.927629
4.342999
3.668685
2.915362
2.087807
1.221146
0.138578
-0.008624
-5.000000
-5.000000
-5.000000
0.000000
0.000000
0.000000
0.000000
0.745392
1.334068
1.928642
2.490969
3.018310
3.502203
3.935256
4.309778
4.618001
4.852299
5.005647
5.072164
5.047626
4.929803
4.718565
4.415758
4.024906
3.550829
2.999079
2.375865
1.683096
0.931944
0.009938
-1.643099
-5.000000
-5.000000
-5.000000
0.000000
0.000000
0.000000
0.000000
0.602145
1.076324
1.553119
2.001114
2.417949
2.797088
3.133294
3.421434
3.656522
3.833723
3.948544
3.997099
3.976400
3.884556
3.720866
3.485782
3.180780
2.808143
2.370552
1.870096
1.306857
0.655368
0.009727
-2.163652
-5.000000
-5.000000
-5.000000
0.000000
0.000000
0.000000
0.000000
0.459221
0.820018
1.181485
1.519298
1.831567
2.113493
2.361535
2.572439
2.743195
2.870930
2.952937
2.986784
2.970446
2.902425
2.781814
2.608308
2.382157
2.104011
1.774524
1.392148
0.956079
0.402261
0.009230
-2.328870
-5.000000
-5.000000
-5.000000
0.000000
0.000000
0.000000
0.000000
0.314542
0.561214
0.807709
1.037149
1.248198
1.437665
1.603350
1.743361
1.856031
1.939800
1.993176
2.014757
2.003286
1.957703
1.877200
1.761233
1.609515
1.421865
1.197815
0.933747
0.628617
0.197339
0.008612
-2.319211
-5.000000
-5.000000
-5.000000
0.000000
0.000000
0.000000
0.000000
0.174608
0.311607
0.448119
0.574874
0.691085
0.795018
0.885535
0.961704
1.022743
1.067933
1.096575
1.107985
1.101510
1.076552
1.032590
0.969201
0.886050
0.782780
0.658699
0.510477
0.336197
0.067428
0.007960
-2.108247
-5.000000
-5.000000
-5.000000
0.000000
0.000000
0.000000
0.000000
0.000000
0.000000
0.000000
0.000000
0.000000
0.000000
0.000000
0.000000
0.000000
0.000000
0.000000
0.000000
0.000000
0.000000
0.000000
0.000000
0.000000
0.000000
0.000000
0.000000
0.000000
0.000000
0.000000
0.000000
-5.000000
-5.000000
-5.000000
0.000000
0.000000
0.000000
0.000000
0.000000
0.000000
0.000000
0.000000
0.000000
0.000000
0.000000
0.000000
0.000000
0.000000
0.000000
0.000000
0.000000
0.000000
0.000000
0.000000
0.000000
0.000000
0.000000
0.000000
0.000000
0.000000
0.000000
0.000000
-5.000000
-5.000000
-5.000000
0.000000
0.000000
0.000000
0.000000
0.000000
0.000000
0.000000
0.000000
0.000000
0.000000
0.000000
0.000000
0.000000
0.000000
0.000000
0.000000
0.000000
0.000000
0.000000
0.000000
0.000000
0.000000
0.000000
0.000000
0.000000
0.000000
0.000000
0.000000
-5.000000
-5.000000
-5.000000
0.000000
0.000000
0.000000
0.000000
0.000000
0.000000
0.000000
0.000000
0.000000
0.000000
0.000000
0.000000
0.000000
0.000000
0.000000
0.000000
0.000000
0.000000
0.000000
0.000000
0.000000
0.000000
0.000000
0.000000
0.000000
0.000000
0.000000
0.000000
-5.000000
-5.000000
-5.000000
</DataArray>
</PointData>
<Cells>
<DataArray type='Int32' Name='connectivity' format='ascii'>
0
1
2
3
4
5
6
7
8
9
10
11
12
13
14
15
16
17
18
19
20
21
22
23
24
25
26
27
28
29
30
31
32
33
34
35
36
37
38
39
40
41
42
43
44
45
46
47
48
49
50
51
52
53
54
55
56
57
58
59
60
61
62
63
64
65
66
67
68
69
70
71
72
73
74
75
76
77
78
79
80
81
82
83
84
85
86
87
88
89
90
91
92
93
94
95
96
97
98
99
100
101
102
103
104
105
106
107
108
109
110
111
112
113
114
115
116
117
118
119
120
121
122
123
124
125
126
127
128
129
130
131
132
133
134
135
136
137
138
139
140
141
142
143
144
145
146
147
148
149
150
151
152
153
154
155
156
157
158
159
160
161
162
163
164
165
166
167
168
169
170
171
172
173
174
175
176
177
178
179
180
181
182
183
184
185
186
187
188
189
190
191
192
193
194
195
196
197
198
199
200
201
202
203
204
205
206
207
208
209
210
211
212
213
214
215
216
217
218
219
220
221
222
223
224
225
226
227
228
229
230
231
232
233
234
235
236
237
238
239
240
241
242
243
244
245
246
247
248
249
250
251
252
253
254
255
256
257
258
259
260
261
262
263
264
265
266
267
268
269
270
271
272
273
274
275
276
277
278
279
280
281
282
283
284
285
286
287
288
289
290
291
292
293
294
295
296
297
298
299
300
301
302
303
304
305
306
307
308
309
310
311
312
313
314
315
316
317
318
319
320
321
322
323
324
325
326
327
328
329
330
331
332
333
334
335
336
337
338
339
340
341
342
343
344
345
346
347
348
349
350
351
352
353
354
355
356
357
358
359
360
361
362
363
364
365
366
367
368
369
370
371
372
373
374
375
376
377
378
379
380
381
382
383
384
385
386
387
388
389
390
391
392
393
394
395
396
397
398
399
400
401
402
403
404
405
406
407
408
409
410
411
412
413
414
415
416
417
418
419
420
421
422
423
424
425
426
427
428
429
430
431
432
433
434
435
436
437
438
439
440
441
442
443
444
445
446
447
448
449
450
451
452
453
454
455
456
457
458
459
460
461
462
463
464
465
466
467
468
469
470
471
472
473
474
475
476
477
478
479
480
481
482
483
484
485
486
487
488
489
490
491
492
493
494
495
496
497
498
499
500
501
502
503
504
505
506
507
508
509
510
511
512
513
514
515
516
517
518
519
520
521
522
523
524
525
526
527
528
529
530
531
532
533
534
535
536
537
538
539
540
541
542
543
544
545
546
547
548
549
550
551
552
553
554
555
556
557
558
559
560
561
562
563
564
565
566
567
568
569
570
571
572
573
574
575
576
577
578
579
580
581
582
583
584
585
586
587
588
589
590
591
592
593
594
595
596
597
598
599
600
601
602
603
604
605
606
607
608
609
610
611
612
613
614
615
616
617
618
619
620
621
622
623
624
625
626
627
628
629
630
631
632
633
634
635
636
637
638
639
640
641
642
643
644
645
646
647
648
649
650
651
652
653
654
655
656
657
658
659
660
661
662
663
664
665
666
667
668
669
670
671
672
673
674
675
676
677
678
679
680
681
682
683
684
685
686
687
688
689
690
691
692
693
694
695
696
697
698
699
700
701
702
703
704
705
706
707
708
709
710
711
712
713
714
715
716
717
718
719
720
721
722
723
724
725
726
727
728
729
730
731
732
733
734
735
736
737
738
739
740
741
742