<?xml version='1.0' encoding='UTF-8'?>
<VTKFile xmlns='VTK' byte_order='LittleEndian' version='0.1' type='UnstructuredGrid'>
<UnstructuredGrid>
<Piece NumberOfCells='1488' NumberOfPoints='1488'>
<Points>
<DataArray NumberOfComponents='3' type='Float32' Name='Position' format='ascii'>
-0.075000 -0.075000 0.000000
-0.075000 -0.050000 0.000000
-0.075000 -0.025000 0.000000
-0.075000 0.000000 0.000000
-0.075000 0.025000 0.000000
-0.075000 0.050000 0.000000
-0.075000 0.075000 0.000000
-0.075000 0.100000 0.000000
-0.075000 0.125000 0.000000
-0.075000 0.150000 0.000000
-0.075000 0.175000 0.000000
-0.075000 0.200000 0.000000
-0.075000 0.225000 0.000000
-0.075000 0.250000 0.000000
-0.075000 0.275000 0.000000
-0.075000 0.300000 0.000000
-0.075000 0.325000 0.000000
-0.075000 0.350000 0.000000
-0.075000 0.375000 0.000000
-0.075000 0.400000 0.000000
-0.075000 0.425000 0.000000
-0.075000 0.450000 0.000000
-0.075000 0.475000 0.000000
-0.075000 0.500000 0.000000
-0.075000 0.525000 0.000000
-0.075000 0.550000 0.000000
-0.075000 0.575000 0.000000
-0.075000 0.600000 0.000000
-0.075000 0.625000 0.000000
-0.075000 0.650000 0.000000
-0.075000 0.675000 0.000000
-0.050000 -0.075000 0.000000
-0.050000 -0.050000 0.000000
-0.050000 -0.025000 0.000000
-0.050000 0.000000 0.000000
-0.050000 0.025000 0.000000
-0.050000 0.050000 0.000000
-0.050000 0.075000 0.000000
-0.050000 0.100000 0.000000
-0.050000 0.125000 0.000000
-0.050000 0.150000 0.000000
-0.050000 0.175000 0.000000
-0.050000 0.200000 0.000000
-0.050000 0.225000 0.000000
-0.050000 0.250000 0.000000
-0.050000 0.275000 0.000000
-0.050000 0.300000 0.000000
-0.050000 0.325000 0.000000
-0.050000 0.350000 0.000000
-0.050000 0.375000 0.000000
-0.050000 0.400000 0.000000
-0.050000 0.425000 0.000000
-0.050000 0.450000 0.000000
-0.050000 0.475000 0.000000
-0.050000 0.500000 0.000000
-0.050000 0.525000 0.000000
-0.050000 0.550000 0.000000
-0.050000 0.575000 0.000000
-0.050000 0.600000 0.000000
-0.050000 0.625000 0.000000
-0.050000 0.650000 0.000000
-0.050000 0.675000 0.000000
-0.025000 -0.075000 0.000000
-0.025000 -0.050000 0.000000
-0.025000 -0.025000 0.000000
-0.025000 0.000000 0.000000
-0.025000 0.025000 0.000000
-0.025000 0.050000 0.000000
-0.025000 0.075000 0.000000
-0.025000 0.100000 0.000000
-0.025000 0.125000 0.000000
-0.025000 0.150000 0.000000
-0.025000 0.175000 0.000000
-0.025000 0.200000 0.000000
-0.025000 0.225000 0.000000
-0.025000 0.250000 0.000000
-0.025000 0.275000 0.000000
-0.025000 0.300000 0.000000
-0.025000 0.325000 0.000000
-0.025000 0.350000 0.000000
-0.025000 0.375000 0.000000
-0.025000 0.400000 0.000000
-0.025000 0.425000 0.000000
-0.025000 0.450000 0.000000
-0.025000 0.475000 0.000000
-0.025000 0.500000 0.000000
-0.025000 0.525000 0.000000
-0.025000 0.550000 0.000000
-0.025000 0.575000 0.000000
-0.025000 0.600000 0.000000
-0.025000 0.625000 0.000000
-0.025000 0.650000 0.000000
-0.025000 0.675000 0.000000
0.000000 -0.075000 0.000000
0.000000 -0.050000 0.000000
0.000000 -0.025000 0.000000
0.000000 0.000000 0.000000
0.000000 0.025000 0.000000
0.000000 0.050000 0.000000
0.000000 0.075000 0.000000
0.000000 0.100000 0.000000
0.000000 0.125000 0.000000
0.000000 0.150000 0.000000
0.000000 0.175000 0.000000
0.000000 0.200000 0.000000
0.000000 0.225000 0.000000
0.000000 0.250000 0.000000
0.000000 0.275000 0.000000
0.000000 0.300000 0.000000
0.000000 0.325000 0.000000
0.000000 0.350000 0.000000
0.000000 0.375000 0.000000
0.000000 0.400000 0.000000
0.000000 0.425000 0.000000
0.000000 0.450000 0.000000
0.000000 0.475000 0.000000
0.000000 0.500000 0.000000
0.000000 0.525000 0.000000
0.000000 0.550000 0.000000
0.000000 0.575000 0.000000
0.000000 0.600000 0.000000
0.000000 0.625000 0.000000
0.000000 0.650000 0.000000
0.000000 0.675000 0.000000
0.025000 -0.075000 0.000000
0.025000 -0.050000 0.000000
0.025000 -0.025000 0.000000
0.025000 0.000000 0.000000
0.025000 0.025000 0.000000
0.025000 0.050000 0.000000
0.025000 0.075000 0.000000
0.025000 0.100000 0.000000
0.025000 0.125000 0.000000
0.025000 0.150000 0.000000
0.025000 0.175000 0.000000
0.025000 0.200000 0.000000
0.025000 0.225000 0.000000
0.025000 0.250000 0.000000
0.025000 0.275000 0.000000
0.025000 0.300000 0.000000
0.025000 0.325000 0.000000
0.025000 0.350000 0.000000
0.025000 0.375000 0.000000
0.025000 0.400000 0.000000
0.025000 0.425000 0.000000
0.025000 0.450000 0.000000
0.025000 0.475000 0.000000
0.025000 0.500000 0.000000
0.025000 0.525000 0.000000
0.025000 0.550000 0.000000
0.025000 0.575000 0.000000
0.025000 0.600000 0.000000
0.025000 0.625000 0.000000
0.025000 0.650000 0.000000
0.025000 0.675000 0.000000
0.050000 -0.075000 0.000000
0.050000 -0.050000 0.000000
0.050000 -0.025000 0.000000
0.050000 0.000000 0.000000
0.050000 0.025000 0.000000
0.050000 0.050000 0.000000
0.050000 0.075000 0.000000
0.050000 0.100000 0.000000
0.050000 0.125000 0.000000
0.050000 0.150000 0.000000
0.050000 0.175000 0.000000
0.050000 0.200000 0.000000
0.050000 0.225000 0.000000
0.050000 0.250000 0.000000
0.050000 0.275000 0.000000
0.050000 0.300000 0.000000
0.050000 0.325000 0.000000
0.050000 0.350000 0.000000
0.050000 0.375000 0.000000
0.050000 0.400000 0.000000
0.050000 0.425000 0.000000
0.050000 0.450000 0.000000
0.050000 0.475000 0.000000
0.050000 0.500000 0.000000
0.050000 0.525000 0.000000
0.050000 0.550000 0.000000
0.050000 0.575000 0.000000
0.050000 0.600000 0.000000
0.050000 0.625000 0.000000
0.050000 0.650000 0.000000
0.050000 0.675000 0.000000
0.075000 -0.075000 0.000000
0.075000 -0.050000 0.000000
0.075000 -0.025000 0.000000
0.075000 0.000000 0.000000
0.075000 0.025000 0.000000
0.075000 0.050000 0.000000
0.075000 0.075000 0.000000
0.075000 0.100000 0.000000
0.075000 0.125000 0.000000
0.075000 0.150000 0.000000
0.075000 0.175000 0.000000
0.075000 0.200000 0.000000
0.075000 0.225000 0.000000
0.075000 0.250000 0.000000
0.075000 0.275000 0.000000
0.075000 0.300000 0.000000
0.075000 0.325000 0.000000
0.075000 0.350000 0.000000
0.075000 0.375000 0.000000
0.075000 0.400000 0.000000
0.075000 0.425000 0.000000
0.075000 0.450000 0.000000
0.075000 0.475000 0.000000
0.075000 0.500000 0.000000
0.075000 0.525000 0.000000
0.075000 0.550000 0.000000
0.075000 0.575000 0.000000
0.075000 0.600000 0.000000
0.075000 0.625000 0.000000
0.075000 0.650000 0.000000
0.075000 0.675000 0.000000
0.100000 -0.075000 0.000000
0.100000 -0.050000 0.000000
0.100000 -0.025000 0.000000
0.100000 0.000000 0.000000
0.100000 0.025000 0.000000
0.100000 0.050000 0.000000
0.100000 0.075000 0.000000
0.100000 0.100000 0.000000
0.100000 0.125000 0.000000
0.100000 0.150000 0.000000
0.100000 0.175000 0.000000
0.100000 0.200000 0.000000
0.100000 0.225000 0.000000
0.100000 0.250000 0.000000
0.100000 0.275000 0.000000
0.100000 0.300000 0.000000
0.100000 0.325000 0.000000
0.100000 0.350000 0.000000
0.100000 0.375000 0.000000
0.100000 0.400000 0.000000
0.100000 0.425000 0.000000
0.100000 0.450000 0.000000
0.100000 0.475000 0.000000
0.100000 0.500000 0.000000
0.100000 0.525000 0.000000
0.100000 0.550000 0.000000
0.100000 0.575000 0.000000
0.100000 0.600000 0.000000
0.100000 0.625000 0.000000
0.100000 0.650000 0.000000
0.100000 0.675000 0.000000
0.125000 -0.075000 0.000000
0.125000 -0.050000 0.000000
0.125000 -0.025000 0.000000
0.125000 0.000000 0.000000
0.125000 0.025000 0.000000
0.125000 0.050000 0.000000
0.125000 0.075000 0.000000
0.125000 0.100000 0.000000
0.125000 0.125000 0.000000
0.125000 0.150000 0.000000
0.125000 0.175000 0.000000
0.125000 0.200000 0.000000
0.125000 0.225000 0.000000
0.125000 0.250000 0.000000
0.125000 0.275000 0.000000
0.125000 0.300000 0.000000
0.125000 0.325000 0.000000
0.125000 0.350000 0.000000
0.125000 0.375000 0.000000
0.125000 0.400000 0.000000
0.125000 0.425000 0.000000
0.125000 0.450000 0.000000
0.125000 0.475000 0.000000
0.125000 0.500000 0.000000
0.125000 0.525000 0.000000
0.125000 0.550000 0.000000
0.125000 0.575000 0.000000
0.125000 0.600000 0.000000
0.125000 0.625000 0.000000
0.125000 0.650000 0.000000
0.125000 0.675000 0.000000
0.150000 -0.075000 0.000000
0.150000 -0.050000 0.000000
0.150000 -0.025000 0.000000
0.150000 0.000000 0.000000
0.150000 0.025000 0.000000
0.150000 0.050000 0.000000
0.150000 0.075000 0.000000
0.150000 0.100000 0.000000
0.150000 0.125000 0.000000
0.150000 0.150000 0.000000
0.150000 0.175000 0.000000
0.150000 0.200000 0.000000
0.150000 0.225000 0.000000
0.150000 0.250000 0.000000
0.150000 0.275000 0.000000
0.150000 0.300000 0.000000
0.150000 0.325000 0.000000
0.150000 0.350000 0.000000
0.150000 0.375000 0.000000
0.150000 0.400000 0.000000
0.150000 0.425000 0.000000
0.150000 0.450000 0.000000
0.150000 0.475000 0.000000
0.150000 0.500000 0.000000
0.150000 0.525000 0.000000
0.150000 0.550000 0.000000
0.150000 0.575000 0.000000
0.150000 0.600000 0.000000
0.150000 0.625000 0.000000
0.150000 0.650000 0.000000
0.150000 0.675000 0.000000
0.175000 -0.075000 0.000000
0.175000 -0.050000 0.000000
0.175000 -0.025000 0.000000
0.175000 0.000000 0.000000
0.175000 0.025000 0.000000
0.175000 0.050000 0.000000
0.175000 0.075000 0.000000
0.175000 0.100000 0.000000
0.175000 0.125000 0.000000
0.175000 0.150000 0.000000
0.175000 0.175000 0.000000
0.175000 0.200000 0.000000
0.175000 0.225000 0.000000
0.175000 0.250000 0.000000
0.175000 0.275000 0.000000
0.175000 0.300000 0.000000
0.175000 0.325000 0.000000
0.175000 0.350000 0.000000
0.175000 0.375000 0.000000
0.175000 0.400000 0.000000
0.175000 0.425000 0.000000
0.175000 0.450000 0.000000
0.175000 0.475000 0.000000
0.175000 0.500000 0.000000
0.175000 0.525000 0.000000
0.175000 0.550000 0.000000
0.175000 0.575000 0.000000
0.175000 0.600000 0.000000
0.175000 0.625000 0.000000
0.175000 0.650000 0.000000
0.175000 0.675000 0.000000
0.200000 -0.075000 0.000000
0.200000 -0.050000 0.000000
0.200000 -0.025000 0.000000
0.200000 0.000000 0.000000
0.200000 0.025000 0.000000
0.200000 0.050000 0.000000
0.200000 0.075000 0.000000
0.200000 0.100000 0.000000
0.200000 0.125000 0.000000
0.200000 0.150000 0.000000
0.200000 0.175000 0.000000
0.200000 0.200000 0.000000
0.200000 0.225000 0.000000
0.200000 0.250000 0.000000
[...]
<PointData>
<DataArray NumberOfComponents='1' type='Int32' Name='ParticleType' format='ascii'>
4
4
4
4
4
4
4
4
4
4
4
4
4
4
4
4
4
4
4
4
4
4
4
4
4
4
4
4
2
2
2
4
4
4
4
4
4
4
4
4
4
4
4
4
4
4
4
4
4
4
4
4
4
4
4
4
4
4
4
2
2
2
4
4
3
3
3
3
3
3
3
3
3
3
3
3
3
3
3
3
3
3
3
3
3
3
3
3
3
3
2
2
2
4
4
3
3
3
3
3
3
3
3
3
3
3
3
3
3
3
3
3
3
3
3
3
3
3
3
3
3
2
2
2
4
4
3
3
0
0
0
0
0
0
0
0
0
0
0
0
0
0
0
0
0
0
0
0
0
1
1
2
2
2
2
4
4
3
3
0
0
0
0
0
0
0
0
0
0
0
0
0
0
0
0
0
0
0
0
0
0
1
2
2
2
2
4
4
3
3
0
0
0
0
0
0
0
0
0
0
0
0
0
0
0
0
0
0
0
0
0
0
1
2
2
2
2
4
4
3
3
0
0
0
0
0
0
0
0
0
0
0
0
0
0
0
0
0
0
0
0
0
0
1
2
2
2
2
4
4
3
3
0
0
0
0
0
0
0
0
0
0
0
0
0
0
0
0
0
0
0
0
0
0
1
2
2
2
2
4
4
3
3
0
0
0
0
0
0
0
0
0
0
0
0
0
0
0
0
0
0
0
0
0
0
1
2
2
2
2
4
4
3
3
0
0
0
0
0
0
0
0
0
0
0
0
0
0
0
0
0
0
0
0
0
0
1
2
2
2
2
4
4
3
3
0
0
0
0
0
0
0
0
0
0
0
0
0
0
0
0
0
0
0
0
0
0
1
2
2
2
2
4
4
3
3
0
0
0
0
0
0
0
0
0
0
0
0
0
0
0
0
0
0
0
0
0
0
1
2
2
2
2
4
4
3
3
0
0
0
0
0
0
0
0
0
0
0
0
0
0
0
0
0
0
0
0
0
0
1
2
2
2
2
4
4
3
3
0
0
0
0
0
0
0
0
0
0
0
0
0
0
0
0
0
0
0
0
0
0
1
2
2
2
2
4
4
3
3
0
0
0
0
0
0
0
0
0
0
0
0
0
0
0
0
0
0
0
0
0
0
1
2
2
2
2
4
4
3
3
0
0
0
0
0
0
0
0
0
0
0
0
0
0
0
0
0
0
0
0
0
0
0
2
2
2
2
4
4
3
3
0
0
0
0
0
0
0
0
0
0
0
0
0
0
0
0
0
0
0
0
0
0
0
2
2
2
2
4
4
3
3
0
0
0
0
0
0
0
0
0
0
0
0
0
0
0
0
0
0
0
0
0
0
0
2
2
2
2
4
4
3
3
0
0
0
0
0
0
0
0
0
0
0
0
0
0
0
0
0
0
0
0
0
0
0
2
2
2
2
4
4
3
3
0
0
0
0
0
0
0
0
0
0
0
0
0
0
0
0
0
0
0
0
0
0
0
1
2
2
2
4
4
3
3
0
0
0
0
0
0
0
0
0
0
0
0
0
0
0
0
0
0
0
0
0
0
0
1
2
2
2
4
4
3
3
0
0
0
0
0
0
0
0
0
0
0
0
0
0
0
0
0
0
0
0
0
0
0
1
2
2
2
4
4
3
3
0
0
0
0
0
0
0
0
0
0
0
0
0
0
0
0
0
0
0
0
0
0
0
1
2
2
2
4
4
3
3
0
0
0
0
0
0
0
0
0
0
0
0
0
0
0
0
0
0
0
0
0
0
0
1
2
2
2
4
4
3
3
0
0
0
0
0
0
0
0
0
0
0
0
0
0
0
0
0
0
0
0
0
0
0
2
2
2
2
4
4
3
3
0
0
0
0
0
0
0
0
0
0
0
0
0
0
0
0
0
0
0
0
0
0
0
1
2
2
2
4
4
3
3
0
0
0
0
0
0
0
0
0
0
0
0
0
0
0
0
0
0
0
0
0
0
0
2
2
2
2
4
4
3
3
0
0
0
0
0
0
0
0
0
0
0
0
0
0
0
0
0
0
0
0
0
0
0
2
2
2
2
4
4
3
3
0
0
0
0
0
0
0
0
0
0
0
0
0
0
0
0
0
0
0
0
0
0
0
2
2
2
2
4
4
3
3
0
0
0
0
0
0
0
0
0
0
0
0
0
0
0
0
0
0
0
0
0
0
0
2
2
2
2
4
4
3
3
0
0
0
0
0
0
0
0
0
0
0
0
0
0
0
0
0
0
0
0
0
0
1
2
2
2
2
4
4
3
3
0
0
0
0
0
0
0
0
0
0
0
0
0
0
0
0
0
0
0
0
0
0
1
2
2
2
2
4
4
3
3
0
0
0
0
0
0
0
0
0
0
0
0
0
0
0
0
0
0
0
0
0
0
1
2
2
2
2
4
4
3
3
0
0
0
0
0
0
0
0
0
0
0
0
0
0
0
0
0
0
0
0
0
0
1
2
2
2
2
4
4
3
3
0
0
0
0
0
0
0
0
0
0
0
0
0
0
0
0
0
0
0
0
0
0
1
2
2
2
2
4
4
3
3
0
0
0
0
0
0
0
0
0
0
0
0
0
0
0
0
0
0
0
0
0
0
1
2
2
2
2
4
4
3
3
0
0
0
0
0
0
0
0
0
0
0
0
0
0
0
0
0
0
0
0
0
0
1
2
2
2
2
4
4
3
3
0
0
0
0
0
0
0
0
0
0
0
0
0
0
0
0
0
0
0
0
0
0
1
2
2
2
2
4
4
3
3
0
0
0
0
0
0
0
0
0
0
0
0
0
0
0
0
0
0
0
0
0
0
1
2
2
2
2
4
4
3
3
0
0
0
0
0
0
0
0
0
0
0
0
0
0
0
0
0
0
0
0
0
0
1
2
2
2
2
4
4
3
3
0
0
0
0
0
0
0
0
0
0
0
0
0
0
0
0
0
0
0
0
0
0
1
2
2
2
2
4
4
3
3
0
0
0
0
0
0
0
0
0
0
0
0
0
0
0
0
0
0
0
0
0
0
1
2
2
2
2
4
4
3
3
0
0
0
0
0
0
0
0
0
0
0
0
0
0
0
0
0
0
0
0
0
1
1
2
2
2
2
4
4
3
3
3
3
3
3
3
3
3
3
3
3
3
3
3
3
3
3
3
3
3
3
3
3
3
3
2
2
2
4
4
3
3
3
3
3
3
3
3
3
3
3
3
3
3
3
3
3
3
3
3
3
3
3
3
3
3
2
2
2
4
4
4
4
4
4
4
4
4
4
4
4
4
4
4
4
4
4
4
4
4
4
4
4
4
4
4
4
2
2
2
4
4
4
4
4
4
4
4
4
4
4
4
4
4
4
4
4
4
4
4
4
4
4
4
4
4
4
4
2
2
2
</DataArray>
<DataArray NumberOfComponents='1' type='Float32' Name='Temperature' format='ascii'>
0.000000
0.000000
0.000000
0.000000
0.000000
0.000000
0.000000
0.000000
0.000000
0.000000
0.000000
0.000000
0.000000
0.000000
0.000000
0.000000
0.000000
0.000000
0.000000
0.000000
0.000000
0.000000
0.000000
0.000000
0.000000
0.000000
0.000000
0.000000
-5.000000
-5.000000
-5.000000
0.000000
0.000000
0.000000
0.000000
0.000000
0.000000
0.000000
0.000000
0.000000
0.000000
0.000000
0.000000
0.000000
0.000000
0.000000
0.000000
0.000000
0.000000
0.000000
0.000000
0.000000
0.000000
0.000000
0.000000
0.000000
0.000000
0.000000
0.000000
-5.000000
-5.000000
-5.000000
0.000000
0.000000
0.000000
0.000000
0.000000
0.000000
0.000000
0.000000
0.000000
0.000000
0.000000
0.000000
0.000000
0.000000
0.000000
0.000000
0.000000
0.000000
0.000000
0.000000
0.000000
0.000000
0.000000
0.000000
0.000000
0.000000
0.000000
0.000000
-5.000000
-5.000000
-5.000000
0.000000
0.000000
0.000000
0.000000
0.000000
0.000000
0.000000
0.000000
0.000000
0.000000
0.000000
0.000000
0.000000
0.000000
0.000000
0.000000
0.000000
0.000000
0.000000
0.000000
0.000000
0.000000
0.000000
0.000000
0.000000
0.000000
0.000000
0.000000
-5.000000
-5.000000
-5.000000
0.000000
0.000000
0.000000
0.000000
0.153627
0.275293
0.398235
0.514634
0.623686
0.723374
0.811898
0.887478
0.948440
0.993259
1.020611
1.029411
1.018848
0.988395
0.937806
0.867103
0.776546
0.666515
0.537632
0.388795
0.226028
0.009902
0.000778
-2.128593
-5.000000
-5.000000
-5.000000
0.000000
0.000000
0.000000
0.000000
0.278443
0.498643
0.721437
0.932403
1.130139
1.310977
1.471646
1.608904
1.719695
1.801236
1.851112
1.867355
1.848498
1.793605
1.702274
1.574606
1.411177
1.212878
0.981145
0.714933
0.426081
0.024327
-0.000028
-2.369514
-5.000000
-5.000000
-5.000000
0.000000
0.000000
0.000000
0.000000
0.409950
0.734256
1.062454
1.373384
1.664988
1.931852
2.169137
2.372023
2.535966
2.656821
2.730996
2.755577
2.728415
2.648174
2.514336
2.327178
2.087744
1.797705
1.459785
1.074228
0.658363
0.124371
0.001531
-2.450779
-5.000000
-5.000000
-5.000000
0.000000
0.000000
0.000000
0.000000
0.542791
0.972293
1.407139
1.819366
2.206268
2.560662
2.876091
3.146102
3.364591
3.525992
3.625486
3.659184
3.624256
3.518996
3.342841
3.096341
2.781150
2.399932
1.956977
1.454912
0.914901
0.259800
0.003039
-2.457733
-5.000000
-5.000000
-5.000000
0.000000
0.000000
0.000000
0.000000
0.678380
1.215345
1.759270
2.275289
2.760050
3.204549
3.600644
3.940164
4.215352
4.419130
4.545381
4.589199
4.547062
4.416929
4.198250
3.891940
3.500363
3.027289
2.478613
1.859545
1.193825
0.414847
0.004143
-2.445666
-5.000000
-5.000000
-5.000000
0.000000
0.000000
0.000000
0.000000
0.816697
1.463381
2.118823
2.741159
3.326393
3.863653
4.343037
4.754561
5.088716
5.336814
5.491364
5.546392
5.497680
5.342876
5.081511
4.714937
4.246284
3.680426
3.024727
2.286665
1.491544
0.583381
0.005141
-2.427461
-5.000000
-5.000000
-5.000000
0.000000
0.000000
0.000000
0.000000
0.957616
1.716180
2.485488
3.216595
3.904860
4.537496
5.102769
5.588784
5.984177
6.278552
6.462959
6.530314
6.475690
6.296460
5.992299
5.565063
5.018679
4.359059
3.594782
2.735159
1.806274
0.762947
0.006604
-2.406673
-5.000000
-5.000000
-5.000000
0.000000
0.000000
0.000000
0.000000
1.100619
1.972810
2.857914
3.699843
4.493319
5.223595
5.877037
6.439754
6.898428
7.240857
7.456563
7.537304
7.477442
7.274116
6.927212
6.439176
5.814765
5.060844
4.186916
3.203591
2.136926
0.952642
0.007483
-2.384270
-5.000000
-5.000000
-5.000000
0.000000
0.000000
0.000000
0.000000
1.244796
2.231636
3.233717
4.187795
5.087961
5.917479
6.660763
7.301851
7.825385
8.217283
8.465473
8.560522
8.496086
8.269116
7.879803
7.331282
6.629219
5.781396
4.797957
3.690177
2.482952
1.152622
0.008363
-2.360229
-5.000000
-5.000000
-5.000000
0.000000
0.000000
0.000000
0.000000
1.388827
2.490281
3.609430
4.675918
5.683219
6.612601
7.446488
8.166799
8.756080
9.198308
9.479775
9.589835
9.521458
9.271465
8.840454
8.232391
7.454002
6.514061
5.423186
4.192685
2.844517
1.364413
0.008855
-2.333661
-5.000000
-5.000000
-5.000000
0.000000
0.000000
0.000000
0.000000
1.530998
2.745651
3.980536
5.158306
6.271837
7.300414
8.224471
9.023785
9.678781
10.171472
10.486488
10.611976
10.540241
10.268043
9.796500
9.130588
8.278320
7.249718
6.056004
4.708160
3.223058
1.593307
0.009549
-2.301316
-5.000000
-5.000000
-5.000000
0.000000
0.000000
0.000000
0.000000
1.669236
2.994017
4.341585
5.627830
6.845051
7.970598
8.982943
9.859745
10.579317
11.121717
11.469931
11.610914
11.536342
11.242978
10.732572
10.011294
9.088746
7.976636
6.687347
5.231874
3.621230
1.850723
0.009778
-2.253466
-5.000000
-5.000000
-5.000000
0.000000
0.000000
0.000000
0.000000
1.801189
3.231135
4.686384
6.076387
7.392904
8.611428
9.708536
10.659834
11.441586
12.031944
12.412297
12.568448
12.491489
12.178237
11.631161
10.857783
9.869589
8.680512
7.305023
5.755422
4.038958
2.150425
0.051259
-2.173534
-5.000000
-5.000000
-5.000000
0.000000
0.000000
0.000000
0.000000
1.924318
3.452431
5.008253
6.495241
7.904658
9.210259
10.386838
11.408058
12.248241
12.883736
13.294414
13.464993
13.386025
13.054418
12.473401
11.651931
10.603576
9.344939
7.893533
6.264805
4.466218
2.492267
0.298753
-2.043516
-5.000000
-5.000000
-5.000000
0.000000
0.000000
0.000000
0.000000
2.036015
3.653207
5.300329
6.875420
8.369292
9.754117
11.003061
12.088009
12.981497
13.658214
14.096637
14.280488
14.199833
13.851679
13.239998
12.375161
11.272839
9.952472
8.435167
6.740935
4.881465
2.856142
0.609696
-1.839220
-5.000000
-5.000000
-5.000000
0.000000
0.000000
0.000000
0.000000
2.133730
3.828867
5.555908
7.208157
8.776034
10.230327
11.542766
12.683667
13.623991
14.336956
14.799808
14.995385
14.913321
14.550719
13.912222
13.009478
11.860081
10.486123
8.912248
7.163502
5.257828
3.214927
0.958353
-1.528153
-5.000000
-5.000000
-5.000000
0.000000
0.000000
0.000000
0.000000
2.215099
3.975154
5.768776
7.485328
9.114909
10.627151
11.992583
13.180206
14.159658
14.902925
15.386214
15.591619
15.508410
15.133763
14.472875
13.538454
12.349683
10.930832
9.309474
7.515151
5.573507
3.526377
1.304216
-0.008538
-5.000000
-5.000000
-5.000000
0.000000
0.000000
0.000000
0.000000
2.278068
4.088366
5.933527
7.699870
9.377245
10.934388
12.340895
13.564745
14.574548
15.341329
15.840483
16.053526
15.969436
15.585441
14.907151
13.948069
12.728546
11.274420
9.615315
7.783827
5.809650
3.751325
1.524229
-0.009731
-5.000000
-5.000000
-5.000000
0.000000
0.000000
0.000000
0.000000
2.320993
4.165545
6.045847
7.846146
9.556120
11.143896
12.578432
13.827009
14.857533
15.640370
16.150362
16.368624
16.283934
15.893545
15.203339
14.227325
12.986596
11.507940
9.822147
7.963375
5.963047
3.881322
1.631423
-0.009896
-5.000000
-5.000000
-5.000000
0.000000
0.000000
0.000000
0.000000
2.342732
4.204632
6.102732
7.920229
9.646716
11.250008
12.698743
13.959848
15.000870
15.791844
16.307330
16.528240
16.443247
16.049615
15.353347
14.368683
13.117034
11.625568
9.925503
8.051408
6.034945
3.931895
1.651846
-0.008599
-5.000000
-5.000000
-5.000000
0.000000
0.000000
0.000000
0.000000
2.342700
4.204572
6.102642
7.920109
9.646563
11.249822
12.698526
13.959600
15.000597
15.791551
16.307026
16.527935
16.442951
16.049330
15.353055
14.368319
13.116434
11.624400
9.923182
8.046973
6.026893
3.911069
1.614794
-0.009647
-5.000000
-5.000000
-5.000000
0.000000
0.000000
0.000000
0.000000
2.320896
4.165368
6.045582
7.845790
9.555668
11.143347
12.577788
13.826277
14.856724
15.639505
16.149466
16.367727
16.283064
15.892711
15.202490
14.226261
12.984810
11.504375
9.814914
7.949298
5.936453
3.822405
1.510431
-1.114644
-5.000000
-5.000000
-5.000000
0.000000
0.000000
0.000000
0.000000
2.277911
4.088080
5.933099
7.699294
9.376514
10.933500
12.339853
13.563561
14.573241
15.339931
15.839038
16.052084
15.968047
15.584123
14.905826
13.946403
12.725665
11.268436
9.602723
7.758715
5.763648
3.653489
1.360817
-0.009697
-5.000000
-5.000000
-5.000000
0.000000
0.000000
0.000000
0.000000
2.214891
3.974772
5.768204
7.484558
9.113932
10.625964
11.991189
13.178621
14.157911
14.901059
15.384288
15.589708
15.506587
15.132067
14.471212
13.536383
12.345987
10.922788
9.291855
7.479016
5.505143
3.395544
1.080928
-1.506211
-5.000000
-5.000000
-5.000000
0.000000
0.000000
0.000000
0.000000
2.133478
3.828406
5.555219
7.207227
8.774854
10.228893
11.541082
12.681752
13.621880
14.334705
14.797492
14.993102
14.911174
14.548778
13.910407
13.007300
11.856109
10.477044
8.891559
7.120128
5.176862
3.070464
0.751789
-1.774420
-5.000000
-5.000000
-5.000000
0.000000
0.000000
0.000000
0.000000
2.035732
3.652688
5.299552
6.874372
8.367961
9.752498
11.001159
12.085845
12.979114
13.655675
14.094036
14.277944
14.197483
13.849635
13.238234
12.373232
11.269314
9.943938
8.414870
6.697604
4.800969
2.726362
0.442750
-1.972102
-5.000000
-5.000000
-5.000000
0.000000
0.000000
0.000000
0.000000
1.924016
3.451877
5.007422
6.494120
7.903233
9.208523
10.384797
11.405737
12.245686
12.881018
13.291640
13.462303
13.383591
13.052405
12.471865
11.650562
10.601178
9.338540
7.877267
6.229290
4.401020
2.394339
0.187529
-2.110802
-5.000000
-5.000000
-5.000000
0.000000
0.000000
0.000000
0.000000
1.800881
3.230568
4.685535
6.075239
7.391443
8.609646
9.706440
10.657449
11.438960
12.029156
12.409462
12.565724
12.489075
12.176352
11.629958
10.857142
9.868700
8.677195
7.294992
5.732217
3.996790
2.090215
0.009929
-2.208565
-5.000000
-5.000000
-5.000000
0.000000
0.000000
0.000000
0.000000
1.668933
2.993460
4.340750
5.626699
6.843610
7.968839
8.980871
9.857385
10.576719
11.118961
11.467138
11.608252
11.534030
11.241275
10.731718
10.011358
9.089323
7.976392
6.683608
5.220885
3.600612
1.822976
0.009770
-2.268582
-5.000000
-5.000000
-5.000000
0.000000
0.000000
0.000000
0.000000
1.530711
2.745125
3.979744
5.157232
6.270466
7.298737
8.222494
9.021532
9.676299
10.168840
10.483828
10.609456
10.538087
10.266535
9.795933
9.131171
8.279968
7.251757
6.056954
4.705973
3.216831
1.584375
0.009482
-2.306566
-5.000000
-5.000000
-5.000000
0.000000
0.000000
0.000000
0.000000
1.388566
2.489799
3.608705
4.674934
5.681960
6.611057
7.444665
8.164717
8.753785
9.195876
9.477318
9.587516
9.519495
9.270135
8.840069
8.233230
7.456167
6.517283
5.426678
4.195255
2.845360
1.363696
0.009149
-2.335092
-5.000000
-5.000000
-5.000000
0.000000
0.000000
0.000000
0.000000
1.244565
2.231211
3.233077
4.186923
5.086842
5.916105
6.659136
7.299990
7.823330
8.215104
8.463272
8.558445
8.494332
8.267940
7.879497
7.332130
6.631398
5.784828
4.802189
3.694398
2.486252
1.154434
0.008215
-2.360497
-5.000000
-5.000000
-5.000000
0.000000
0.000000
0.000000
0.000000
1.100423
1.972448
2.857366
3.699095
4.492357
5.222410
5.875631
6.438143
6.896645
7.238962
7.454647
7.535492
7.475905
7.273070
6.926910
6.439866
5.816620
5.063855
4.190786
3.207708
2.140455
0.954889
0.007476
-2.384157
-5.000000
-5.000000
-5.000000
0.000000
0.000000
0.000000
0.000000
0.957455
1.715882
2.485035
3.215975
3.904060
4.536508
5.101592
5.587432
5.982678
6.276955
6.461338
6.528775
6.474370
6.295534
5.991966
5.565520
5.020065
4.361375
3.597817
2.738455
1.809176
0.764875
0.006606
-2.406452
-5.000000
-5.000000
-5.000000
0.000000
0.000000
0.000000
0.000000
0.816569
1.463143
2.118461
2.740662
3.325749
3.862855
4.342084
4.753462
5.087495
5.335509
5.490033
5.545119
5.496572
5.342066
5.081148
4.715164
4.247200
3.682029
3.026863
2.289012
1.493643
0.584830
0.005601
-2.427215
-5.000000
-5.000000
-5.000000
0.000000
0.000000
0.000000
0.000000
0.678281
1.215162
1.758991
2.274904
2.759549
3.203926
3.599898
3.939300
4.214389
4.418096
4.544322
4.588177
4.546157
4.416237
4.197878
3.891985
3.500890
3.028294
2.479988
1.861075
1.195211
0.415827
0.004435
-2.445465
-5.000000
-5.000000
-5.000000
0.000000
0.000000
0.000000
0.000000
0.542718
0.972156
1.406930
1.819077
2.205892
2.560193
2.875526
3.145447
3.363858
3.525202
3.624673
3.658392
3.623541
3.518426
3.342487
3.096269
2.781399
2.400498
1.957789
1.455833
0.915744
0.260401
0.003129
-2.457600
-5.000000
-5.000000
-5.000000
0.000000
0.000000
0.000000
0.000000
0.409898
0.734159
1.062305
1.373177
1.664718
1.931514
2.168730
2.371550
2.535435
2.656246
2.730401
2.754992
2.727878
2.647728
2.514029
2.327051
2.087822
1.797983
1.460220
1.074737
0.658836
0.124708
0.001444
-2.450701
-5.000000
-5.000000
-5.000000
0.000000
0.000000
0.000000
0.000000
0.278409
0.498579
0.721338
0.932266
1.129961
1.310753
1.471376
1.608590
1.719341
1.800853
1.850713
1.866959
1.848129
1.793290
1.702039
1.574477
1.411168
1.212987
0.981347
0.715183
0.426318
0.024505
0.000313
-2.369462
-5.000000
-5.000000
-5.000000
0.000000
0.000000
0.000000
0.000000
0.153607
0.275257
0.398180
0.514558
0.623587
0.723249
0.811747
0.887303
0.948243
0.993045
1.020387
1.029187
1.018637
0.988209
0.937661
0.867011
0.776514
0.666542
0.537706
0.388894
0.226123
0.009918
0.000589
-2.128581
-5.000000
-5.000000
-5.000000
0.000000
0.000000
0.000000
0.000000
0.000000
0.000000
0.000000
0.000000
0.000000
0.000000
0.000000
0.000000
0.000000
0.000000
0.000000
0.000000
0.000000
0.000000
0.000000
0.000000
0.000000
0.000000
0.000000
0.000000
0.000000
0.000000
0.000000
0.000000
-5.000000
-5.000000
-5.000000
0.000000
0.000000
0.000000
0.000000
0.000000
0.000000
0.000000
0.000000
0.000000
0.000000
0.000000
0.000000
0.000000
0.000000
0.000000
0.000000
0.000000
0.000000
0.000000
0.000000
0.000000
0.000000
0.000000
0.000000
0.000000
0.000000
0.000000
0.000000
-5.000000
-5.000000
-5.000000
0.000000
0.000000
0.000000
0.000000
0.000000
0.000000
0.000000
0.000000
0.000000
0.000000
0.000000
0.000000
0.000000
0.000000
0.000000
0.000000
0.000000
0.000000
0.000000
0.000000
0.000000
0.000000
0.000000
0.000000
0.000000
0.000000
0.000000
0.000000
-5.000000
-5.000000
-5.000000
0.000000
0.000000
0.000000
0.000000
0.000000
0.000000
0.000000
0.000000
0.000000
0.000000
0.000000
0.000000
0.000000
0.000000
0.000000
0.000000
0.000000
0.000000
0.000000
0.000000
0.000000
0.000000
0.000000
0.000000
0.000000
0.000000
0.000000
0.000000
-5.000000
-5.000000
-5.000000
</DataArray>
</PointData>
<Cells>
<DataArray type='Int32' Name='connectivity' format='ascii'>
0
1
2
3
4
5
6
7
8
9
10
11
12
13
14
15
16
17
18
19
20
21
22
23
24
25
26
27
28
29
30
31
32
33
34
35
36
37
38
39
40
41
42
43
44
45
46
47
48
49
50
51
52
53
54
55
56
57
58
59
60
61
62
63
64
65
66
67
68
69
70
71
72
73
74
75
76
77
78
79
80
81
82
83
84
85
86
87
88
89
90
91
92
93
94
95
96
97
98
99
100
101
102
103
104
105
106
107
108
109
110
111
112
113
114
115
116
117
118
119
120
121
122
123
124
125
126
127
128
129
130
131
132
133
134
135
136
137
138
139
140
141
142
143
144
145
146
147
148
149
150
151
152
153
154
155
156
157
158
159
160
161
162
163
164
165
166
167
168
169
170
171
172
173
174
175
176
177
178
179
180
181
182
183
184
185
186
187
188
189
190
191
192
193
194
195
196
197
198
199
200
201
202
203
204
205
206
207
208
209
210
211
212
213
214
215
216
217
218
219
220
221
222
223
224
225
226
227
228
229
230
231
232
233
234
235
236
237
238
239
240
241
242
243
244
245
246
247
248
249
250
251
252
253
254
255
256
257
258
259
260
261
262
263
264
265
266
267
268
269
270
271
272
273
274
275
276
277
278
279
280
281
282
283
284
285
286
287
288
289
290
291
292
293
294
295
296
297
298
299
300
301
302
303
304
305
306
307
308
309
310
311
312
313
314
315
316
317
318
319
320
321
322
323
324
325
326
327
328
329
330
331
332
333
334
335
336
337
338
339
340
341
342
343
344
345
346
347
348
349
350
351
352
353
354
355
356
357
358
359
360
361
362
363
364
365
366
367
368
369
370
371
372
373
374
375
376
377
378
379
380
381
382
383
384
385
386
387
388
389
390
391
392
393
394
395
396
397
398
399
400
401
402
403
404
405
406
407
408
409
410
411
412
413
414
415
416
417
418
419
420
421
422
423
424
425
426
427
428
429
430
431
432
433
434
435
436
437
438
439
440
441
442
443
444
445
446
447
448
449
450
451
452
453
454
455
456
457
458
459
460
461
462
463
464
465
466
467
468
469
470
471
472
473
474
475
476
477
478
479
480
481
482
483
484
485
486
487
488
489
490
491
492
493
494
495
496
497
498
499
500
501
502
503
504
505
506
507
508
509
510
511
512
513
514
515
516
517
518
519
520
521
522
523
524
525
526
527
528
529
530
531
532
533
534
535
536
537
538
539
540
541
542
543
544
545
546
547
548
549
550
551
552
553
554
555
556
557
558
559
560
561
562
563
564
565
566
567
568
569
570
571
572
573
574
575
576
577
578
579
580
581
582
583
584
585
586
587
588
589
590
591
592
593
594
595
596
597
598
599
600
601
602
603
604
605
606
607
608
609
610
611
612
613
614
615
616
617
618
619
620
621
622
623
624
625
626
627
628
629
630
631
632
633
634
635
636
637
638
639
640
641
642
643
644
645
646
647
648
649
650
651
652
653
654
655
656
657
658
659
660
661
662
663
664
665
666
667
668
669
670
671
672
673
674
675
676
677
678
679
680
681
682
683
684
685
686
687
688
689
690
691
692
693
694
695
696
697
698
699
700
701
702
703
704
705
706
707
708
709
710
711
712
713
714
715
716
717
718
719
720
721
722
723
724
725
726
727
728
729
730
731
732
733
734
735
736
737
738
739
740
741
742
743
744
745
746
747
748
749
750
751
752
753
754
755
756
757
758
759
760
761
762