<?xml version='1.0' encoding='UTF-8'?>
<VTKFile xmlns='VTK' byte_order='LittleEndian' version='0.1' type='UnstructuredGrid'>
<UnstructuredGrid>
<Piece NumberOfCells='1488' NumberOfPoints='1488'>
<Points>
<DataArray NumberOfComponents='3' type='Float32' Name='Position' format='ascii'>
-0.075000 -0.075000 0.000000
-0.075000 -0.050000 0.000000
-0.075000 -0.025000 0.000000
-0.075000 0.000000 0.000000
-0.075000 0.025000 0.000000
-0.075000 0.050000 0.000000
-0.075000 0.075000 0.000000
-0.075000 0.100000 0.000000
-0.075000 0.125000 0.000000
-0.075000 0.150000 0.000000
-0.075000 0.175000 0.000000
-0.075000 0.200000 0.000000
-0.075000 0.225000 0.000000
-0.075000 0.250000 0.000000
-0.075000 0.275000 0.000000
-0.075000 0.300000 0.000000
-0.075000 0.325000 0.000000
-0.075000 0.350000 0.000000
-0.075000 0.375000 0.000000
-0.075000 0.400000 0.000000
-0.075000 0.425000 0.000000
-0.075000 0.450000 0.000000
-0.075000 0.475000 0.000000
-0.075000 0.500000 0.000000
-0.075000 0.525000 0.000000
-0.075000 0.550000 0.000000
-0.075000 0.575000 0.000000
-0.075000 0.600000 0.000000
-0.075000 0.625000 0.000000
-0.075000 0.650000 0.000000
-0.075000 0.675000 0.000000
-0.050000 -0.075000 0.000000
-0.050000 -0.050000 0.000000
-0.050000 -0.025000 0.000000
-0.050000 0.000000 0.000000
-0.050000 0.025000 0.000000
-0.050000 0.050000 0.000000
-0.050000 0.075000 0.000000
-0.050000 0.100000 0.000000
-0.050000 0.125000 0.000000
-0.050000 0.150000 0.000000
-0.050000 0.175000 0.000000
-0.050000 0.200000 0.000000
-0.050000 0.225000 0.000000
-0.050000 0.250000 0.000000
-0.050000 0.275000 0.000000
-0.050000 0.300000 0.000000
-0.050000 0.325000 0.000000
-0.050000 0.350000 0.000000
-0.050000 0.375000 0.000000
-0.050000 0.400000 0.000000
-0.050000 0.425000 0.000000
-0.050000 0.450000 0.000000
-0.050000 0.475000 0.000000
-0.050000 0.500000 0.000000
-0.050000 0.525000 0.000000
-0.050000 0.550000 0.000000
-0.050000 0.575000 0.000000
-0.050000 0.600000 0.000000
-0.050000 0.625000 0.000000
-0.050000 0.650000 0.000000
-0.050000 0.675000 0.000000
-0.025000 -0.075000 0.000000
-0.025000 -0.050000 0.000000
-0.025000 -0.025000 0.000000
-0.025000 0.000000 0.000000
-0.025000 0.025000 0.000000
-0.025000 0.050000 0.000000
-0.025000 0.075000 0.000000
-0.025000 0.100000 0.000000
-0.025000 0.125000 0.000000
-0.025000 0.150000 0.000000
-0.025000 0.175000 0.000000
-0.025000 0.200000 0.000000
-0.025000 0.225000 0.000000
-0.025000 0.250000 0.000000
-0.025000 0.275000 0.000000
-0.025000 0.300000 0.000000
-0.025000 0.325000 0.000000
-0.025000 0.350000 0.000000
-0.025000 0.375000 0.000000
-0.025000 0.400000 0.000000
-0.025000 0.425000 0.000000
-0.025000 0.450000 0.000000
-0.025000 0.475000 0.000000
-0.025000 0.500000 0.000000
-0.025000 0.525000 0.000000
-0.025000 0.550000 0.000000
-0.025000 0.575000 0.000000
-0.025000 0.600000 0.000000
-0.025000 0.625000 0.000000
-0.025000 0.650000 0.000000
-0.025000 0.675000 0.000000
0.000000 -0.075000 0.000000
0.000000 -0.050000 0.000000
0.000000 -0.025000 0.000000
0.000000 0.000000 0.000000
0.000000 0.025000 0.000000
0.000000 0.050000 0.000000
0.000000 0.075000 0.000000
0.000000 0.100000 0.000000
0.000000 0.125000 0.000000
0.000000 0.150000 0.000000
0.000000 0.175000 0.000000
0.000000 0.200000 0.000000
0.000000 0.225000 0.000000
0.000000 0.250000 0.000000
0.000000 0.275000 0.000000
0.000000 0.300000 0.000000
0.000000 0.325000 0.000000
0.000000 0.350000 0.000000
0.000000 0.375000 0.000000
0.000000 0.400000 0.000000
0.000000 0.425000 0.000000
0.000000 0.450000 0.000000
0.000000 0.475000 0.000000
0.000000 0.500000 0.000000
0.000000 0.525000 0.000000
0.000000 0.550000 0.000000
0.000000 0.575000 0.000000
0.000000 0.600000 0.000000
0.000000 0.625000 0.000000
0.000000 0.650000 0.000000
0.000000 0.675000 0.000000
0.025000 -0.075000 0.000000
0.025000 -0.050000 0.000000
0.025000 -0.025000 0.000000
0.025000 0.000000 0.000000
0.025000 0.025000 0.000000
0.025000 0.050000 0.000000
0.025000 0.075000 0.000000
0.025000 0.100000 0.000000
0.025000 0.125000 0.000000
0.025000 0.150000 0.000000
0.025000 0.175000 0.000000
0.025000 0.200000 0.000000
0.025000 0.225000 0.000000
0.025000 0.250000 0.000000
0.025000 0.275000 0.000000
0.025000 0.300000 0.000000
0.025000 0.325000 0.000000
0.025000 0.350000 0.000000
0.025000 0.375000 0.000000
0.025000 0.400000 0.000000
0.025000 0.425000 0.000000
0.025000 0.450000 0.000000
0.025000 0.475000 0.000000
0.025000 0.500000 0.000000
0.025000 0.525000 0.000000
0.025000 0.550000 0.000000
0.025000 0.575000 0.000000
0.025000 0.600000 0.000000
0.025000 0.625000 0.000000
0.025000 0.650000 0.000000
0.025000 0.675000 0.000000
0.050000 -0.075000 0.000000
0.050000 -0.050000 0.000000
0.050000 -0.025000 0.000000
0.050000 0.000000 0.000000
0.050000 0.025000 0.000000
0.050000 0.050000 0.000000
0.050000 0.075000 0.000000
0.050000 0.100000 0.000000
0.050000 0.125000 0.000000
0.050000 0.150000 0.000000
0.050000 0.175000 0.000000
0.050000 0.200000 0.000000
0.050000 0.225000 0.000000
0.050000 0.250000 0.000000
0.050000 0.275000 0.000000
0.050000 0.300000 0.000000
0.050000 0.325000 0.000000
0.050000 0.350000 0.000000
0.050000 0.375000 0.000000
0.050000 0.400000 0.000000
0.050000 0.425000 0.000000
0.050000 0.450000 0.000000
0.050000 0.475000 0.000000
0.050000 0.500000 0.000000
0.050000 0.525000 0.000000
0.050000 0.550000 0.000000
0.050000 0.575000 0.000000
0.050000 0.600000 0.000000
0.050000 0.625000 0.000000
0.050000 0.650000 0.000000
0.050000 0.675000 0.000000
0.075000 -0.075000 0.000000
0.075000 -0.050000 0.000000
0.075000 -0.025000 0.000000
0.075000 0.000000 0.000000
0.075000 0.025000 0.000000
0.075000 0.050000 0.000000
0.075000 0.075000 0.000000
0.075000 0.100000 0.000000
0.075000 0.125000 0.000000
0.075000 0.150000 0.000000
0.075000 0.175000 0.000000
0.075000 0.200000 0.000000
0.075000 0.225000 0.000000
0.075000 0.250000 0.000000
0.075000 0.275000 0.000000
0.075000 0.300000 0.000000
0.075000 0.325000 0.000000
0.075000 0.350000 0.000000
0.075000 0.375000 0.000000
0.075000 0.400000 0.000000
0.075000 0.425000 0.000000
0.075000 0.450000 0.000000
0.075000 0.475000 0.000000
0.075000 0.500000 0.000000
0.075000 0.525000 0.000000
0.075000 0.550000 0.000000
0.075000 0.575000 0.000000
0.075000 0.600000 0.000000
0.075000 0.625000 0.000000
0.075000 0.650000 0.000000
0.075000 0.675000 0.000000
0.100000 -0.075000 0.000000
0.100000 -0.050000 0.000000
0.100000 -0.025000 0.000000
0.100000 0.000000 0.000000
0.100000 0.025000 0.000000
0.100000 0.050000 0.000000
0.100000 0.075000 0.000000
0.100000 0.100000 0.000000
0.100000 0.125000 0.000000
0.100000 0.150000 0.000000
0.100000 0.175000 0.000000
0.100000 0.200000 0.000000
0.100000 0.225000 0.000000
0.100000 0.250000 0.000000
0.100000 0.275000 0.000000
0.100000 0.300000 0.000000
0.100000 0.325000 0.000000
0.100000 0.350000 0.000000
0.100000 0.375000 0.000000
0.100000 0.400000 0.000000
0.100000 0.425000 0.000000
0.100000 0.450000 0.000000
0.100000 0.475000 0.000000
0.100000 0.500000 0.000000
0.100000 0.525000 0.000000
0.100000 0.550000 0.000000
0.100000 0.575000 0.000000
0.100000 0.600000 0.000000
0.100000 0.625000 0.000000
0.100000 0.650000 0.000000
0.100000 0.675000 0.000000
0.125000 -0.075000 0.000000
0.125000 -0.050000 0.000000
0.125000 -0.025000 0.000000
0.125000 0.000000 0.000000
0.125000 0.025000 0.000000
0.125000 0.050000 0.000000
0.125000 0.075000 0.000000
0.125000 0.100000 0.000000
0.125000 0.125000 0.000000
0.125000 0.150000 0.000000
0.125000 0.175000 0.000000
0.125000 0.200000 0.000000
0.125000 0.225000 0.000000
0.125000 0.250000 0.000000
0.125000 0.275000 0.000000
0.125000 0.300000 0.000000
0.125000 0.325000 0.000000
0.125000 0.350000 0.000000
0.125000 0.375000 0.000000
0.125000 0.400000 0.000000
0.125000 0.425000 0.000000
0.125000 0.450000 0.000000
0.125000 0.475000 0.000000
0.125000 0.500000 0.000000
0.125000 0.525000 0.000000
0.125000 0.550000 0.000000
0.125000 0.575000 0.000000
0.125000 0.600000 0.000000
0.125000 0.625000 0.000000
0.125000 0.650000 0.000000
0.125000 0.675000 0.000000
0.150000 -0.075000 0.000000
0.150000 -0.050000 0.000000
0.150000 -0.025000 0.000000
0.150000 0.000000 0.000000
0.150000 0.025000 0.000000
0.150000 0.050000 0.000000
0.150000 0.075000 0.000000
0.150000 0.100000 0.000000
0.150000 0.125000 0.000000
0.150000 0.150000 0.000000
0.150000 0.175000 0.000000
0.150000 0.200000 0.000000
0.150000 0.225000 0.000000
0.150000 0.250000 0.000000
0.150000 0.275000 0.000000
0.150000 0.300000 0.000000
0.150000 0.325000 0.000000
0.150000 0.350000 0.000000
0.150000 0.375000 0.000000
0.150000 0.400000 0.000000
0.150000 0.425000 0.000000
0.150000 0.450000 0.000000
0.150000 0.475000 0.000000
0.150000 0.500000 0.000000
0.150000 0.525000 0.000000
0.150000 0.550000 0.000000
0.150000 0.575000 0.000000
0.150000 0.600000 0.000000
0.150000 0.625000 0.000000
0.150000 0.650000 0.000000
0.150000 0.675000 0.000000
0.175000 -0.075000 0.000000
0.175000 -0.050000 0.000000
0.175000 -0.025000 0.000000
0.175000 0.000000 0.000000
0.175000 0.025000 0.000000
0.175000 0.050000 0.000000
0.175000 0.075000 0.000000
0.175000 0.100000 0.000000
0.175000 0.125000 0.000000
0.175000 0.150000 0.000000
0.175000 0.175000 0.000000
0.175000 0.200000 0.000000
0.175000 0.225000 0.000000
0.175000 0.250000 0.000000
0.175000 0.275000 0.000000
0.175000 0.300000 0.000000
0.175000 0.325000 0.000000
0.175000 0.350000 0.000000
0.175000 0.375000 0.000000
0.175000 0.400000 0.000000
0.175000 0.425000 0.000000
0.175000 0.450000 0.000000
0.175000 0.475000 0.000000
0.175000 0.500000 0.000000
0.175000 0.525000 0.000000
0.175000 0.550000 0.000000
0.175000 0.575000 0.000000
0.175000 0.600000 0.000000
0.175000 0.625000 0.000000
0.175000 0.650000 0.000000
0.175000 0.675000 0.000000
0.200000 -0.075000 0.000000
0.200000 -0.050000 0.000000
0.200000 -0.025000 0.000000
0.200000 0.000000 0.000000
0.200000 0.025000 0.000000
0.200000 0.050000 0.000000
0.200000 0.075000 0.000000
0.200000 0.100000 0.000000
0.200000 0.125000 0.000000
0.200000 0.150000 0.000000
0.200000 0.175000 0.000000
0.200000 0.200000 0.000000
0.200000 0.225000 0.000000
0.200000 0.250000 0.000000
[...]
<PointData>
<DataArray NumberOfComponents='1' type='Int32' Name='ParticleType' format='ascii'>
4
4
4
4
4
4
4
4
4
4
4
4
4
4
4
4
4
4
4
4
4
4
4
4
4
4
4
4
2
2
2
4
4
4
4
4
4
4
4
4
4
4
4
4
4
4
4
4
4
4
4
4
4
4
4
4
4
4
4
2
2
2
4
4
3
3
3
3
3
3
3
3
3
3
3
3
3
3
3
3
3
3
3
3
3
3
3
3
3
3
2
2
2
4
4
3
3
3
3
3
3
3
3
3
3
3
3
3
3
3
3
3
3
3
3
3
3
3
3
3
3
2
2
2
4
4
3
3
0
0
0
0
0
0
0
0
0
0
0
0
0
0
0
0
0
0
0
0
0
1
1
2
2
2
2
4
4
3
3
0
0
0
0
0
0
0
0
0
0
0
0
0
0
0
0
0
0
0
0
0
0
1
2
2
2
2
4
4
3
3
0
0
0
0
0
0
0
0
0
0
0
0
0
0
0
0
0
0
0
0
0
0
1
2
2
2
2
4
4
3
3
0
0
0
0
0
0
0
0
0
0
0
0
0
0
0
0
0
0
0
0
0
0
1
2
2
2
2
4
4
3
3
0
0
0
0
0
0
0
0
0
0
0
0
0
0
0
0
0
0
0
0
0
0
1
2
2
2
2
4
4
3
3
0
0
0
0
0
0
0
0
0
0
0
0
0
0
0
0
0
0
0
0
0
0
1
2
2
2
2
4
4
3
3
0
0
0
0
0
0
0
0
0
0
0
0
0
0
0
0
0
0
0
0
0
0
1
2
2
2
2
4
4
3
3
0
0
0
0
0
0
0
0
0
0
0
0
0
0
0
0
0
0
0
0
0
0
1
2
2
2
2
4
4
3
3
0
0
0
0
0
0
0
0
0
0
0
0
0
0
0
0
0
0
0
0
0
0
1
2
2
2
2
4
4
3
3
0
0
0
0
0
0
0
0
0
0
0
0
0
0
0
0
0
0
0
0
0
0
1
2
2
2
2
4
4
3
3
0
0
0
0
0
0
0
0
0
0
0
0
0
0
0
0
0
0
0
0
0
0
1
2
2
2
2
4
4
3
3
0
0
0
0
0
0
0
0
0
0
0
0
0
0
0
0
0
0
0
0
0
0
0
2
2
2
2
4
4
3
3
0
0
0
0
0
0
0
0
0
0
0
0
0
0
0
0
0
0
0
0
0
0
0
2
2
2
2
4
4
3
3
0
0
0
0
0
0
0
0
0
0
0
0
0
0
0
0
0
0
0
0
0
0
0
2
2
2
2
4
4
3
3
0
0
0
0
0
0
0
0
0
0
0
0
0
0
0
0
0
0
0
0
0
0
0
1
2
2
2
4
4
3
3
0
0
0
0
0
0
0
0
0
0
0
0
0
0
0
0
0
0
0
0
0
0
0
1
2
2
2
4
4
3
3
0
0
0
0
0
0
0
0
0
0
0
0
0
0
0
0
0
0
0
0
0
0
0
1
2
2
2
4
4
3
3
0
0
0
0
0
0
0
0
0
0
0
0
0
0
0
0
0
0
0
0
0
0
0
1
2
2
2
4
4
3
3
0
0
0
0
0
0
0
0
0
0
0
0
0
0
0
0
0
0
0
0
0
0
0
1
2
2
2
4
4
3
3
0
0
0
0
0
0
0
0
0
0
0
0
0
0
0
0
0
0
0
0
0
0
0
1
2
2
2
4
4
3
3
0
0
0
0
0
0
0
0
0
0
0
0
0
0
0
0
0
0
0
0
0
0
0
1
2
2
2
4
4
3
3
0
0
0
0
0
0
0
0
0
0
0
0
0
0
0
0
0
0
0
0
0
0
0
1
2
2
2
4
4
3
3
0
0
0
0
0
0
0
0
0
0
0
0
0
0
0
0
0
0
0
0
0
0
0
1
2
2
2
4
4
3
3
0
0
0
0
0
0
0
0
0
0
0
0
0
0
0
0
0
0
0
0
0
0
0
1
2
2
2
4
4
3
3
0
0
0
0
0
0
0
0
0
0
0
0
0
0
0
0
0
0
0
0
0
0
0
1
2
2
2
4
4
3
3
0
0
0
0
0
0
0
0
0
0
0
0
0
0
0
0
0
0
0
0
0
0
0
2
2
2
2
4
4
3
3
0
0
0
0
0
0
0
0
0
0
0
0
0
0
0
0
0
0
0
0
0
0
0
2
2
2
2
4
4
3
3
0
0
0
0
0
0
0
0
0
0
0
0
0
0
0
0
0
0
0
0
0
0
0
2
2
2
2
4
4
3
3
0
0
0
0
0
0
0
0
0
0
0
0
0
0
0
0
0
0
0
0
0
0
0
2
2
2
2
4
4
3
3
0
0
0
0
0
0
0
0
0
0
0
0
0
0
0
0
0
0
0
0
0
0
0
2
2
2
2
4
4
3
3
0
0
0
0
0
0
0
0
0
0
0
0
0
0
0
0
0
0
0
0
0
0
1
2
2
2
2
4
4
3
3
0
0
0
0
0
0
0
0
0
0
0
0
0
0
0
0
0
0
0
0
0
0
1
2
2
2
2
4
4
3
3
0
0
0
0
0
0
0
0
0
0
0
0
0
0
0
0
0
0
0
0
0
0
1
2
2
2
2
4
4
3
3
0
0
0
0
0
0
0
0
0
0
0
0
0
0
0
0
0
0
0
0
0
0
1
2
2
2
2
4
4
3
3
0
0
0
0
0
0
0
0
0
0
0
0
0
0
0
0
0
0
0
0
0
0
1
2
2
2
2
4
4
3
3
0
0
0
0
0
0
0
0
0
0
0
0
0
0
0
0
0
0
0
0
0
0
1
2
2
2
2
4
4
3
3
0
0
0
0
0
0
0
0
0
0
0
0
0
0
0
0
0
0
0
0
0
0
1
2
2
2
2
4
4
3
3
0
0
0
0
0
0
0
0
0
0
0
0
0
0
0
0
0
0
0
0
0
0
1
2
2
2
2
4
4
3
3
0
0
0
0
0
0
0
0
0
0
0
0
0
0
0
0
0
0
0
0
0
0
1
2
2
2
2
4
4
3
3
0
0
0
0
0
0
0
0
0
0
0
0
0
0
0
0
0
0
0
0
0
1
1
2
2
2
2
4
4
3
3
3
3
3
3
3
3
3
3
3
3
3
3
3
3
3
3
3
3
3
3
3
3
3
3
2
2
2
4
4
3
3
3
3
3
3
3
3
3
3
3
3
3
3
3
3
3
3
3
3
3
3
3
3
3
3
2
2
2
4
4
4
4
4
4
4
4
4
4
4
4
4
4
4
4
4
4
4
4
4
4
4
4
4
4
4
4
2
2
2
4
4
4
4
4
4
4
4
4
4
4
4
4
4
4
4
4
4
4
4
4
4
4
4
4
4
4
4
2
2
2
</DataArray>
<DataArray NumberOfComponents='1' type='Float32' Name='Temperature' format='ascii'>
0.000000
0.000000
0.000000
0.000000
0.000000
0.000000
0.000000
0.000000
0.000000
0.000000
0.000000
0.000000
0.000000
0.000000
0.000000
0.000000
0.000000
0.000000
0.000000
0.000000
0.000000
0.000000
0.000000
0.000000
0.000000
0.000000
0.000000
0.000000
-5.000000
-5.000000
-5.000000
0.000000
0.000000
0.000000
0.000000
0.000000
0.000000
0.000000
0.000000
0.000000
0.000000
0.000000
0.000000
0.000000
0.000000
0.000000
0.000000
0.000000
0.000000
0.000000
0.000000
0.000000
0.000000
0.000000
0.000000
0.000000
0.000000
0.000000
0.000000
-5.000000
-5.000000
-5.000000
0.000000
0.000000
0.000000
0.000000
0.000000
0.000000
0.000000
0.000000
0.000000
0.000000
0.000000
0.000000
0.000000
0.000000
0.000000
0.000000
0.000000
0.000000
0.000000
0.000000
0.000000
0.000000
0.000000
0.000000
0.000000
0.000000
0.000000
0.000000
-5.000000
-5.000000
-5.000000
0.000000
0.000000
0.000000
0.000000
0.000000
0.000000
0.000000
0.000000
0.000000
0.000000
0.000000
0.000000
0.000000
0.000000
0.000000
0.000000
0.000000
0.000000
0.000000
0.000000
0.000000
0.000000
0.000000
0.000000
0.000000
0.000000
0.000000
0.000000
-5.000000
-5.000000
-5.000000
0.000000
0.000000
0.000000
0.000000
0.158559
0.284152
0.411104
0.531369
0.644153
0.747405
0.839300
0.918027
0.981873
1.029276
1.058876
1.069562
1.060499
1.031130
0.981142
0.910417
0.818959
0.706768
0.573972
0.418881
0.247274
0.009957
0.003948
-2.126584
-5.000000
-5.000000
-5.000000
0.000000
0.000000
0.000000
0.000000
0.287471
0.514887
0.745115
0.963332
1.168152
1.355839
1.523052
1.666458
1.782894
1.869471
1.923676
1.943464
1.927319
1.874257
1.783778
1.655772
1.490400
1.287913
1.048947
0.771627
0.467631
0.048779
0.003782
-2.365636
-5.000000
-5.000000
-5.000000
0.000000
0.000000
0.000000
0.000000
0.423481
0.758690
1.098248
1.420432
1.723215
2.001058
2.248967
2.461917
2.635120
2.764186
2.845305
2.875396
2.852213
2.774366
2.641251
2.452917
2.209905
1.913037
1.563923
1.161800
0.723390
0.163562
0.005048
-2.444931
-5.000000
-5.000000
-5.000000
0.000000
0.000000
0.000000
0.000000
0.561231
1.005734
1.456431
1.884649
2.287734
2.658297
2.989582
3.274736
3.507186
3.680885
3.790588
3.832094
3.802402
3.699763
3.523598
3.274310
2.953065
2.561558
2.102650
1.577589
1.006374
0.314984
0.006061
-2.449946
-5.000000
-5.000000
-5.000000
0.000000
0.000000
0.000000
0.000000
0.702407
1.259124
1.824229
2.362015
2.869212
3.336490
3.755199
4.116468
4.411729
4.633072
4.773642
4.827996
4.792339
4.664613
4.444401
4.132673
3.731463
3.243557
2.673114
2.023395
1.316134
0.488514
0.006734
-2.435698
-5.000000
-5.000000
-5.000000
0.000000
0.000000
0.000000
0.000000
0.847263
1.519330
2.202374
2.853568
3.469032
4.037408
4.547992
4.989690
5.351704
5.624023
5.797987
5.866774
5.825745
5.672585
5.407188
5.031316
4.548118
3.961633
3.277218
2.499668
1.651005
0.679549
0.007326
-2.414752
-5.000000
-5.000000
-5.000000
0.000000
0.000000
0.000000
0.000000
0.995948
1.786635
2.591303
3.359917
4.087997
4.762059
5.369182
5.895831
6.328725
6.655512
6.865513
6.950378
6.904571
6.725568
6.413733
5.971861
5.404487
4.717091
3.916111
3.007257
2.011324
0.887448
0.008320
-2.390224
-5.000000
-5.000000
-5.000000
0.000000
0.000000
0.000000
0.000000
1.148173
2.060516
2.990252
3.880066
4.724886
5.509011
6.217146
6.833094
7.340854
7.725483
7.974074
8.076608
8.026589
7.821335
7.461837
6.952187
6.298632
5.508380
4.588978
3.546510
2.398593
1.114059
0.008854
-2.362096
-5.000000
-5.000000
-5.000000
0.000000
0.000000
0.000000
0.000000
1.303161
2.339561
3.397146
4.411267
5.376282
6.274190
7.087178
7.796198
8.382301
8.827738
9.117176
9.238792
9.185079
8.953236
8.545039
7.966148
7.224904
6.330702
5.292560
4.116816
2.815565
1.364921
0.009407
-2.327959
-5.000000
-5.000000
-5.000000
0.000000
0.000000
0.000000
0.000000
1.459585
2.621367
3.808432
4.948819
6.036323
7.050590
7.971178
8.776031
9.443076
9.951568
10.283595
10.425415
10.368462
10.109855
9.652286
9.003240
8.173567
7.175470
6.020270
4.715345
3.266420
1.653417
0.009620
-2.277401
-5.000000
-5.000000
-5.000000
0.000000
0.000000
0.000000
0.000000
1.615562
2.902512
4.219068
5.486040
6.696680
7.828260
8.857642
9.759661
10.508994
11.081783
11.457421
11.620167
11.560364
11.275072
10.768001
10.048662
9.130787
8.030063
6.761321
5.334886
3.753409
1.998232
0.009987
-2.191043
-5.000000
-5.000000
-5.000000
0.000000
0.000000
0.000000
0.000000
1.768687
3.178636
4.622624
6.014418
7.346754
8.594548
9.731951
10.730662
11.562060
12.199117
12.618486
12.802393
12.740069
12.428531
11.872549
11.083773
10.079060
8.878095
7.500391
5.961700
4.267178
2.404692
0.303462
-2.045617
-5.000000
-5.000000
-5.000000
0.000000
0.000000
0.000000
0.000000
1.916130
3.444604
5.011534
6.523946
7.974091
9.334595
10.576958
11.669783
12.581192
13.281020
13.743204
13.947952
13.883393
13.546495
12.943080
12.086936
10.998079
9.700372
8.218565
6.575244
4.783151
2.840005
0.670684
-1.823164
-5.000000
-5.000000
-5.000000
0.000000
0.000000
0.000000
0.000000
2.054764
3.694749
5.377452
7.003595
8.564977
10.032060
11.373814
12.555880
13.543256
14.302762
14.805724
15.030404
14.963866
14.603019
13.954678
13.034649
11.865937
10.476357
8.895678
7.153119
5.269298
3.263745
1.041584
-1.499803
-5.000000
-5.000000
-5.000000
0.000000
0.000000
0.000000
0.000000
2.181333
3.923174
5.711701
7.441901
9.105170
10.669983
12.102974
13.367044
14.424295
15.238749
15.779304
16.022412
15.954142
15.571330
14.881685
13.902825
12.660415
11.185714
9.512728
7.676169
5.704689
3.638082
1.394784
-0.009485
-5.000000
-5.000000
-5.000000
0.000000
0.000000
0.000000
0.000000
2.292634
4.124075
6.005743
7.827598
9.580681
11.231716
12.745267
14.081799
15.200840
16.063919
16.637772
16.897237
16.827485
16.425277
15.699085
14.668082
13.360177
11.809449
10.053195
8.130043
6.073140
3.938404
1.637523
-0.007468
-5.000000
-5.000000
-5.000000
0.000000
0.000000
0.000000
0.000000
2.385691
4.292065
6.251658
8.150234
9.978544
11.701840
13.282946
14.680278
15.851190
16.755111
17.356950
17.630179
17.559211
17.140729
16.383828
15.308944
13.945791
12.330639
10.503214
8.504747
6.371054
4.160991
1.789420
-0.007132
-5.000000
-5.000000
-5.000000
0.000000
0.000000
0.000000
0.000000
2.457919
4.422465
6.442567
8.400741
10.287511
12.066987
13.700635
15.145272
16.356558
17.292279
17.915917
18.199879
18.127977
17.696831
16.916005
15.806899
14.400577
12.734924
10.851385
8.792848
6.596656
4.320879
1.882134
-0.004844
-5.000000
-5.000000
-5.000000
0.000000
0.000000
0.000000
0.000000
2.507259
4.511546
6.572995
8.571901
10.498635
12.316526
13.986110
15.463109
16.702021
17.659506
18.298069
18.589382
18.516846
18.077034
17.279827
16.147271
14.711334
13.010970
11.088734
8.988533
6.748583
4.426885
1.942236
-0.004537
-5.000000
-5.000000
-5.000000
0.000000
0.000000
0.000000
0.000000
2.532281
4.556723
6.639141
8.658705
10.605709
12.443085
14.130898
15.624314
16.877240
17.845767
18.491902
18.786945
18.714090
18.269882
17.464363
16.319902
14.868924
13.150911
11.208970
9.087505
6.825157
4.479976
1.972101
-0.004006
-5.000000
-5.000000
-5.000000
0.000000
0.000000
0.000000
0.000000
2.532253
4.556670
6.639059
8.658591
10.605559
12.442895
14.130668
15.624044
16.876934
17.845431
18.491544
18.786576
18.713721
18.269526
17.464032
16.319609
14.868682
13.150732
11.208862
9.087467
6.825177
4.480024
1.972144
-0.004003
-5.000000
-5.000000
-5.000000
0.000000
0.000000
0.000000
0.000000
2.507176
4.511390
6.572755
8.571565
10.498192
12.315966
13.985430
15.462312
16.701115
17.658511
18.297009
18.588289
18.515755
18.075981
17.278852
16.146413
14.710638
13.010478
11.088479
8.988517
6.748758
4.427140
1.942444
-0.004527
-5.000000
-5.000000
-5.000000
0.000000
0.000000
0.000000
0.000000
2.457785
4.422213
6.442178
8.400197
10.286793
12.066081
13.699534
15.143980
16.355091
17.290666
17.914200
18.198108
18.126210
17.695131
16.914439
15.805544
14.399522
12.734270
10.851217
8.793187
6.597394
4.321747
1.882793
-0.004818
-5.000000
-5.000000
-5.000000
0.000000
0.000000
0.000000
0.000000
2.385512
4.291730
6.251139
8.149507
9.977584
11.700628
13.281472
14.678547
15.849224
16.752950
17.354648
17.627807
17.556847
17.138463
16.381761
15.307204
13.944543
12.330095
10.503587
8.506122
6.373195
4.163234
1.791029
-0.007079
-5.000000
-5.000000
-5.000000
0.000000
0.000000
0.000000
0.000000
2.292419
4.123672
6.005119
7.826723
9.579524
11.230253
12.743486
14.079706
15.198461
16.061303
16.634986
16.894367
16.824630
16.422555
15.696639
14.666109
13.358968
11.809423
10.054846
8.133650
6.078227
3.943705
1.641710
-0.007372
-5.000000
-5.000000
-5.000000
0.000000
0.000000
0.000000
0.000000
2.181094
3.922724
5.711003
7.440920
9.103871
10.668337
12.100968
13.364683
14.421610
15.235794
15.776157
16.019173
15.950928
15.568287
14.879004
13.900794
12.659508
11.186690
9.516618
7.683804
5.715570
3.648856
1.400227
-0.135506
-5.000000
-5.000000
-5.000000
0.000000
0.000000
0.000000
0.000000
2.054512
3.694275
5.376715
7.002557
8.563598
10.030310
11.371676
12.553360
13.540387
14.299602
14.802358
15.026942
14.960442
14.599803
13.951913
13.032728
11.865555
10.478733
8.902685
7.166863
5.290405
3.286110
1.057062
-1.488753
-5.000000
-5.000000
-5.000000
0.000000
0.000000
0.000000
0.000000
1.915880
3.444130
5.010795
6.522901
7.972699
9.332822
10.574787
11.667218
12.578267
13.277795
13.739769
13.944421
13.879912
13.543256
12.940369
12.085242
10.998311
9.704217
8.228873
6.595947
4.817338
2.885369
0.708538
-1.801686
-5.000000
-5.000000
-5.000000
0.000000
0.000000
0.000000
0.000000
1.768450
3.178186
4.621919
6.013416
7.345413
8.592832
9.729843
10.728165
11.559206
12.195965
12.615127
12.798943
12.736680
12.425408
11.870003
11.082353
10.079805
8.882983
7.512905
5.987290
4.312336
2.471731
0.387313
-2.016865
-5.000000
-5.000000
-5.000000
0.000000
0.000000
0.000000
0.000000
1.615348
2.902105
4.218427
5.485123
6.695446
7.826673
8.855682
9.757332
10.506325
11.078830
11.454270
11.616933
11.557197
11.272178
10.765695
10.047496
9.131793
8.035173
6.773903
5.360169
3.796703
2.063675
0.081644
-2.165061
-5.000000
-5.000000
-5.000000
0.000000
0.000000
0.000000
0.000000
1.459403
2.621019
3.807879
4.948022
6.035240
7.049188
7.969436
8.773952
9.440683
9.948915
10.280760
10.422506
10.365620
10.107275
9.650263
9.002273
8.174550
7.179991
6.030884
4.735558
3.298274
1.694949
0.009879
-2.262188
-5.000000
-5.000000
-5.000000
0.000000
0.000000
0.000000
0.000000
1.303016
2.339281
3.396695
4.410610
5.375379
6.273010
7.085701
7.794422
8.380249
8.825453
9.114730
9.236279
9.182628
8.951021
8.543316
7.965328
7.225672
6.334168
5.300288
4.130485
2.834556
1.385527
0.009270
-2.321295
-5.000000
-5.000000
-5.000000
0.000000
0.000000
0.000000
0.000000
1.148066
2.060304
2.989908
3.879554
4.724173
5.508067
6.215952
6.831648
7.339171
7.723601
7.972052
8.074527
8.024560
7.819503
7.460411
6.951481
6.299119
5.510739
4.593996
3.554693
2.408775
1.123411
0.008843
-2.359625
-5.000000
-5.000000
-5.000000
0.000000
0.000000
0.000000
0.000000
0.995875
1.786489
2.591058
3.359545
4.087467
4.761345
5.368267
5.894710
6.327410
6.654032
6.863915
6.948729
6.902959
6.724109
6.412588
5.971253
5.404722
4.718543
3.919113
3.011826
2.016602
0.891913
0.008317
-2.389130
-5.000000
-5.000000
-5.000000
0.000000
0.000000
0.000000
0.000000
0.847219
1.519239
2.202214
2.853317
3.468664
4.036900
4.547329
4.988866
5.350726
5.622913
5.796782
5.865523
5.824515
5.671464
5.406293
5.030799
4.548166
3.962441
3.278905
2.502131
1.653714
0.681740
0.007697
-2.414218
-5.000000
-5.000000
-5.000000
0.000000
0.000000
0.000000
0.000000
0.702385
1.259075
1.824136
2.361861
2.868974
3.336151
3.754746
4.115895
4.411041
4.632282
4.772776
4.827089
4.791439
4.663783
4.443720
4.132240
3.731391
3.243945
2.673997
2.024677
1.317516
0.489612
0.006964
-2.435419
-5.000000
-5.000000
-5.000000
0.000000
0.000000
0.000000
0.000000
0.561223
1.005712
1.456384
1.884563
2.287594
2.658087
2.989293
3.274361
3.506727
3.680351
3.789995
3.831466
3.801770
3.699169
3.523093
3.273955
2.952926
2.561687
2.103059
1.578212
1.007051
0.315522
0.006130
-2.449803
-5.000000
-5.000000
-5.000000
0.000000
0.000000
0.000000
0.000000
0.423481
0.758684
1.098229
1.420389
1.723137
2.000937
2.248793
2.461685
2.634831
2.763845
2.844921
2.874983
2.851790
2.773958
2.640889
2.452636
2.209744
1.913024
1.564064
1.162060
0.723690
0.163806
0.004980
-2.444861
-5.000000
-5.000000
-5.000000
0.000000
0.000000
0.000000
0.000000
0.287473
0.514887
0.745108
0.963312
1.168112
1.355773
1.522954
1.666324
1.782725
1.869269
1.923445
1.943212
1.927056
1.873996
1.783536
1.655568
1.490255
1.287843
1.048957
0.771704
0.467740
0.048882
0.004044
-2.365596
-5.000000
-5.000000
-5.000000
0.000000
0.000000
0.000000
0.000000
0.158560
0.284152
0.411100
0.531359
0.644133
0.747371
0.839251
0.917959
0.981787
1.029172
1.058756
1.069429
1.060359
1.030987
0.981005
0.910294
0.818861
0.706702
0.573942
0.418884
0.247298
0.009973
0.003796
-2.126576
-5.000000
-5.000000
-5.000000
0.000000
0.000000
0.000000
0.000000
0.000000
0.000000
0.000000
0.000000
0.000000
0.000000
0.000000
0.000000
0.000000
0.000000
0.000000
0.000000
0.000000
0.000000
0.000000
0.000000
0.000000
0.000000
0.000000
0.000000
0.000000
0.000000
0.000000
0.000000
-5.000000
-5.000000
-5.000000
0.000000
0.000000
0.000000
0.000000
0.000000
0.000000
0.000000
0.000000
0.000000
0.000000
0.000000
0.000000
0.000000
0.000000
0.000000
0.000000
0.000000
0.000000
0.000000
0.000000
0.000000
0.000000
0.000000
0.000000
0.000000
0.000000
0.000000
0.000000
-5.000000
-5.000000
-5.000000
0.000000
0.000000
0.000000
0.000000
0.000000
0.000000
0.000000
0.000000
0.000000
0.000000
0.000000
0.000000
0.000000
0.000000
0.000000
0.000000
0.000000
0.000000
0.000000
0.000000
0.000000
0.000000
0.000000
0.000000
0.000000
0.000000
0.000000
0.000000
-5.000000
-5.000000
-5.000000
0.000000
0.000000
0.000000
0.000000
0.000000
0.000000
0.000000
0.000000
0.000000
0.000000
0.000000
0.000000
0.000000
0.000000
0.000000
0.000000
0.000000
0.000000
0.000000
0.000000
0.000000
0.000000
0.000000
0.000000
0.000000
0.000000
0.000000
0.000000
-5.000000
-5.000000
-5.000000
</DataArray>
</PointData>
<Cells>
<DataArray type='Int32' Name='connectivity' format='ascii'>
0
1
2
3
4
5
6
7
8
9
10
11
12
13
14
15
16
17
18
19
20
21
22
23
24
25
26
27
28
29
30
31
32
33
34
35
36
37
38
39
40
41
42
43
44
45
46
47
48
49
50
51
52
53
54
55
56
57
58
59
60
61
62
63
64
65
66
67
68
69
70
71
72
73
74
75
76
77
78
79
80
81
82
83
84
85
86
87
88
89
90
91
92
93
94
95
96
97
98
99
100
101
102
103
104
105
106
107
108
109
110
111
112
113
114
115
116
117
118
119
120
121
122
123
124
125
126
127
128
129
130
131
132
133
134
135
136
137
138
139
140
141
142
143
144
145
146
147
148
149
150
151
152
153
154
155
156
157
158
159
160
161
162
163
164
165
166
167
168
169
170
171
172
173
174
175
176
177
178
179
180
181
182
183
184
185
186
187
188
189
190
191
192
193
194
195
196
197
198
199
200
201
202
203
204
205
206
207
208
209
210
211
212
213
214
215
216
217
218
219
220
221
222
223
224
225
226
227
228
229
230
231
232
233
234
235
236
237
238
239
240
241
242
243
244
245
246
247
248
249
250
251
252
253
254
255
256
257
258
259
260
261
262
263
264
265
266
267
268
269
270
271
272
273
274
275
276
277
278
279
280
281
282
283
284
285
286
287
288
289
290
291
292
293
294
295
296
297
298
299
300
301
302
303
304
305
306
307
308
309
310
311
312
313
314
315
316
317
318
319
320
321
322
323
324
325
326
327
328
329
330
331
332
333
334
335
336
337
338
339
340
341
342
343
344
345
346
347
348
349
350
351
352
353
354
355
356
357
358
359
360
361
362
363
364
365
366
367
368
369
370
371
372
373
374
375
376
377
378
379
380
381
382
383
384
385
386
387
388
389
390
391
392
393
394
395
396
397
398
399
400
401
402
403
404
405
406
407
408
409
410
411
412
413
414
415
416
417
418
419
420
421
422
423
424
425
426
427
428
429
430
431
432
433
434
435
436
437
438
439
440
441
442
443
444
445
446
447
448
449
450
451
452
453
454
455
456
457
458
459
460
461
462
463
464
465
466
467
468
469
470
471
472
473
474
475
476
477
478
479
480
481
482
483
484
485
486
487
488
489
490
491
492
493
494
495
496
497
498
499
500
501
502
503
504
505
506
507
508
509
510
511
512
513
514
515
516
517
518
519
520
521
522
523
524
525
526
527
528
529
530
531
532
533
534
535
536
537
538
539
540
541
542
543
544
545
546
547
548
549
550
551
552
553
554
555
556
557
558
559
560
561
562
563
564
565
566
567
568
569
570
571
572
573
574
575
576
577
578
579
580
581
582
583
584
585
586
587
588
589
590
591
592
593
594
595
596
597
598
599
600
601
602
603
604
605
606
607
608
609
610
611
612
613
614
615
616
617
618
619
620
621
622
623
624
625
626
627
628
629
630
631
632
633
634
635
636
637
638
639
640
641
642
643
644
645
646
647
648
649
650
651
652
653
654
655
656
657
658
659
660
661
662
663
664
665
666
667
668
669
670
671
672
673
674
675
676
677
678
679
680
681
682
683
684
685
686
687
688
689
690
691
692
693
694
695
696
697
698
699
700
701
702
703
704
705
706
707
708
709
710
711
712
713
714
715
716
717
718
719
720
721
722
723
724
725
726
727
728
729
730
731
732
733
734
735
736
737
738
739
740
741
742
743
744
745
746
747
748
749
750
751