<?xml version='1.0' encoding='UTF-8'?>
<VTKFile xmlns='VTK' byte_order='LittleEndian' version='0.1' type='UnstructuredGrid'>
<UnstructuredGrid>
<Piece NumberOfCells='1488' NumberOfPoints='1488'>
<Points>
<DataArray NumberOfComponents='3' type='Float32' Name='Position' format='ascii'>
-0.075000 -0.075000 0.000000
-0.075000 -0.050000 0.000000
-0.075000 -0.025000 0.000000
-0.075000 0.000000 0.000000
-0.075000 0.025000 0.000000
-0.075000 0.050000 0.000000
-0.075000 0.075000 0.000000
-0.075000 0.100000 0.000000
-0.075000 0.125000 0.000000
-0.075000 0.150000 0.000000
-0.075000 0.175000 0.000000
-0.075000 0.200000 0.000000
-0.075000 0.225000 0.000000
-0.075000 0.250000 0.000000
-0.075000 0.275000 0.000000
-0.075000 0.300000 0.000000
-0.075000 0.325000 0.000000
-0.075000 0.350000 0.000000
-0.075000 0.375000 0.000000
-0.075000 0.400000 0.000000
-0.075000 0.425000 0.000000
-0.075000 0.450000 0.000000
-0.075000 0.475000 0.000000
-0.075000 0.500000 0.000000
-0.075000 0.525000 0.000000
-0.075000 0.550000 0.000000
-0.075000 0.575000 0.000000
-0.075000 0.600000 0.000000
-0.075000 0.625000 0.000000
-0.075000 0.650000 0.000000
-0.075000 0.675000 0.000000
-0.050000 -0.075000 0.000000
-0.050000 -0.050000 0.000000
-0.050000 -0.025000 0.000000
-0.050000 0.000000 0.000000
-0.050000 0.025000 0.000000
-0.050000 0.050000 0.000000
-0.050000 0.075000 0.000000
-0.050000 0.100000 0.000000
-0.050000 0.125000 0.000000
-0.050000 0.150000 0.000000
-0.050000 0.175000 0.000000
-0.050000 0.200000 0.000000
-0.050000 0.225000 0.000000
-0.050000 0.250000 0.000000
-0.050000 0.275000 0.000000
-0.050000 0.300000 0.000000
-0.050000 0.325000 0.000000
-0.050000 0.350000 0.000000
-0.050000 0.375000 0.000000
-0.050000 0.400000 0.000000
-0.050000 0.425000 0.000000
-0.050000 0.450000 0.000000
-0.050000 0.475000 0.000000
-0.050000 0.500000 0.000000
-0.050000 0.525000 0.000000
-0.050000 0.550000 0.000000
-0.050000 0.575000 0.000000
-0.050000 0.600000 0.000000
-0.050000 0.625000 0.000000
-0.050000 0.650000 0.000000
-0.050000 0.675000 0.000000
-0.025000 -0.075000 0.000000
-0.025000 -0.050000 0.000000
-0.025000 -0.025000 0.000000
-0.025000 0.000000 0.000000
-0.025000 0.025000 0.000000
-0.025000 0.050000 0.000000
-0.025000 0.075000 0.000000
-0.025000 0.100000 0.000000
-0.025000 0.125000 0.000000
-0.025000 0.150000 0.000000
-0.025000 0.175000 0.000000
-0.025000 0.200000 0.000000
-0.025000 0.225000 0.000000
-0.025000 0.250000 0.000000
-0.025000 0.275000 0.000000
-0.025000 0.300000 0.000000
-0.025000 0.325000 0.000000
-0.025000 0.350000 0.000000
-0.025000 0.375000 0.000000
-0.025000 0.400000 0.000000
-0.025000 0.425000 0.000000
-0.025000 0.450000 0.000000
-0.025000 0.475000 0.000000
-0.025000 0.500000 0.000000
-0.025000 0.525000 0.000000
-0.025000 0.550000 0.000000
-0.025000 0.575000 0.000000
-0.025000 0.600000 0.000000
-0.025000 0.625000 0.000000
-0.025000 0.650000 0.000000
-0.025000 0.675000 0.000000
0.000000 -0.075000 0.000000
0.000000 -0.050000 0.000000
0.000000 -0.025000 0.000000
0.000000 0.000000 0.000000
0.000000 0.025000 0.000000
0.000000 0.050000 0.000000
0.000000 0.075000 0.000000
0.000000 0.100000 0.000000
0.000000 0.125000 0.000000
0.000000 0.150000 0.000000
0.000000 0.175000 0.000000
0.000000 0.200000 0.000000
0.000000 0.225000 0.000000
0.000000 0.250000 0.000000
0.000000 0.275000 0.000000
0.000000 0.300000 0.000000
0.000000 0.325000 0.000000
0.000000 0.350000 0.000000
0.000000 0.375000 0.000000
0.000000 0.400000 0.000000
0.000000 0.425000 0.000000
0.000000 0.450000 0.000000
0.000000 0.475000 0.000000
0.000000 0.500000 0.000000
0.000000 0.525000 0.000000
0.000000 0.550000 0.000000
0.000000 0.575000 0.000000
0.000000 0.600000 0.000000
0.000000 0.625000 0.000000
0.000000 0.650000 0.000000
0.000000 0.675000 0.000000
0.025000 -0.075000 0.000000
0.025000 -0.050000 0.000000
0.025000 -0.025000 0.000000
0.025000 0.000000 0.000000
0.025000 0.025000 0.000000
0.025000 0.050000 0.000000
0.025000 0.075000 0.000000
0.025000 0.100000 0.000000
0.025000 0.125000 0.000000
0.025000 0.150000 0.000000
0.025000 0.175000 0.000000
0.025000 0.200000 0.000000
0.025000 0.225000 0.000000
0.025000 0.250000 0.000000
0.025000 0.275000 0.000000
0.025000 0.300000 0.000000
0.025000 0.325000 0.000000
0.025000 0.350000 0.000000
0.025000 0.375000 0.000000
0.025000 0.400000 0.000000
0.025000 0.425000 0.000000
0.025000 0.450000 0.000000
0.025000 0.475000 0.000000
0.025000 0.500000 0.000000
0.025000 0.525000 0.000000
0.025000 0.550000 0.000000
0.025000 0.575000 0.000000
0.025000 0.600000 0.000000
0.025000 0.625000 0.000000
0.025000 0.650000 0.000000
0.025000 0.675000 0.000000
0.050000 -0.075000 0.000000
0.050000 -0.050000 0.000000
0.050000 -0.025000 0.000000
0.050000 0.000000 0.000000
0.050000 0.025000 0.000000
0.050000 0.050000 0.000000
0.050000 0.075000 0.000000
0.050000 0.100000 0.000000
0.050000 0.125000 0.000000
0.050000 0.150000 0.000000
0.050000 0.175000 0.000000
0.050000 0.200000 0.000000
0.050000 0.225000 0.000000
0.050000 0.250000 0.000000
0.050000 0.275000 0.000000
0.050000 0.300000 0.000000
0.050000 0.325000 0.000000
0.050000 0.350000 0.000000
0.050000 0.375000 0.000000
0.050000 0.400000 0.000000
0.050000 0.425000 0.000000
0.050000 0.450000 0.000000
0.050000 0.475000 0.000000
0.050000 0.500000 0.000000
0.050000 0.525000 0.000000
0.050000 0.550000 0.000000
0.050000 0.575000 0.000000
0.050000 0.600000 0.000000
0.050000 0.625000 0.000000
0.050000 0.650000 0.000000
0.050000 0.675000 0.000000
0.075000 -0.075000 0.000000
0.075000 -0.050000 0.000000
0.075000 -0.025000 0.000000
0.075000 0.000000 0.000000
0.075000 0.025000 0.000000
0.075000 0.050000 0.000000
0.075000 0.075000 0.000000
0.075000 0.100000 0.000000
0.075000 0.125000 0.000000
0.075000 0.150000 0.000000
0.075000 0.175000 0.000000
0.075000 0.200000 0.000000
0.075000 0.225000 0.000000
0.075000 0.250000 0.000000
0.075000 0.275000 0.000000
0.075000 0.300000 0.000000
0.075000 0.325000 0.000000
0.075000 0.350000 0.000000
0.075000 0.375000 0.000000
0.075000 0.400000 0.000000
0.075000 0.425000 0.000000
0.075000 0.450000 0.000000
0.075000 0.475000 0.000000
0.075000 0.500000 0.000000
0.075000 0.525000 0.000000
0.075000 0.550000 0.000000
0.075000 0.575000 0.000000
0.075000 0.600000 0.000000
0.075000 0.625000 0.000000
0.075000 0.650000 0.000000
0.075000 0.675000 0.000000
0.100000 -0.075000 0.000000
0.100000 -0.050000 0.000000
0.100000 -0.025000 0.000000
0.100000 0.000000 0.000000
0.100000 0.025000 0.000000
0.100000 0.050000 0.000000
0.100000 0.075000 0.000000
0.100000 0.100000 0.000000
0.100000 0.125000 0.000000
0.100000 0.150000 0.000000
0.100000 0.175000 0.000000
0.100000 0.200000 0.000000
0.100000 0.225000 0.000000
0.100000 0.250000 0.000000
0.100000 0.275000 0.000000
0.100000 0.300000 0.000000
0.100000 0.325000 0.000000
0.100000 0.350000 0.000000
0.100000 0.375000 0.000000
0.100000 0.400000 0.000000
0.100000 0.425000 0.000000
0.100000 0.450000 0.000000
0.100000 0.475000 0.000000
0.100000 0.500000 0.000000
0.100000 0.525000 0.000000
0.100000 0.550000 0.000000
0.100000 0.575000 0.000000
0.100000 0.600000 0.000000
0.100000 0.625000 0.000000
0.100000 0.650000 0.000000
0.100000 0.675000 0.000000
0.125000 -0.075000 0.000000
0.125000 -0.050000 0.000000
0.125000 -0.025000 0.000000
0.125000 0.000000 0.000000
0.125000 0.025000 0.000000
0.125000 0.050000 0.000000
0.125000 0.075000 0.000000
0.125000 0.100000 0.000000
0.125000 0.125000 0.000000
0.125000 0.150000 0.000000
0.125000 0.175000 0.000000
0.125000 0.200000 0.000000
0.125000 0.225000 0.000000
0.125000 0.250000 0.000000
0.125000 0.275000 0.000000
0.125000 0.300000 0.000000
0.125000 0.325000 0.000000
0.125000 0.350000 0.000000
0.125000 0.375000 0.000000
0.125000 0.400000 0.000000
0.125000 0.425000 0.000000
0.125000 0.450000 0.000000
0.125000 0.475000 0.000000
0.125000 0.500000 0.000000
0.125000 0.525000 0.000000
0.125000 0.550000 0.000000
0.125000 0.575000 0.000000
0.125000 0.600000 0.000000
0.125000 0.625000 0.000000
0.125000 0.650000 0.000000
0.125000 0.675000 0.000000
0.150000 -0.075000 0.000000
0.150000 -0.050000 0.000000
0.150000 -0.025000 0.000000
0.150000 0.000000 0.000000
0.150000 0.025000 0.000000
0.150000 0.050000 0.000000
0.150000 0.075000 0.000000
0.150000 0.100000 0.000000
0.150000 0.125000 0.000000
0.150000 0.150000 0.000000
0.150000 0.175000 0.000000
0.150000 0.200000 0.000000
0.150000 0.225000 0.000000
0.150000 0.250000 0.000000
0.150000 0.275000 0.000000
0.150000 0.300000 0.000000
0.150000 0.325000 0.000000
0.150000 0.350000 0.000000
0.150000 0.375000 0.000000
0.150000 0.400000 0.000000
0.150000 0.425000 0.000000
0.150000 0.450000 0.000000
0.150000 0.475000 0.000000
0.150000 0.500000 0.000000
0.150000 0.525000 0.000000
0.150000 0.550000 0.000000
0.150000 0.575000 0.000000
0.150000 0.600000 0.000000
0.150000 0.625000 0.000000
0.150000 0.650000 0.000000
0.150000 0.675000 0.000000
0.175000 -0.075000 0.000000
0.175000 -0.050000 0.000000
0.175000 -0.025000 0.000000
0.175000 0.000000 0.000000
0.175000 0.025000 0.000000
0.175000 0.050000 0.000000
0.175000 0.075000 0.000000
0.175000 0.100000 0.000000
0.175000 0.125000 0.000000
0.175000 0.150000 0.000000
0.175000 0.175000 0.000000
0.175000 0.200000 0.000000
0.175000 0.225000 0.000000
0.175000 0.250000 0.000000
0.175000 0.275000 0.000000
0.175000 0.300000 0.000000
0.175000 0.325000 0.000000
0.175000 0.350000 0.000000
0.175000 0.375000 0.000000
0.175000 0.400000 0.000000
0.175000 0.425000 0.000000
0.175000 0.450000 0.000000
0.175000 0.475000 0.000000
0.175000 0.500000 0.000000
0.175000 0.525000 0.000000
0.175000 0.550000 0.000000
0.175000 0.575000 0.000000
0.175000 0.600000 0.000000
0.175000 0.625000 0.000000
0.175000 0.650000 0.000000
0.175000 0.675000 0.000000
0.200000 -0.075000 0.000000
0.200000 -0.050000 0.000000
0.200000 -0.025000 0.000000
0.200000 0.000000 0.000000
0.200000 0.025000 0.000000
0.200000 0.050000 0.000000
0.200000 0.075000 0.000000
0.200000 0.100000 0.000000
0.200000 0.125000 0.000000
0.200000 0.150000 0.000000
0.200000 0.175000 0.000000
0.200000 0.200000 0.000000
0.200000 0.225000 0.000000
0.200000 0.250000 0.000000
[...]
<PointData>
<DataArray NumberOfComponents='1' type='Int32' Name='ParticleType' format='ascii'>
4
4
4
4
4
4
4
4
4
4
4
4
4
4
4
4
4
4
4
4
4
4
4
4
4
4
4
4
2
2
2
4
4
4
4
4
4
4
4
4
4
4
4
4
4
4
4
4
4
4
4
4
4
4
4
4
4
4
4
2
2
2
4
4
3
3
3
3
3
3
3
3
3
3
3
3
3
3
3
3
3
3
3
3
3
3
3
3
3
3
2
2
2
4
4
3
3
3
3
3
3
3
3
3
3
3
3
3
3
3
3
3
3
3
3
3
3
3
3
3
3
2
2
2
4
4
3
3
0
0
0
0
0
0
0
0
0
0
0
0
0
0
0
0
0
0
0
0
0
1
1
2
2
2
2
4
4
3
3
0
0
0
0
0
0
0
0
0
0
0
0
0
0
0
0
0
0
0
0
0
0
1
2
2
2
2
4
4
3
3
0
0
0
0
0
0
0
0
0
0
0
0
0
0
0
0
0
0
0
0
0
0
1
2
2
2
2
4
4
3
3
0
0
0
0
0
0
0
0
0
0
0
0
0
0
0
0
0
0
0
0
0
0
1
2
2
2
2
4
4
3
3
0
0
0
0
0
0
0
0
0
0
0
0
0
0
0
0
0
0
0
0
0
0
1
2
2
2
2
4
4
3
3
0
0
0
0
0
0
0
0
0
0
0
0
0
0
0
0
0
0
0
0
0
0
1
2
2
2
2
4
4
3
3
0
0
0
0
0
0
0
0
0
0
0
0
0
0
0
0
0
0
0
0
0
0
1
2
2
2
2
4
4
3
3
0
0
0
0
0
0
0
0
0
0
0
0
0
0
0
0
0
0
0
0
0
0
1
2
2
2
2
4
4
3
3
0
0
0
0
0
0
0
0
0
0
0
0
0
0
0
0
0
0
0
0
0
0
1
2
2
2
2
4
4
3
3
0
0
0
0
0
0
0
0
0
0
0
0
0
0
0
0
0
0
0
0
0
0
0
2
2
2
2
4
4
3
3
0
0
0
0
0
0
0
0
0
0
0
0
0
0
0
0
0
0
0
0
0
0
0
2
2
2
2
4
4
3
3
0
0
0
0
0
0
0
0
0
0
0
0
0
0
0
0
0
0
0
0
0
0
0
2
2
2
2
4
4
3
3
0
0
0
0
0
0
0
0
0
0
0
0
0
0
0
0
0
0
0
0
0
0
0
1
2
2
2
4
4
3
3
0
0
0
0
0
0
0
0
0
0
0
0
0
0
0
0
0
0
0
0
0
0
0
1
2
2
2
4
4
3
3
0
0
0
0
0
0
0
0
0
0
0
0
0
0
0
0
0
0
0
0
0
0
0
1
2
2
2
4
4
3
3
0
0
0
0
0
0
0
0
0
0
0
0
0
0
0
0
0
0
0
0
0
0
0
1
2
2
2
4
4
3
3
0
0
0
0
0
0
0
0
0
0
0
0
0
0
0
0
0
0
0
0
0
0
0
1
2
2
2
4
4
3
3
0
0
0
0
0
0
0
0
0
0
0
0
0
0
0
0
0
0
0
0
0
0
0
1
2
2
2
4
4
3
3
0
0
0
0
0
0
0
0
0
0
0
0
0
0
0
0
0
0
0
0
0
0
0
1
2
2
2
4
4
3
3
0
0
0
0
0
0
0
0
0
0
0
0
0
0
0
0
0
0
0
0
0
0
0
1
2
2
2
4
4
3
3
0
0
0
0
0
0
0
0
0
0
0
0
0
0
0
0
0
0
0
0
0
0
0
1
2
2
2
4
4
3
3
0
0
0
0
0
0
0
0
0
0
0
0
0
0
0
0
0
0
0
0
0
0
0
1
2
2
2
4
4
3
3
0
0
0
0
0
0
0
0
0
0
0
0
0
0
0
0
0
0
0
0
0
0
0
1
2
2
2
4
4
3
3
0
0
0
0
0
0
0
0
0
0
0
0
0
0
0
0
0
0
0
0
0
0
0
1
2
2
2
4
4
3
3
0
0
0
0
0
0
0
0
0
0
0
0
0
0
0
0
0
0
0
0
0
0
0
1
2
2
2
4
4
3
3
0
0
0
0
0
0
0
0
0
0
0
0
0
0
0
0
0
0
0
0
0
0
0
1
2
2
2
4
4
3
3
0
0
0
0
0
0
0
0
0
0
0
0
0
0
0
0
0
0
0
0
0
0
0
1
2
2
2
4
4
3
3
0
0
0
0
0
0
0
0
0
0
0
0
0
0
0
0
0
0
0
0
0
0
0
1
2
2
2
4
4
3
3
0
0
0
0
0
0
0
0
0
0
0
0
0
0
0
0
0
0
0
0
0
0
0
1
2
2
2
4
4
3
3
0
0
0
0
0
0
0
0
0
0
0
0
0
0
0
0
0
0
0
0
0
0
0
1
2
2
2
4
4
3
3
0
0
0
0
0
0
0
0
0
0
0
0
0
0
0
0
0
0
0
0
0
0
0
2
2
2
2
4
4
3
3
0
0
0
0
0
0
0
0
0
0
0
0
0
0
0
0
0
0
0
0
0
0
1
2
2
2
2
4
4
3
3
0
0
0
0
0
0
0
0
0
0
0
0
0
0
0
0
0
0
0
0
0
0
1
2
2
2
2
4
4
3
3
0
0
0
0
0
0
0
0
0
0
0
0
0
0
0
0
0
0
0
0
0
0
1
2
2
2
2
4
4
3
3
0
0
0
0
0
0
0
0
0
0
0
0
0
0
0
0
0
0
0
0
0
0
1
2
2
2
2
4
4
3
3
0
0
0
0
0
0
0
0
0
0
0
0
0
0
0
0
0
0
0
0
0
0
1
2
2
2
2
4
4
3
3
0
0
0
0
0
0
0
0
0
0
0
0
0
0
0
0
0
0
0
0
0
0
1
2
2
2
2
4
4
3
3
0
0
0
0
0
0
0
0
0
0
0
0
0
0
0
0
0
0
0
0
0
0
1
2
2
2
2
4
4
3
3
0
0
0
0
0
0
0
0
0
0
0
0
0
0
0
0
0
0
0
0
0
0
1
2
2
2
2
4
4
3
3
0
0
0
0
0
0
0
0
0
0
0
0
0
0
0
0
0
0
0
0
0
1
1
2
2
2
2
4
4
3
3
3
3
3
3
3
3
3
3
3
3
3
3
3
3
3
3
3
3
3
3
3
3
3
3
2
2
2
4
4
3
3
3
3
3
3
3
3
3
3
3
3
3
3
3
3
3
3
3
3
3
3
3
3
3
3
2
2
2
4
4
4
4
4
4
4
4
4
4
4
4
4
4
4
4
4
4
4
4
4
4
4
4
4
4
4
4
2
2
2
4
4
4
4
4
4
4
4
4
4
4
4
4
4
4
4
4
4
4
4
4
4
4
4
4
4
4
4
2
2
2
</DataArray>
<DataArray NumberOfComponents='1' type='Float32' Name='Temperature' format='ascii'>
0.000000
0.000000
0.000000
0.000000
0.000000
0.000000
0.000000
0.000000
0.000000
0.000000
0.000000
0.000000
0.000000
0.000000
0.000000
0.000000
0.000000
0.000000
0.000000
0.000000
0.000000
0.000000
0.000000
0.000000
0.000000
0.000000
0.000000
0.000000
-5.000000
-5.000000
-5.000000
0.000000
0.000000
0.000000
0.000000
0.000000
0.000000
0.000000
0.000000
0.000000
0.000000
0.000000
0.000000
0.000000
0.000000
0.000000
0.000000
0.000000
0.000000
0.000000
0.000000
0.000000
0.000000
0.000000
0.000000
0.000000
0.000000
0.000000
0.000000
-5.000000
-5.000000
-5.000000
0.000000
0.000000
0.000000
0.000000
0.000000
0.000000
0.000000
0.000000
0.000000
0.000000
0.000000
0.000000
0.000000
0.000000
0.000000
0.000000
0.000000
0.000000
0.000000
0.000000
0.000000
0.000000
0.000000
0.000000
0.000000
0.000000
0.000000
0.000000
-5.000000
-5.000000
-5.000000
0.000000
0.000000
0.000000
0.000000
0.000000
0.000000
0.000000
0.000000
0.000000
0.000000
0.000000
0.000000
0.000000
0.000000
0.000000
0.000000
0.000000
0.000000
0.000000
0.000000
0.000000
0.000000
0.000000
0.000000
0.000000
0.000000
0.000000
0.000000
-5.000000
-5.000000
-5.000000
0.000000
0.000000
0.000000
0.000000
0.162708
0.291403
0.421212
0.543831
0.658467
0.763106
0.856016
0.935508
0.999999
1.048043
1.078374
1.089951
1.081989
1.053963
1.005575
0.936653
0.847008
0.736172
0.603418
0.445743
0.267753
0.009981
0.005872
-2.124895
-5.000000
-5.000000
-5.000000
0.000000
0.000000
0.000000
0.000000
0.294711
0.527575
0.762909
0.985445
1.193812
1.384329
1.553795
1.699053
1.817122
1.905267
1.961095
1.982649
1.968484
1.917678
1.829779
1.704640
1.542153
1.341836
1.102923
0.821452
0.507254
0.073289
0.006009
-2.362202
-5.000000
-5.000000
-5.000000
0.000000
0.000000
0.000000
0.000000
0.433602
0.776537
1.123516
1.452245
1.760733
2.043500
2.295689
2.512437
2.689103
2.821403
2.905590
2.938629
2.918330
2.843398
2.713360
2.528333
2.288645
1.994269
1.644965
1.237185
0.784446
0.202611
0.007084
-2.439520
-5.000000
-5.000000
-5.000000
0.000000
0.000000
0.000000
0.000000
0.573873
1.028234
1.488735
1.926087
2.337708
2.716238
3.054992
3.347152
3.586128
3.765793
3.880792
3.926830
3.900899
3.801382
3.627972
3.381375
3.062803
2.673229
2.213399
1.680960
1.091013
0.369779
0.007820
-2.442405
-5.000000
-5.000000
-5.000000
0.000000
0.000000
0.000000
0.000000
0.717405
1.286155
1.863755
2.413923
2.933511
3.413159
3.844119
4.217301
4.523790
4.755244
4.904368
4.965372
4.934326
4.809337
4.590477
4.279413
3.878733
3.390951
2.818142
2.159132
1.428420
0.562214
0.008251
-2.425383
-5.000000
-5.000000
-5.000000
0.000000
0.000000
0.000000
0.000000
0.864746
1.551319
2.250158
2.917977
3.551093
4.138008
4.667645
5.128273
5.508230
5.796527
5.983554
6.061752
6.026144
5.874604
5.607811
5.228784
4.742021
4.152175
3.463033
2.674412
1.797926
0.778396
0.008607
-2.399930
-5.000000
-5.000000
-5.000000
0.000000
0.000000
0.000000
0.000000
1.016426
1.824701
2.649412
3.440244
4.193007
4.893912
5.529274
6.084323
6.544195
6.894793
7.123786
7.221554
7.181924
7.002579
6.685023
6.234032
5.656581
4.960143
4.150868
3.229819
2.203370
1.022692
0.009318
-2.366539
-5.000000
-5.000000
-5.000000
0.000000
0.000000
0.000000
0.000000
1.172536
2.106467
3.061754
3.981026
4.859617
5.681295
6.429479
7.085968
7.632236
8.050615
8.325645
8.445342
8.402195
8.193717
7.822443
7.295295
6.622283
5.814482
4.881426
3.826632
2.650394
1.308452
0.009624
-2.315443
-5.000000
-5.000000
-5.000000
0.000000
0.000000
0.000000
0.000000
1.332612
2.395752
3.485869
4.538522
5.548592
6.497270
7.364809
8.129210
8.767860
9.259086
9.583916
9.727722
9.681507
9.442630
9.014837
8.407526
7.634254
6.710458
5.650333
4.462046
3.143634
1.656669
0.009926
-2.222368
-5.000000
-5.000000
-5.000000
0.000000
0.000000
0.000000
0.000000
1.495496
2.690427
3.918556
5.108387
6.254378
7.335025
8.327200
9.204792
9.940737
10.508991
10.886742
11.056475
11.007581
10.737270
10.250635
9.559807
8.682272
7.638407
6.448186
5.127028
3.677401
2.080670
0.223191
-2.042692
-5.000000
-5.000000
-5.000000
0.000000
0.000000
0.000000
0.000000
1.659294
2.987014
4.354601
5.683582
6.968020
8.183643
9.303786
10.298000
11.134507
11.782616
12.215436
12.412383
12.361142
12.058772
11.511800
10.735250
9.750744
8.583866
7.260862
5.805559
4.230799
2.547379
0.644407
-1.741397
-5.000000
-5.000000
-5.000000
0.000000
0.000000
0.000000
0.000000
1.821399
3.280739
4.786872
6.254512
7.677352
9.028343
10.277203
11.389038
12.327208
13.056233
13.545008
13.769782
13.716477
13.382002
12.774353
11.911505
10.819249
9.528322
8.071034
6.478903
4.775257
2.997875
1.039834
-1.044895
-5.000000
-5.000000
-5.000000
0.000000
0.000000
0.000000
0.000000
1.978608
3.565745
5.206638
6.809460
8.367565
9.851174
11.226422
12.453977
13.492348
14.301259
14.845388
15.097813
15.042695
14.676787
14.009544
13.061850
11.863560
10.450295
8.859815
7.129768
5.290266
3.394216
1.334743
-0.009175
-5.000000
-5.000000
-5.000000
0.000000
0.000000
0.000000
0.000000
2.127308
3.835435
5.604076
7.335271
9.022062
10.632065
12.127969
13.466159
14.600452
15.485933
16.083195
16.362247
16.305545
15.909685
15.185527
14.156734
12.857005
11.326472
9.607683
7.743016
5.766981
3.736015
1.548751
-0.006006
-5.000000
-5.000000
-5.000000
0.000000
0.000000
0.000000
0.000000
2.263704
4.082881
5.968890
7.818175
9.623504
11.350085
12.957407
14.397870
15.620918
16.577309
17.223829
17.527622
17.469553
17.046071
16.269336
15.165583
13.772034
12.132903
10.294935
8.304356
6.198945
4.035627
1.719190
-0.004663
-5.000000
-5.000000
-5.000000
0.000000
0.000000
0.000000
0.000000
2.384058
4.301272
6.290965
8.244668
10.154906
11.984759
13.690864
15.222070
16.523918
17.543306
18.233618
18.559443
18.500222
18.052274
17.228913
16.058656
14.581847
12.846275
10.902330
8.799494
6.578305
4.296312
1.864683
-0.003044
-5.000000
-5.000000
-5.000000
0.000000
0.000000
0.000000
0.000000
2.484923
4.484324
6.560980
8.602314
10.600655
12.517288
14.306449
15.913989
17.282155
18.354583
19.081785
19.426189
19.366034
18.897529
18.034961
16.808769
15.261917
13.445197
11.412035
9.214635
6.895869
4.513994
1.985761
-0.003038
-5.000000
-5.000000
-5.000000
0.000000
0.000000
0.000000
0.000000
2.563330
4.626633
6.770924
8.880440
10.947358
12.931566
14.785425
16.452448
17.872305
18.986086
19.742059
20.100963
20.040100
19.555590
18.662480
17.392707
15.791280
13.911328
11.808639
9.537540
7.142742
4.683100
2.079792
-0.001306
-5.000000
-5.000000
-5.000000
0.000000
0.000000
0.000000
0.000000
2.616940
4.723940
6.914490
9.070649
11.184489
13.214945
15.113092
16.820838
18.276091
19.418193
20.193873
20.562715
20.501375
20.005913
19.091897
17.792291
16.153504
14.230263
12.079976
9.758424
7.311582
4.798733
2.144063
-0.001146
-5.000000
-5.000000
-5.000000
0.000000
0.000000
0.000000
0.000000
2.644144
4.773319
6.987342
9.167170
11.304822
13.358747
15.279368
17.007781
18.480996
19.637471
20.423153
20.797039
20.735458
20.234441
19.309818
17.995075
16.337329
14.392120
12.217676
9.870518
7.397262
4.857408
2.176679
-0.000750
-5.000000
-5.000000
-5.000000
0.000000
0.000000
0.000000
0.000000
2.644124
4.773279
6.987278
9.167074
11.304687
13.358568
15.279142
17.007506
18.480677
19.637113
20.422767
20.796638
20.735056
20.234053
19.309456
17.994750
16.337048
14.391886
12.217491
9.870378
7.397163
4.857345
2.176647
-0.000748
-5.000000
-5.000000
-5.000000
0.000000
0.000000
0.000000
0.000000
2.616880
4.723824
6.914299
9.070363
11.184090
13.214416
15.112421
16.820024
18.275142
19.417131
20.192728
20.561524
20.500182
20.004760
19.090823
17.791326
16.152670
14.229570
12.079426
9.758009
7.311289
4.798549
2.143970
-0.001138
-5.000000
-5.000000
-5.000000
0.000000
0.000000
0.000000
0.000000
2.563233
4.626443
6.770613
8.879977
10.946709
12.930705
14.784333
16.451122
17.870760
18.984356
19.740193
20.099024
20.038157
19.553712
18.660729
17.391135
15.789923
13.910202
11.807748
9.536871
7.142273
4.682808
2.079648
-0.001285
-5.000000
-5.000000
-5.000000
0.000000
0.000000
0.000000
0.000000
2.484793
4.484069
6.560562
8.601690
10.599781
12.516127
14.304976
15.912201
17.280071
18.352248
19.079266
19.423571
19.363410
18.894994
18.032599
16.806649
15.260089
13.443687
11.410845
9.213751
6.895260
4.513624
1.985586
-0.002997
-5.000000
-5.000000
-5.000000
0.000000
0.000000
0.000000
0.000000
2.383903
4.300965
6.290460
8.243913
10.153847
11.983349
13.689073
15.219893
16.521379
17.540460
18.230547
18.556251
18.497022
18.049183
17.226035
16.056079
14.579631
12.844457
10.900917
8.798469
6.577630
4.295936
1.864536
-0.002974
-5.000000
-5.000000
-5.000000
0.000000
0.000000
0.000000
0.000000
2.263531
4.082539
5.968325
7.817328
9.622311
11.348493
12.955380
14.395403
15.618037
16.574077
17.220340
17.523994
17.465917
17.042560
16.266071
15.162667
13.769544
12.130888
10.293416
8.303327
6.198400
4.035521
1.719347
-0.004568
-5.000000
-5.000000
-5.000000
0.000000
0.000000
0.000000
0.000000
2.127129
3.835079
5.603484
7.334378
9.020799
10.630373
12.125808
13.463523
14.597368
15.482468
16.079451
16.358353
16.301642
15.905918
15.182031
14.153628
12.854385
11.324412
9.606231
7.742233
5.767049
3.737399
1.551763
-0.005847
-5.000000
-5.000000
-5.000000
0.000000
0.000000
0.000000
0.000000
1.978435
3.565399
5.206057
6.808575
8.366304
9.849473
11.224241
12.451306
13.489215
14.297733
14.841573
15.093841
15.038715
14.672949
14.005994
13.058722
11.860977
10.448375
8.858670
7.129623
5.291779
3.403193
1.359224
-0.008935
-5.000000
-5.000000
-5.000000
0.000000
0.000000
0.000000
0.000000
1.821245
3.280425
4.786338
6.253688
7.676165
9.026727
10.275116
11.386468
12.324183
13.052819
13.541307
13.765925
13.712612
13.378281
12.770927
11.908524
10.816874
9.526739
8.070466
6.479815
4.779090
3.022769
1.104566
-0.006561
-5.000000
-5.000000
-5.000000
0.000000
0.000000
0.000000
0.000000
1.659169
2.986753
4.354147
5.682866
6.966969
8.182195
9.301896
10.295657
11.131733
11.779473
12.212021
12.408819
12.357569
12.055339
11.508658
10.732566
9.748721
8.582780
7.261079
5.807771
4.237848
2.581762
0.746374
-0.009935
-5.000000
-5.000000
-5.000000
0.000000
0.000000
0.000000
0.000000
1.495407
2.690234
3.918205
5.107813
6.253514
7.333809
8.325590
9.202774
9.938330
10.506248
10.883751
11.053346
11.004443
10.734260
10.247901
9.557525
8.680684
7.637876
6.449220
5.130388
3.684315
2.108598
0.289614
-1.821400
-5.000000
-5.000000
-5.000000
0.000000
0.000000
0.000000
0.000000
1.332561
2.395632
3.485632
4.538108
5.547940
6.496323
7.363527
8.127578
8.765892
9.256827
9.581439
9.725123
9.678897
9.440130
9.012584
8.405693
7.633102
6.710402
5.651958
4.466074
3.150496
1.671088
0.009754
-2.142714
-5.000000
-5.000000
-5.000000
0.000000
0.000000
0.000000
0.000000
1.172523
2.106418
3.061628
3.980772
4.859180
5.680626
6.428540
7.084743
7.630735
8.048871
8.323718
8.443310
8.400149
8.191757
7.820686
7.293898
6.621494
5.814703
4.883222
3.830590
2.656372
1.316066
0.009599
-2.296301
-5.000000
-5.000000
-5.000000
0.000000
0.000000
0.000000
0.000000
1.016444
1.824712
2.649383
3.440132
4.192765
4.893498
5.528656
6.083485
6.543141
6.893547
7.122393
7.220071
7.180422
7.001135
6.683728
6.233015
5.656044
4.960416
4.152399
3.233003
2.207861
1.027481
0.009310
-2.361576
-5.000000
-5.000000
-5.000000
0.000000
0.000000
0.000000
0.000000
0.864786
1.551373
2.250201
2.917975
3.551009
4.137806
4.667299
5.127767
5.507564
5.795717
5.982630
6.060756
6.025122
5.873611
5.606909
5.228063
4.741627
4.152339
3.464048
2.676493
1.800757
0.781120
0.008927
-2.398467
-5.000000
-5.000000
-5.000000
0.000000
0.000000
0.000000
0.000000
0.717455
1.286233
1.863842
2.413993
2.933535
3.413111
3.843978
4.217051
4.523430
4.754782
4.903822
4.964766
4.933690
4.808701
4.589879
4.278905
3.878402
3.390938
2.818616
2.160195
1.429874
0.563561
0.008446
-2.424884
-5.000000
-5.000000
-5.000000
0.000000
0.000000
0.000000
0.000000
0.573923
1.028316
1.488836
1.926189
2.337792
2.716283
3.054981
3.347075
3.585980
3.765577
3.880517
3.926508
3.900543
3.801005
3.627589
3.381008
3.062494
2.673052
2.213448
1.681294
1.091553
0.370313
0.007877
-2.442217
-5.000000
-5.000000
-5.000000
0.000000
0.000000
0.000000
0.000000
0.433644
0.776609
1.123608
1.452347
1.760832
2.043581
2.295742
2.512453
2.689078
2.821336
2.905484
2.938487
2.918155
2.843191
2.713120
2.528060
2.288353
1.993992
1.644755
1.237094
0.784480
0.202712
0.007028
-2.439452
-5.000000
-5.000000
-5.000000
0.000000
0.000000
0.000000
0.000000
0.294740
0.527626
0.762976
0.985522
1.193893
1.384404
1.553859
1.699099
1.817146
1.905268
1.961072
1.982602
1.968409
1.917571
1.829632
1.704444
1.541906
1.341550
1.102629
0.821198
0.507083
0.073222
0.006226
-2.362174
-5.000000
-5.000000
-5.000000
0.000000
0.000000
0.000000
0.000000
0.162723
0.291429
0.421248
0.543874
0.658513
0.763151
0.856058
0.935543
1.000025
1.048058
1.078377
1.089940
1.081961
1.053912
1.005494
0.936534
0.846844
0.735966
0.603187
0.445521
0.267585
0.009996
0.005743
-2.124894
-5.000000
-5.000000
-5.000000
0.000000
0.000000
0.000000
0.000000
0.000000
0.000000
0.000000
0.000000
0.000000
0.000000
0.000000
0.000000
0.000000
0.000000
0.000000
0.000000
0.000000
0.000000
0.000000
0.000000
0.000000
0.000000
0.000000
0.000000
0.000000
0.000000
0.000000
0.000000
-5.000000
-5.000000
-5.000000
0.000000
0.000000
0.000000
0.000000
0.000000
0.000000
0.000000
0.000000
0.000000
0.000000
0.000000
0.000000
0.000000
0.000000
0.000000
0.000000
0.000000
0.000000
0.000000
0.000000
0.000000
0.000000
0.000000
0.000000
0.000000
0.000000
0.000000
0.000000
-5.000000
-5.000000
-5.000000
0.000000
0.000000
0.000000
0.000000
0.000000
0.000000
0.000000
0.000000
0.000000
0.000000
0.000000
0.000000
0.000000
0.000000
0.000000
0.000000
0.000000
0.000000
0.000000
0.000000
0.000000
0.000000
0.000000
0.000000
0.000000
0.000000
0.000000
0.000000
-5.000000
-5.000000
-5.000000
0.000000
0.000000
0.000000
0.000000
0.000000
0.000000
0.000000
0.000000
0.000000
0.000000
0.000000
0.000000
0.000000
0.000000
0.000000
0.000000
0.000000
0.000000
0.000000
0.000000
0.000000
0.000000
0.000000
0.000000
0.000000
0.000000
0.000000
0.000000
-5.000000
-5.000000
-5.000000
</DataArray>
</PointData>
<Cells>
<DataArray type='Int32' Name='connectivity' format='ascii'>
0
1
2
3
4
5
6
7
8
9
10
11
12
13
14
15
16
17
18
19
20
21
22
23
24
25
26
27
28
29
30
31
32
33
34
35
36
37
38
39
40
41
42
43
44
45
46
47
48
49
50
51
52
53
54
55
56
57
58
59
60
61
62
63
64
65
66
67
68
69
70
71
72
73
74
75
76
77
78
79
80
81
82
83
84
85
86
87
88
89
90
91
92
93
94
95
96
97
98
99
100
101
102
103
104
105
106
107
108
109
110
111
112
113
114
115
116
117
118
119
120
121
122
123
124
125
126
127
128
129
130
131
132
133
134
135
136
137
138
139
140
141
142
143
144
145
146
147
148
149
150
151
152
153
154
155
156
157
158
159
160
161
162
163
164
165
166
167
168
169
170
171
172
173
174
175
176
177
178
179
180
181
182
183
184
185
186
187
188
189
190
191
192
193
194
195
196
197
198
199
200
201
202
203
204
205
206
207
208
209
210
211
212
213
214
215
216
217
218
219
220
221
222
223
224
225
226
227
228
229
230
231
232
233
234
235
236
237
238
239
240
241
242
243
244
245
246
247
248
249
250
251
252
253
254
255
256
257
258
259
260
261
262
263
264
265
266
267
268
269
270
271
272
273
274
275
276
277
278
279
280
281
282
283
284
285
286
287
288
289
290
291
292
293
294
295
296
297
298
299
300
301
302
303
304
305
306
307
308
309
310
311
312
313
314
315
316
317
318
319
320
321
322
323
324
325
326
327
328
329
330
331
332
333
334
335
336
337
338
339
340
341
342
343
344
345
346
347
348
349
350
351
352
353
354
355
356
357
358
359
360
361
362
363
364
365
366
367
368
369
370
371
372
373
374
375
376
377
378
379
380
381
382
383
384
385
386
387
388
389
390
391
392
393
394
395
396
397
398
399
400
401
402
403
404
405
406
407
408
409
410
411
412
413
414
415
416
417
418
419
420
421
422
423
424
425
426
427
428
429
430
431
432
433
434
435
436
437
438
439
440
441
442
443
444
445
446
447
448
449
450
451
452
453
454
455
456
457
458
459
460
461
462
463
464
465
466
467
468
469
470
471
472
473
474
475
476
477
478
479
480
481
482
483
484
485
486
487
488
489
490
491
492
493
494
495
496
497
498
499
500
501
502
503
504
505
506
507
508
509
510
511
512
513
514
515
516
517
518
519
520
521
522
523
524
525
526
527
528
529
530
531
532
533
534
535
536
537
538
539
540
541
542
543
544
545
546
547
548
549
550
551
552
553
554
555
556
557
558
559
560
561
562
563
564
565
566
567
568
569
570
571
572
573
574
575
576
577
578
579
580
581
582
583
584
585
586
587
588
589
590
591
592
593
594
595
596
597
598
599
600
601
602
603
604
605
606
607
608
609
610
611
612
613
614
615
616
617
618
619
620
621
622
623
624
625
626
627
628
629
630
631
632
633
634
635
636
637
638
639
640
641
642
643
644
645
646
647
648
649
650
651
652
653
654
655
656
657
658
659
660
661
662
663
664
665
666
667
668
669
670
671
672
673
674
675
676
677
678
679
680
681
682
683
684
685
686
687
688
689
690
691
692
693
694
695
696
697
698
699
700
701
702
703
704
705
706
707
708
709
710
711
712
713
714
715
716
717
718
719
720
721
722
723
724
725
726
727
728
729
730
731
732
733
734
735
736
737
738
739
740
741
742
743
744
745
746
747