<?xml version='1.0' encoding='UTF-8'?>
<VTKFile xmlns='VTK' byte_order='LittleEndian' version='0.1' type='UnstructuredGrid'>
<UnstructuredGrid>
<Piece NumberOfCells='1488' NumberOfPoints='1488'>
<Points>
<DataArray NumberOfComponents='3' type='Float32' Name='Position' format='ascii'>
-0.075000 -0.075000 0.000000
-0.075000 -0.050000 0.000000
-0.075000 -0.025000 0.000000
-0.075000 0.000000 0.000000
-0.075000 0.025000 0.000000
-0.075000 0.050000 0.000000
-0.075000 0.075000 0.000000
-0.075000 0.100000 0.000000
-0.075000 0.125000 0.000000
-0.075000 0.150000 0.000000
-0.075000 0.175000 0.000000
-0.075000 0.200000 0.000000
-0.075000 0.225000 0.000000
-0.075000 0.250000 0.000000
-0.075000 0.275000 0.000000
-0.075000 0.300000 0.000000
-0.075000 0.325000 0.000000
-0.075000 0.350000 0.000000
-0.075000 0.375000 0.000000
-0.075000 0.400000 0.000000
-0.075000 0.425000 0.000000
-0.075000 0.450000 0.000000
-0.075000 0.475000 0.000000
-0.075000 0.500000 0.000000
-0.075000 0.525000 0.000000
-0.075000 0.550000 0.000000
-0.075000 0.575000 0.000000
-0.075000 0.600000 0.000000
-0.075000 0.625000 0.000000
-0.075000 0.650000 0.000000
-0.075000 0.675000 0.000000
-0.050000 -0.075000 0.000000
-0.050000 -0.050000 0.000000
-0.050000 -0.025000 0.000000
-0.050000 0.000000 0.000000
-0.050000 0.025000 0.000000
-0.050000 0.050000 0.000000
-0.050000 0.075000 0.000000
-0.050000 0.100000 0.000000
-0.050000 0.125000 0.000000
-0.050000 0.150000 0.000000
-0.050000 0.175000 0.000000
-0.050000 0.200000 0.000000
-0.050000 0.225000 0.000000
-0.050000 0.250000 0.000000
-0.050000 0.275000 0.000000
-0.050000 0.300000 0.000000
-0.050000 0.325000 0.000000
-0.050000 0.350000 0.000000
-0.050000 0.375000 0.000000
-0.050000 0.400000 0.000000
-0.050000 0.425000 0.000000
-0.050000 0.450000 0.000000
-0.050000 0.475000 0.000000
-0.050000 0.500000 0.000000
-0.050000 0.525000 0.000000
-0.050000 0.550000 0.000000
-0.050000 0.575000 0.000000
-0.050000 0.600000 0.000000
-0.050000 0.625000 0.000000
-0.050000 0.650000 0.000000
-0.050000 0.675000 0.000000
-0.025000 -0.075000 0.000000
-0.025000 -0.050000 0.000000
-0.025000 -0.025000 0.000000
-0.025000 0.000000 0.000000
-0.025000 0.025000 0.000000
-0.025000 0.050000 0.000000
-0.025000 0.075000 0.000000
-0.025000 0.100000 0.000000
-0.025000 0.125000 0.000000
-0.025000 0.150000 0.000000
-0.025000 0.175000 0.000000
-0.025000 0.200000 0.000000
-0.025000 0.225000 0.000000
-0.025000 0.250000 0.000000
-0.025000 0.275000 0.000000
-0.025000 0.300000 0.000000
-0.025000 0.325000 0.000000
-0.025000 0.350000 0.000000
-0.025000 0.375000 0.000000
-0.025000 0.400000 0.000000
-0.025000 0.425000 0.000000
-0.025000 0.450000 0.000000
-0.025000 0.475000 0.000000
-0.025000 0.500000 0.000000
-0.025000 0.525000 0.000000
-0.025000 0.550000 0.000000
-0.025000 0.575000 0.000000
-0.025000 0.600000 0.000000
-0.025000 0.625000 0.000000
-0.025000 0.650000 0.000000
-0.025000 0.675000 0.000000
0.000000 -0.075000 0.000000
0.000000 -0.050000 0.000000
0.000000 -0.025000 0.000000
0.000000 0.000000 0.000000
0.000000 0.025000 0.000000
0.000000 0.050000 0.000000
0.000000 0.075000 0.000000
0.000000 0.100000 0.000000
0.000000 0.125000 0.000000
0.000000 0.150000 0.000000
0.000000 0.175000 0.000000
0.000000 0.200000 0.000000
0.000000 0.225000 0.000000
0.000000 0.250000 0.000000
0.000000 0.275000 0.000000
0.000000 0.300000 0.000000
0.000000 0.325000 0.000000
0.000000 0.350000 0.000000
0.000000 0.375000 0.000000
0.000000 0.400000 0.000000
0.000000 0.425000 0.000000
0.000000 0.450000 0.000000
0.000000 0.475000 0.000000
0.000000 0.500000 0.000000
0.000000 0.525000 0.000000
0.000000 0.550000 0.000000
0.000000 0.575000 0.000000
0.000000 0.600000 0.000000
0.000000 0.625000 0.000000
0.000000 0.650000 0.000000
0.000000 0.675000 0.000000
0.025000 -0.075000 0.000000
0.025000 -0.050000 0.000000
0.025000 -0.025000 0.000000
0.025000 0.000000 0.000000
0.025000 0.025000 0.000000
0.025000 0.050000 0.000000
0.025000 0.075000 0.000000
0.025000 0.100000 0.000000
0.025000 0.125000 0.000000
0.025000 0.150000 0.000000
0.025000 0.175000 0.000000
0.025000 0.200000 0.000000
0.025000 0.225000 0.000000
0.025000 0.250000 0.000000
0.025000 0.275000 0.000000
0.025000 0.300000 0.000000
0.025000 0.325000 0.000000
0.025000 0.350000 0.000000
0.025000 0.375000 0.000000
0.025000 0.400000 0.000000
0.025000 0.425000 0.000000
0.025000 0.450000 0.000000
0.025000 0.475000 0.000000
0.025000 0.500000 0.000000
0.025000 0.525000 0.000000
0.025000 0.550000 0.000000
0.025000 0.575000 0.000000
0.025000 0.600000 0.000000
0.025000 0.625000 0.000000
0.025000 0.650000 0.000000
0.025000 0.675000 0.000000
0.050000 -0.075000 0.000000
0.050000 -0.050000 0.000000
0.050000 -0.025000 0.000000
0.050000 0.000000 0.000000
0.050000 0.025000 0.000000
0.050000 0.050000 0.000000
0.050000 0.075000 0.000000
0.050000 0.100000 0.000000
0.050000 0.125000 0.000000
0.050000 0.150000 0.000000
0.050000 0.175000 0.000000
0.050000 0.200000 0.000000
0.050000 0.225000 0.000000
0.050000 0.250000 0.000000
0.050000 0.275000 0.000000
0.050000 0.300000 0.000000
0.050000 0.325000 0.000000
0.050000 0.350000 0.000000
0.050000 0.375000 0.000000
0.050000 0.400000 0.000000
0.050000 0.425000 0.000000
0.050000 0.450000 0.000000
0.050000 0.475000 0.000000
0.050000 0.500000 0.000000
0.050000 0.525000 0.000000
0.050000 0.550000 0.000000
0.050000 0.575000 0.000000
0.050000 0.600000 0.000000
0.050000 0.625000 0.000000
0.050000 0.650000 0.000000
0.050000 0.675000 0.000000
0.075000 -0.075000 0.000000
0.075000 -0.050000 0.000000
0.075000 -0.025000 0.000000
0.075000 0.000000 0.000000
0.075000 0.025000 0.000000
0.075000 0.050000 0.000000
0.075000 0.075000 0.000000
0.075000 0.100000 0.000000
0.075000 0.125000 0.000000
0.075000 0.150000 0.000000
0.075000 0.175000 0.000000
0.075000 0.200000 0.000000
0.075000 0.225000 0.000000
0.075000 0.250000 0.000000
0.075000 0.275000 0.000000
0.075000 0.300000 0.000000
0.075000 0.325000 0.000000
0.075000 0.350000 0.000000
0.075000 0.375000 0.000000
0.075000 0.400000 0.000000
0.075000 0.425000 0.000000
0.075000 0.450000 0.000000
0.075000 0.475000 0.000000
0.075000 0.500000 0.000000
0.075000 0.525000 0.000000
0.075000 0.550000 0.000000
0.075000 0.575000 0.000000
0.075000 0.600000 0.000000
0.075000 0.625000 0.000000
0.075000 0.650000 0.000000
0.075000 0.675000 0.000000
0.100000 -0.075000 0.000000
0.100000 -0.050000 0.000000
0.100000 -0.025000 0.000000
0.100000 0.000000 0.000000
0.100000 0.025000 0.000000
0.100000 0.050000 0.000000
0.100000 0.075000 0.000000
0.100000 0.100000 0.000000
0.100000 0.125000 0.000000
0.100000 0.150000 0.000000
0.100000 0.175000 0.000000
0.100000 0.200000 0.000000
0.100000 0.225000 0.000000
0.100000 0.250000 0.000000
0.100000 0.275000 0.000000
0.100000 0.300000 0.000000
0.100000 0.325000 0.000000
0.100000 0.350000 0.000000
0.100000 0.375000 0.000000
0.100000 0.400000 0.000000
0.100000 0.425000 0.000000
0.100000 0.450000 0.000000
0.100000 0.475000 0.000000
0.100000 0.500000 0.000000
0.100000 0.525000 0.000000
0.100000 0.550000 0.000000
0.100000 0.575000 0.000000
0.100000 0.600000 0.000000
0.100000 0.625000 0.000000
0.100000 0.650000 0.000000
0.100000 0.675000 0.000000
0.125000 -0.075000 0.000000
0.125000 -0.050000 0.000000
0.125000 -0.025000 0.000000
0.125000 0.000000 0.000000
0.125000 0.025000 0.000000
0.125000 0.050000 0.000000
0.125000 0.075000 0.000000
0.125000 0.100000 0.000000
0.125000 0.125000 0.000000
0.125000 0.150000 0.000000
0.125000 0.175000 0.000000
0.125000 0.200000 0.000000
0.125000 0.225000 0.000000
0.125000 0.250000 0.000000
0.125000 0.275000 0.000000
0.125000 0.300000 0.000000
0.125000 0.325000 0.000000
0.125000 0.350000 0.000000
0.125000 0.375000 0.000000
0.125000 0.400000 0.000000
0.125000 0.425000 0.000000
0.125000 0.450000 0.000000
0.125000 0.475000 0.000000
0.125000 0.500000 0.000000
0.125000 0.525000 0.000000
0.125000 0.550000 0.000000
0.125000 0.575000 0.000000
0.125000 0.600000 0.000000
0.125000 0.625000 0.000000
0.125000 0.650000 0.000000
0.125000 0.675000 0.000000
0.150000 -0.075000 0.000000
0.150000 -0.050000 0.000000
0.150000 -0.025000 0.000000
0.150000 0.000000 0.000000
0.150000 0.025000 0.000000
0.150000 0.050000 0.000000
0.150000 0.075000 0.000000
0.150000 0.100000 0.000000
0.150000 0.125000 0.000000
0.150000 0.150000 0.000000
0.150000 0.175000 0.000000
0.150000 0.200000 0.000000
0.150000 0.225000 0.000000
0.150000 0.250000 0.000000
0.150000 0.275000 0.000000
0.150000 0.300000 0.000000
0.150000 0.325000 0.000000
0.150000 0.350000 0.000000
0.150000 0.375000 0.000000
0.150000 0.400000 0.000000
0.150000 0.425000 0.000000
0.150000 0.450000 0.000000
0.150000 0.475000 0.000000
0.150000 0.500000 0.000000
0.150000 0.525000 0.000000
0.150000 0.550000 0.000000
0.150000 0.575000 0.000000
0.150000 0.600000 0.000000
0.150000 0.625000 0.000000
0.150000 0.650000 0.000000
0.150000 0.675000 0.000000
0.175000 -0.075000 0.000000
0.175000 -0.050000 0.000000
0.175000 -0.025000 0.000000
0.175000 0.000000 0.000000
0.175000 0.025000 0.000000
0.175000 0.050000 0.000000
0.175000 0.075000 0.000000
0.175000 0.100000 0.000000
0.175000 0.125000 0.000000
0.175000 0.150000 0.000000
0.175000 0.175000 0.000000
0.175000 0.200000 0.000000
0.175000 0.225000 0.000000
0.175000 0.250000 0.000000
0.175000 0.275000 0.000000
0.175000 0.300000 0.000000
0.175000 0.325000 0.000000
0.175000 0.350000 0.000000
0.175000 0.375000 0.000000
0.175000 0.400000 0.000000
0.175000 0.425000 0.000000
0.175000 0.450000 0.000000
0.175000 0.475000 0.000000
0.175000 0.500000 0.000000
0.175000 0.525000 0.000000
0.175000 0.550000 0.000000
0.175000 0.575000 0.000000
0.175000 0.600000 0.000000
0.175000 0.625000 0.000000
0.175000 0.650000 0.000000
0.175000 0.675000 0.000000
0.200000 -0.075000 0.000000
0.200000 -0.050000 0.000000
0.200000 -0.025000 0.000000
0.200000 0.000000 0.000000
0.200000 0.025000 0.000000
0.200000 0.050000 0.000000
0.200000 0.075000 0.000000
0.200000 0.100000 0.000000
0.200000 0.125000 0.000000
0.200000 0.150000 0.000000
0.200000 0.175000 0.000000
0.200000 0.200000 0.000000
0.200000 0.225000 0.000000
0.200000 0.250000 0.000000
[...]
<PointData>
<DataArray NumberOfComponents='1' type='Int32' Name='ParticleType' format='ascii'>
4
4
4
4
4
4
4
4
4
4
4
4
4
4
4
4
4
4
4
4
4
4
4
4
4
4
4
4
2
2
2
4
4
4
4
4
4
4
4
4
4
4
4
4
4
4
4
4
4
4
4
4
4
4
4
4
4
4
4
2
2
2
4
4
3
3
3
3
3
3
3
3
3
3
3
3
3
3
3
3
3
3
3
3
3
3
3
3
3
3
2
2
2
4
4
3
3
3
3
3
3
3
3
3
3
3
3
3
3
3
3
3
3
3
3
3
3
3
3
3
3
2
2
2
4
4
3
3
0
0
0
0
0
0
0
0
0
0
0
0
0
0
0
0
0
0
0
0
0
0
1
2
2
2
2
4
4
3
3
0
0
0
0
0
0
0
0
0
0
0
0
0
0
0
0
0
0
0
0
0
0
1
1
2
2
2
4
4
3
3
0
0
0
0
0
0
0
0
0
0
0
0
0
0
0
0
0
0
0
0
0
0
1
1
2
2
2
4
4
3
3
0
0
0
0
0
0
0
0
0
0
0
0
0
0
0
0
0
0
0
0
0
0
1
1
2
2
2
4
4
3
3
0
0
0
0
0
0
0
0
0
0
0
0
0
0
0
0
0
0
0
0
0
0
0
1
2
2
2
4
4
3
3
0
0
0
0
0
0
0
0
0
0
0
0
0
0
0
0
0
0
0
0
0
0
0
1
2
2
2
4
4
3
3
0
0
0
0
0
0
0
0
0
0
0
0
0
0
0
0
0
0
0
0
0
0
0
1
2
2
2
4
4
3
3
0
0
0
0
0
0
0
0
0
0
0
0
0
0
0
0
0
0
0
0
0
0
0
1
2
2
2
4
4
3
3
0
0
0
0
0
0
0
0
0
0
0
0
0
0
0
0
0
0
0
0
0
0
0
1
2
2
2
4
4
3
3
0
0
0
0
0
0
0
0
0
0
0
0
0
0
0
0
0
0
0
0
0
0
0
1
2
2
2
4
4
3
3
0
0
0
0
0
0
0
0
0
0
0
0
0
0
0
0
0
0
0
0
0
0
0
1
2
2
2
4
4
3
3
0
0
0
0
0
0
0
0
0
0
0
0
0
0
0
0
0
0
0
0
0
0
0
1
2
2
2
4
4
3
3
0
0
0
0
0
0
0
0
0
0
0
0
0
0
0
0
0
0
0
0
0
0
0
1
2
2
2
4
4
3
3
0
0
0
0
0
0
0
0
0
0
0
0
0
0
0
0
0
0
0
0
0
0
0
1
2
2
2
4
4
3
3
0
0
0
0
0
0
0
0
0
0
0
0
0
0
0
0
0
0
0
0
0
0
0
1
2
2
2
4
4
3
3
0
0
0
0
0
0
0
0
0
0
0
0
0
0
0
0
0
0
0
0
0
0
0
1
2
2
2
4
4
3
3
0
0
0
0
0
0
0
0
0
0
0
0
0
0
0
0
0
0
0
0
0
0
0
1
2
2
2
4
4
3
3
0
0
0
0
0
0
0
0
0
0
0
0
0
0
0
0
0
0
0
0
0
0
0
1
2
2
2
4
4
3
3
0
0
0
0
0
0
0
0
0
0
0
0
0
0
0
0
0
0
0
0
0
0
0
1
2
2
2
4
4
3
3
0
0
0
0
0
0
0
0
0
0
0
0
0
0
0
0
0
0
0
0
0
0
0
1
2
2
2
4
4
3
3
0
0
0
0
0
0
0
0
0
0
0
0
0
0
0
0
0
0
0
0
0
0
0
1
2
2
2
4
4
3
3
0
0
0
0
0
0
0
0
0
0
0
0
0
0
0
0
0
0
0
0
0
0
0
1
2
2
2
4
4
3
3
0
0
0
0
0
0
0
0
0
0
0
0
0
0
0
0
0
0
0
0
0
0
0
1
2
2
2
4
4
3
3
0
0
0
0
0
0
0
0
0
0
0
0
0
0
0
0
0
0
0
0
0
0
0
1
2
2
2
4
4
3
3
0
0
0
0
0
0
0
0
0
0
0
0
0
0
0
0
0
0
0
0
0
0
0
1
2
2
2
4
4
3
3
0
0
0
0
0
0
0
0
0
0
0
0
0
0
0
0
0
0
0
0
0
0
0
1
2
2
2
4
4
3
3
0
0
0
0
0
0
0
0
0
0
0
0
0
0
0
0
0
0
0
0
0
0
0
1
2
2
2
4
4
3
3
0
0
0
0
0
0
0
0
0
0
0
0
0
0
0
0
0
0
0
0
0
0
0
1
2
2
2
4
4
3
3
0
0
0
0
0
0
0
0
0
0
0
0
0
0
0
0
0
0
0
0
0
0
0
1
2
2
2
4
4
3
3
0
0
0
0
0
0
0
0
0
0
0
0
0
0
0
0
0
0
0
0
0
0
0
1
2
2
2
4
4
3
3
0
0
0
0
0
0
0
0
0
0
0
0
0
0
0
0
0
0
0
0
0
0
0
1
2
2
2
4
4
3
3
0
0
0
0
0
0
0
0
0
0
0
0
0
0
0
0
0
0
0
0
0
0
0
1
2
2
2
4
4
3
3
0
0
0
0
0
0
0
0
0
0
0
0
0
0
0
0
0
0
0
0
0
0
0
1
2
2
2
4
4
3
3
0
0
0
0
0
0
0
0
0
0
0
0
0
0
0
0
0
0
0
0
0
0
0
1
2
2
2
4
4
3
3
0
0
0
0
0
0
0
0
0
0
0
0
0
0
0
0
0
0
0
0
0
0
0
1
2
2
2
4
4
3
3
0
0
0
0
0
0
0
0
0
0
0
0
0
0
0
0
0
0
0
0
0
0
0
1
2
2
2
4
4
3
3
0
0
0
0
0
0
0
0
0
0
0
0
0
0
0
0
0
0
0
0
0
0
1
1
2
2
2
4
4
3
3
0
0
0
0
0
0
0
0
0
0
0
0
0
0
0
0
0
0
0
0
0
0
1
1
2
2
2
4
4
3
3
0
0
0
0
0
0
0
0
0
0
0
0
0
0
0
0
0
0
0
0
0
0
1
1
2
2
2
4
4
3
3
0
0
0
0
0
0
0
0
0
0
0
0
0
0
0
0
0
0
0
0
0
0
1
2
2
2
2
4
4
3
3
3
3
3
3
3
3
3
3
3
3
3
3
3
3
3
3
3
3
3
3
3
3
3
3
2
2
2
4
4
3
3
3
3
3
3
3
3
3
3
3
3
3
3
3
3
3
3
3
3
3
3
3
3
3
3
2
2
2
4
4
4
4
4
4
4
4
4
4
4
4
4
4
4
4
4
4
4
4
4
4
4
4
4
4
4
4
2
2
2
4
4
4
4
4
4
4
4
4
4
4
4
4
4
4
4
4
4
4
4
4
4
4
4
4
4
4
4
2
2
2
</DataArray>
<DataArray NumberOfComponents='1' type='Float32' Name='Temperature' format='ascii'>
0.000000
0.000000
0.000000
0.000000
0.000000
0.000000
0.000000
0.000000
0.000000
0.000000
0.000000
0.000000
0.000000
0.000000
0.000000
0.000000
0.000000
0.000000
0.000000
0.000000
0.000000
0.000000
0.000000
0.000000
0.000000
0.000000
0.000000
0.000000
-5.000000
-5.000000
-5.000000
0.000000
0.000000
0.000000
0.000000
0.000000
0.000000
0.000000
0.000000
0.000000
0.000000
0.000000
0.000000
0.000000
0.000000
0.000000
0.000000
0.000000
0.000000
0.000000
0.000000
0.000000
0.000000
0.000000
0.000000
0.000000
0.000000
0.000000
0.000000
-5.000000
-5.000000
-5.000000
0.000000
0.000000
0.000000
0.000000
0.000000
0.000000
0.000000
0.000000
0.000000
0.000000
0.000000
0.000000
0.000000
0.000000
0.000000
0.000000
0.000000
0.000000
0.000000
0.000000
0.000000
0.000000
0.000000
0.000000
0.000000
0.000000
0.000000
0.000000
-5.000000
-5.000000
-5.000000
0.000000
0.000000
0.000000
0.000000
0.000000
0.000000
0.000000
0.000000
0.000000
0.000000
0.000000
0.000000
0.000000
0.000000
0.000000
0.000000
0.000000
0.000000
0.000000
0.000000
0.000000
0.000000
0.000000
0.000000
0.000000
0.000000
0.000000
0.000000
-5.000000
-5.000000
-5.000000
0.000000
0.000000
0.000000
0.000000
0.183057
0.325841
0.466841
0.596079
0.712793
0.815494
0.903523
0.976540
1.034375
1.076853
1.103702
1.114507
1.108713
1.085639
1.044504
0.984467
0.904710
0.804582
0.683781
0.542785
0.381386
0.193582
0.008635
-1.744817
-5.000000
-5.000000
-5.000000
0.000000
0.000000
0.000000
0.000000
0.328480
0.584623
0.838388
1.071708
1.283305
1.470426
1.631699
1.766245
1.873431
1.952609
2.002990
2.023610
2.013367
1.971061
1.895443
1.785268
1.639398
1.457021
1.237891
0.983162
0.693678
0.374870
0.008981
-0.009625
-5.000000
-5.000000
-5.000000
0.000000
0.000000
0.000000
0.000000
0.476907
0.849618
1.220054
1.562375
1.874802
2.153165
2.395055
2.598577
2.762074
2.883844
2.962059
2.994823
2.980284
2.916751
2.802750
2.637065
2.418800
2.147576
1.823735
1.449499
1.025356
0.573504
0.009656
-0.008032
-5.000000
-5.000000
-5.000000
0.000000
0.000000
0.000000
0.000000
0.621042
1.107791
1.593787
2.045996
2.462257
2.836833
3.165830
3.445666
3.672843
3.843761
3.954804
4.002587
3.984249
3.897669
3.741541
3.515351
3.219302
2.854373
2.422340
1.927046
1.368853
0.779569
0.009897
-0.007331
-5.000000
-5.000000
-5.000000
0.000000
0.000000
0.000000
0.000000
0.763006
1.363209
1.965924
2.531536
3.057635
3.536700
3.962773
4.329710
4.631121
4.860415
5.011210
5.077910
5.056286
4.943850
4.739951
4.445617
4.063239
3.596338
3.049271
2.428420
1.735353
1.007471
0.058315
-0.006465
-5.000000
-5.000000
-5.000000
0.000000
0.000000
0.000000
0.000000
0.904354
1.618832
2.341150
3.025729
3.670067
4.264590
4.800579
5.268284
5.657164
5.956325
6.155437
6.245822
6.221439
6.079496
5.820561
5.448190
4.968238
4.388164
3.716266
2.962638
2.131794
1.265636
0.191021
-0.004918
-5.000000
-5.000000
-5.000000
0.000000
0.000000
0.000000
0.000000
1.047334
1.878808
2.725731
3.537126
4.310569
5.034120
5.695513
6.280223
6.772137
7.154586
7.411962
7.531508
7.504858
7.328973
7.006253
6.543867
5.952537
5.245171
4.435462
3.538336
2.562562
1.552922
0.346011
-0.004099
-5.000000
-5.000000
-5.000000
0.000000
0.000000
0.000000
0.000000
1.194040
2.146929
3.125248
4.073109
4.988345
5.856302
6.660344
7.379937
7.991906
8.472241
8.798647
8.953226
8.924743
8.709951
8.313711
7.747932
7.029642
6.178758
5.215794
4.161568
3.029650
1.866833
0.517579
-0.003949
-5.000000
-5.000000
-5.000000
0.000000
0.000000
0.000000
0.000000
1.345875
2.425651
3.543145
4.637957
5.708342
6.736594
7.700895
8.573491
9.322675
9.915564
10.321781
10.517239
10.487282
10.228489
9.748787
9.065911
8.204602
7.193270
6.060605
4.834290
3.533080
2.205283
0.702971
-0.002460
-5.000000
-5.000000
-5.000000
0.000000
0.000000
0.000000
0.000000
1.503060
2.715216
3.979437
5.231128
6.469122
7.672349
8.813078
9.855253
10.757312
11.476115
11.971945
12.213577
12.182432
11.874935
11.302622
10.490024
9.470839
8.283299
6.965468
5.552761
4.069539
2.565444
0.900119
-0.002147
-5.000000
-5.000000
-5.000000
0.000000
0.000000
0.000000
0.000000
1.664376
3.013173
4.430016
5.846371
7.261772
8.651544
9.981472
11.206330
12.273658
13.128954
13.722161
14.014161
13.982047
13.622108
12.949914
11.997560
10.808686
9.432398
7.917079
6.306574
4.631217
2.941930
1.105991
-0.000946
-5.000000
-5.000000
-5.000000
0.000000
0.000000
0.000000
0.000000
1.827151
3.314384
4.886689
6.471821
8.070100
9.653104
11.179774
12.595174
13.835275
14.833519
15.528868
15.873827
15.840912
15.426284
14.649818
13.551665
12.186036
10.613571
8.893570
7.078751
5.205656
3.326458
1.316043
-0.000318
-5.000000
-5.000000
-5.000000
0.000000
0.000000
0.000000
0.000000
1.987511
3.611501
5.337928
7.091072
8.872076
10.648754
12.373106
13.980323
15.394607
16.537126
17.335669
17.734215
17.700628
17.230950
16.349456
15.104504
13.561073
11.791541
9.866297
7.847045
5.776570
3.708279
1.524477
-0.000183
-5.000000
-5.000000
-5.000000
0.000000
0.000000
0.000000
0.000000
2.140825
3.895785
5.770145
7.684962
9.642197
11.606019
13.521670
15.314720
16.897899
18.180404
19.079130
19.529750
19.495596
18.972599
17.989329
16.602156
14.886558
12.926353
10.802732
8.586140
6.325411
4.075134
1.724706
0.001345
-5.000000
-5.000000
-5.000000
0.000000
0.000000
0.000000
0.000000
2.282226
4.158098
6.169201
8.233674
10.354244
12.491692
14.584962
16.550657
18.290810
19.703465
20.695366
21.194444
21.159811
20.587302
19.509488
17.990207
16.114722
13.977512
11.669827
9.270247
6.833232
4.414467
1.909851
0.001817
-5.000000
-5.000000
-5.000000
0.000000
0.000000
0.000000
0.000000
2.407110
4.389820
6.521822
8.718695
10.983844
13.275043
15.525647
17.644301
19.523548
21.051542
22.126023
22.668064
22.633035
22.016685
20.855136
19.218846
17.201752
14.907785
12.437112
9.875531
7.282484
4.714614
2.073586
0.002583
-5.000000
-5.000000
-5.000000
0.000000
0.000000
0.000000
0.000000
2.511516
4.583559
6.816663
9.124271
11.510351
13.930157
16.312361
18.558949
20.554531
22.178985
23.322533
23.900511
23.865166
23.212173
21.980622
20.246503
18.111001
15.685947
13.078965
10.381885
7.658317
4.965712
2.210536
0.002286
-5.000000
-5.000000
-5.000000
0.000000
0.000000
0.000000
0.000000
2.592336
4.733525
7.044878
9.438175
11.917817
14.437103
16.921085
19.266598
21.352119
23.051143
24.248078
24.853837
24.818254
24.136948
22.851300
21.041567
18.814531
16.288121
13.575722
10.773824
7.949264
5.160121
2.316611
0.003326
-5.000000
-5.000000
-5.000000
0.000000
0.000000
0.000000
0.000000
2.647358
4.835615
7.200218
9.651811
12.195086
14.782011
17.335174
19.747915
21.894548
23.644231
24.877433
25.502064
25.466321
24.765788
23.443395
21.582295
19.293067
16.697777
13.913717
11.040544
8.147289
5.292461
2.388819
0.003294
-5.000000
-5.000000
-5.000000
0.000000
0.000000
0.000000
0.000000
2.675202
4.887271
7.278806
9.759872
12.335305
14.956399
17.544502
19.991186
22.168668
23.943919
25.195424
25.829578
25.793756
25.083520
23.742583
21.855558
19.534934
16.904864
14.084609
11.175426
8.247449
5.359407
2.425355
0.003516
-5.000000
-5.000000
-5.000000
0.000000
0.000000
0.000000
0.000000
2.675214
4.887287
7.278816
9.759864
12.335264
14.956314
17.544361
19.990983
22.168403
23.943600
25.195064
25.829196
25.793374
25.083158
23.742261
21.855288
19.534724
16.904714
14.084513
11.175372
8.247425
5.359401
2.425356
0.003518
-5.000000
-5.000000
-5.000000
0.000000
0.000000
0.000000
0.000000
2.647391
4.835656
7.200241
9.651779
12.194956
14.781743
17.334737
19.747290
21.893737
23.643255
24.876334
25.500898
25.465155
24.764684
23.442411
21.581471
19.292423
16.697314
13.913416
11.040374
8.147212
5.292438
2.388820
0.003301
-5.000000
-5.000000
-5.000000
0.000000
0.000000
0.000000
0.000000
2.592384
4.733583
7.044901
9.438099
11.917573
14.436625
16.920319
19.265515
21.350722
23.049468
24.246196
24.851843
24.816258
24.135059
22.849612
21.040149
18.813418
16.287315
13.575191
10.773516
7.949116
5.160070
2.316607
0.003342
-5.000000
-5.000000
-5.000000
0.000000
0.000000
0.000000
0.000000
2.511573
4.583621
6.816668
9.124130
11.509968
13.929439
16.311236
18.557376
20.552513
22.176577
23.319832
23.897653
23.862304
23.209462
21.978195
20.244457
18.109387
15.684766
13.078176
10.381416
7.658080
4.965622
2.210521
0.002316
-5.000000
-5.000000
-5.000000
0.000000
0.000000
0.000000
0.000000
2.407170
4.389878
6.521796
8.718475
10.983309
13.274077
15.524157
17.642237
19.520917
21.048411
22.122519
22.664359
22.629326
22.013168
20.851982
19.216178
17.199636
14.906225
12.436058
9.874892
7.282150
4.714478
2.073557
0.002633
-5.000000
-5.000000
-5.000000
0.000000
0.000000
0.000000
0.000000
2.282288
4.158149
6.169146
8.233384
10.353575
12.490506
14.583152
16.548164
18.287643
19.699705
20.691162
21.190002
21.155365
20.583083
19.505700
17.986997
16.112168
13.975621
11.668538
9.269456
6.832810
4.414289
1.909811
0.001883
-5.000000
-5.000000
-5.000000
0.000000
0.000000
0.000000
0.000000
2.140892
3.895839
5.770079
7.684632
9.641443
11.604689
13.519644
15.311933
16.894359
18.176203
19.074436
19.524790
19.490630
18.967887
17.985096
16.598568
14.883701
12.924235
10.801287
8.585250
6.324935
4.074934
1.724664
0.001448
-5.000000
-5.000000
-5.000000
0.000000
0.000000
0.000000
0.000000
1.987591
3.611574
5.337883
7.090755
8.871320
10.647398
12.371021
13.977440
15.390936
16.532761
17.330784
17.729051
17.695458
17.226046
16.345054
15.100777
13.558113
11.789353
9.864812
7.846139
5.776093
3.708086
1.524446
-0.000058
-5.000000
-5.000000
-5.000000
0.000000
0.000000
0.000000
0.000000
1.827253
3.314499
4.886704
6.471583
8.069441
9.651860
11.177816
12.592431
13.831753
14.829311
15.524147
15.868829
15.835907
15.421540
14.645570
13.548082
12.183207
10.611500
8.892186
7.077929
5.205243
3.326311
1.316038
-0.000208
-5.000000
-5.000000
-5.000000
0.000000
0.000000
0.000000
0.000000
1.664511
3.013349
4.430128
5.846273
7.261303
8.650547
9.979821
11.203956
12.270563
13.125221
13.717950
14.009690
13.977568
13.617870
12.946135
11.994397
10.806218
9.430626
7.915932
6.305930
4.630932
2.941863
1.106027
-0.000843
-5.000000
-5.000000
-5.000000
0.000000
0.000000
0.000000
0.000000
1.503232
2.715465
3.979671
5.231214
6.468912
7.671700
8.811875
9.853428
10.754863
11.473110
11.968520
12.209924
12.178769
11.871481
11.299566
10.487500
9.468913
8.281966
6.964661
5.552368
4.069426
2.565484
0.900207
-0.002044
-5.000000
-5.000000
-5.000000
0.000000
0.000000
0.000000
0.000000
1.346081
2.425972
3.543504
4.638238
5.708419
6.736342
7.700211
8.572313
9.320993
9.913431
10.319305
10.514575
10.484608
10.225981
9.746598
9.064149
8.203315
7.192448
6.060186
4.834175
3.533156
2.205438
0.703116
-0.002394
-5.000000
-5.000000
-5.000000
0.000000
0.000000
0.000000
0.000000
1.194272
2.147306
3.125709
4.073562
4.988686
5.856428
6.660169
7.379405
7.991002
8.470999
8.797145
8.951579
8.923085
8.708414
8.312409
7.746941
7.028996
6.178439
5.215748
4.161711
3.029890
1.867085
0.517776
-0.003865
-5.000000
-5.000000
-5.000000
0.000000
0.000000
0.000000
0.000000
1.047574
1.879211
2.726253
3.537697
4.311111
5.034551
5.695764
6.280246
6.771914
7.154134
7.411331
7.530773
7.504111
7.328304
7.005738
6.543554
5.952441
5.245271
4.435706
3.538656
2.562893
1.553216
0.346239
-0.003982
-5.000000
-5.000000
-5.000000
0.000000
0.000000
0.000000
0.000000
0.904582
1.619223
2.341677
3.026344
3.670714
4.265211
4.801122
5.268709
5.657450
5.956476
6.155479
6.245798
6.221402
6.079499
5.820647
5.448383
4.968538
4.388539
3.716660
2.962981
2.132049
1.265827
0.191220
-0.004685
-5.000000
-5.000000
-5.000000
0.000000
0.000000
0.000000
0.000000
0.763203
1.363553
1.966402
2.532118
3.058286
3.537384
3.963452
4.330353
4.631709
4.860942
5.011681
5.078345
5.056708
4.944282
4.740413
4.446111
4.063750
3.596817
3.049622
2.428503
1.735111
1.007108
0.058229
-0.005892
-5.000000
-5.000000
-5.000000
0.000000
0.000000
0.000000
0.000000
0.621193
1.108060
1.594170
2.046480
2.462825
2.837464
3.166501
3.446354
3.673531
3.844438
3.955464
4.003230
3.984881
3.898292
3.742156
3.515947
3.219849
2.854786
2.422432
1.926373
1.367134
0.777397
0.009917
-0.006331
-5.000000
-5.000000
-5.000000
0.000000
0.000000
0.000000
0.000000
0.477007
0.849799
1.220320
1.562723
1.875228
2.153661
2.395609
2.599174
2.762701
2.884488
2.962708
2.995468
2.980919
2.917367
2.803338
2.637607
2.419252
2.147807
1.823408
1.447492
1.020763
0.562853
0.009628
-0.008612
-5.000000
-5.000000
-5.000000
0.000000
0.000000
0.000000
0.000000
0.328532
0.584721
0.838537
1.071914
1.283569
1.470748
1.632075
1.766668
1.873891
1.953095
2.003489
2.024112
2.013860
1.971534
1.895884
1.785657
1.639689
1.457058
1.237205
0.979984
0.686291
0.346172
0.009178
-0.009915
-5.000000
-5.000000
-5.000000
0.000000
0.000000
0.000000
0.000000
0.183074
0.325876
0.466899
0.596166
0.712913
0.815651
0.903715
0.976766
1.034628
1.077128
1.103989
1.114798
1.108998
1.085909
1.044750
0.984675
0.904845
0.804516
0.683088
0.539764
0.372514
0.157071
0.008568
-1.777403
-5.000000
-5.000000
-5.000000
0.000000
0.000000
0.000000
0.000000
0.000000
0.000000
0.000000
0.000000
0.000000
0.000000
0.000000
0.000000
0.000000
0.000000
0.000000
0.000000
0.000000
0.000000
0.000000
0.000000
0.000000
0.000000
0.000000
0.000000
0.000000
0.000000
0.000000
0.000000
-5.000000
-5.000000
-5.000000
0.000000
0.000000
0.000000
0.000000
0.000000
0.000000
0.000000
0.000000
0.000000
0.000000
0.000000
0.000000
0.000000
0.000000
0.000000
0.000000
0.000000
0.000000
0.000000
0.000000
0.000000
0.000000
0.000000
0.000000
0.000000
0.000000
0.000000
0.000000
-5.000000
-5.000000
-5.000000
0.000000
0.000000
0.000000
0.000000
0.000000
0.000000
0.000000
0.000000
0.000000
0.000000
0.000000
0.000000
0.000000
0.000000
0.000000
0.000000
0.000000
0.000000
0.000000
0.000000
0.000000
0.000000
0.000000
0.000000
0.000000
0.000000
0.000000
0.000000
-5.000000
-5.000000
-5.000000
0.000000
0.000000
0.000000
0.000000
0.000000
0.000000
0.000000
0.000000
0.000000
0.000000
0.000000
0.000000
0.000000
0.000000
0.000000
0.000000
0.000000
0.000000
0.000000
0.000000
0.000000
0.000000
0.000000
0.000000
0.000000
0.000000
0.000000
0.000000
-5.000000
-5.000000
-5.000000
</DataArray>
</PointData>
<Cells>
<DataArray type='Int32' Name='connectivity' format='ascii'>
0
1
2
3
4
5
6
7
8
9
10
11
12
13
14
15
16
17
18
19
20
21
22
23
24
25
26
27
28
29
30
31
32
33
34
35
36
37
38
39
40
41
42
43
44
45
46
47
48
49
50
51
52
53
54
55
56
57
58
59
60
61
62
63
64
65
66
67
68
69
70
71
72
73
74
75
76
77
78
79
80
81
82
83
84
85
86
87
88
89
90
91
92
93
94
95
96
97
98
99
100
101
102
103
104
105
106
107
108
109
110
111
112
113
114
115
116
117
118
119
120
121
122
123
124
125
126
127
128
129
130
131
132
133
134
135
136
137
138
139
140
141
142
143
144
145
146
147
148
149
150
151
152
153
154
155
156
157
158
159
160
161
162
163
164
165
166
167
168
169
170
171
172
173
174
175
176
177
178
179
180
181
182
183
184
185
186
187
188
189
190
191
192
193
194
195
196
197
198
199
200
201
202
203
204
205
206
207
208
209
210
211
212
213
214
215
216
217
218
219
220
221
222
223
224
225
226
227
228
229
230
231
232
233
234
235
236
237
238
239
240
241
242
243
244
245
246
247
248
249
250
251
252
253
254
255
256
257
258
259
260
261
262
263
264
265
266
267
268
269
270
271
272
273
274
275
276
277
278
279
280
281
282
283
284
285
286
287
288
289
290
291
292
293
294
295
296
297
298
299
300
301
302
303
304
305
306
307
308
309
310
311
312
313
314
315
316
317
318
319
320
321
322
323
324
325
326
327
328
329
330
331
332
333
334
335
336
337
338
339
340
341
342
343
344
345
346
347
348
349
350
351
352
353
354
355
356
357
358
359
360
361
362
363
364
365
366
367
368
369
370
371
372
373
374
375
376
377
378
379
380
381
382
383
384
385
386
387
388
389
390
391
392
393
394
395
396
397
398
399
400
401
402
403
404
405
406
407
408
409
410
411
412
413
414
415
416
417
418
419
420
421
422
423
424
425
426
427
428
429
430
431
432
433
434
435
436
437
438
439
440
441
442
443
444
445
446
447
448
449
450
451
452
453
454
455
456
457
458
459
460
461
462
463
464
465
466
467
468
469
470
471
472
473
474
475
476
477
478
479
480
481
482
483
484
485
486
487
488
489
490
491
492
493
494
495
496
497
498
499
500
501
502
503
504
505
506
507
508
509
510
511
512
513
514
515
516
517
518
519
520
521
522
523
524
525
526
527
528
529
530
531
532
533
534
535
536
537
538
539
540
541
542
543
544
545
546
547
548
549
550
551
552
553
554
555
556
557
558
559
560
561
562
563
564
565
566
567
568
569
570
571
572
573
574
575
576
577
578
579
580
581
582
583
584
585
586
587
588
589
590
591
592
593
594
595
596
597
598
599
600
601
602
603
604
605
606
607
608
609
610
611
612
613
614
615
616
617
618
619
620
621
622
623
624
625
626
627
628
629
630
631
632
633
634
635
636
637
638
639
640
641
642
643
644
645
646
647
648
649
650
651
652
653
654
655
656
657
658
659
660
661
662
663
664
665
666
667
668
669
670
671
672
673
674
675
676
677
678
679
680
681
682
683
684
685
686
687
688
689
690
691
692
693
694
695
696
697
698
699
700
701
702
703
704
705
706
707
708
709
710
711
712
713
714
715
716
717
718
719
720
721
722
723
724
725
726
727
728
729
730
731
732
733
734
735
736
737
738
739
740
741
742
743