<?xml version='1.0' encoding='UTF-8'?>
<VTKFile xmlns='VTK' byte_order='LittleEndian' version='0.1' type='UnstructuredGrid'>
<UnstructuredGrid>
<Piece NumberOfCells='1488' NumberOfPoints='1488'>
<Points>
<DataArray NumberOfComponents='3' type='Float32' Name='Position' format='ascii'>
-0.075000 -0.075000 0.000000
-0.075000 -0.050000 0.000000
-0.075000 -0.025000 0.000000
-0.075000 0.000000 0.000000
-0.075000 0.025000 0.000000
-0.075000 0.050000 0.000000
-0.075000 0.075000 0.000000
-0.075000 0.100000 0.000000
-0.075000 0.125000 0.000000
-0.075000 0.150000 0.000000
-0.075000 0.175000 0.000000
-0.075000 0.200000 0.000000
-0.075000 0.225000 0.000000
-0.075000 0.250000 0.000000
-0.075000 0.275000 0.000000
-0.075000 0.300000 0.000000
-0.075000 0.325000 0.000000
-0.075000 0.350000 0.000000
-0.075000 0.375000 0.000000
-0.075000 0.400000 0.000000
-0.075000 0.425000 0.000000
-0.075000 0.450000 0.000000
-0.075000 0.475000 0.000000
-0.075000 0.500000 0.000000
-0.075000 0.525000 0.000000
-0.075000 0.550000 0.000000
-0.075000 0.575000 0.000000
-0.075000 0.600000 0.000000
-0.075000 0.625000 0.000000
-0.075000 0.650000 0.000000
-0.075000 0.675000 0.000000
-0.050000 -0.075000 0.000000
-0.050000 -0.050000 0.000000
-0.050000 -0.025000 0.000000
-0.050000 0.000000 0.000000
-0.050000 0.025000 0.000000
-0.050000 0.050000 0.000000
-0.050000 0.075000 0.000000
-0.050000 0.100000 0.000000
-0.050000 0.125000 0.000000
-0.050000 0.150000 0.000000
-0.050000 0.175000 0.000000
-0.050000 0.200000 0.000000
-0.050000 0.225000 0.000000
-0.050000 0.250000 0.000000
-0.050000 0.275000 0.000000
-0.050000 0.300000 0.000000
-0.050000 0.325000 0.000000
-0.050000 0.350000 0.000000
-0.050000 0.375000 0.000000
-0.050000 0.400000 0.000000
-0.050000 0.425000 0.000000
-0.050000 0.450000 0.000000
-0.050000 0.475000 0.000000
-0.050000 0.500000 0.000000
-0.050000 0.525000 0.000000
-0.050000 0.550000 0.000000
-0.050000 0.575000 0.000000
-0.050000 0.600000 0.000000
-0.050000 0.625000 0.000000
-0.050000 0.650000 0.000000
-0.050000 0.675000 0.000000
-0.025000 -0.075000 0.000000
-0.025000 -0.050000 0.000000
-0.025000 -0.025000 0.000000
-0.025000 0.000000 0.000000
-0.025000 0.025000 0.000000
-0.025000 0.050000 0.000000
-0.025000 0.075000 0.000000
-0.025000 0.100000 0.000000
-0.025000 0.125000 0.000000
-0.025000 0.150000 0.000000
-0.025000 0.175000 0.000000
-0.025000 0.200000 0.000000
-0.025000 0.225000 0.000000
-0.025000 0.250000 0.000000
-0.025000 0.275000 0.000000
-0.025000 0.300000 0.000000
-0.025000 0.325000 0.000000
-0.025000 0.350000 0.000000
-0.025000 0.375000 0.000000
-0.025000 0.400000 0.000000
-0.025000 0.425000 0.000000
-0.025000 0.450000 0.000000
-0.025000 0.475000 0.000000
-0.025000 0.500000 0.000000
-0.025000 0.525000 0.000000
-0.025000 0.550000 0.000000
-0.025000 0.575000 0.000000
-0.025000 0.600000 0.000000
-0.025000 0.625000 0.000000
-0.025000 0.650000 0.000000
-0.025000 0.675000 0.000000
0.000000 -0.075000 0.000000
0.000000 -0.050000 0.000000
0.000000 -0.025000 0.000000
0.000000 0.000000 0.000000
0.000000 0.025000 0.000000
0.000000 0.050000 0.000000
0.000000 0.075000 0.000000
0.000000 0.100000 0.000000
0.000000 0.125000 0.000000
0.000000 0.150000 0.000000
0.000000 0.175000 0.000000
0.000000 0.200000 0.000000
0.000000 0.225000 0.000000
0.000000 0.250000 0.000000
0.000000 0.275000 0.000000
0.000000 0.300000 0.000000
0.000000 0.325000 0.000000
0.000000 0.350000 0.000000
0.000000 0.375000 0.000000
0.000000 0.400000 0.000000
0.000000 0.425000 0.000000
0.000000 0.450000 0.000000
0.000000 0.475000 0.000000
0.000000 0.500000 0.000000
0.000000 0.525000 0.000000
0.000000 0.550000 0.000000
0.000000 0.575000 0.000000
0.000000 0.600000 0.000000
0.000000 0.625000 0.000000
0.000000 0.650000 0.000000
0.000000 0.675000 0.000000
0.025000 -0.075000 0.000000
0.025000 -0.050000 0.000000
0.025000 -0.025000 0.000000
0.025000 0.000000 0.000000
0.025000 0.025000 0.000000
0.025000 0.050000 0.000000
0.025000 0.075000 0.000000
0.025000 0.100000 0.000000
0.025000 0.125000 0.000000
0.025000 0.150000 0.000000
0.025000 0.175000 0.000000
0.025000 0.200000 0.000000
0.025000 0.225000 0.000000
0.025000 0.250000 0.000000
0.025000 0.275000 0.000000
0.025000 0.300000 0.000000
0.025000 0.325000 0.000000
0.025000 0.350000 0.000000
0.025000 0.375000 0.000000
0.025000 0.400000 0.000000
0.025000 0.425000 0.000000
0.025000 0.450000 0.000000
0.025000 0.475000 0.000000
0.025000 0.500000 0.000000
0.025000 0.525000 0.000000
0.025000 0.550000 0.000000
0.025000 0.575000 0.000000
0.025000 0.600000 0.000000
0.025000 0.625000 0.000000
0.025000 0.650000 0.000000
0.025000 0.675000 0.000000
0.050000 -0.075000 0.000000
0.050000 -0.050000 0.000000
0.050000 -0.025000 0.000000
0.050000 0.000000 0.000000
0.050000 0.025000 0.000000
0.050000 0.050000 0.000000
0.050000 0.075000 0.000000
0.050000 0.100000 0.000000
0.050000 0.125000 0.000000
0.050000 0.150000 0.000000
0.050000 0.175000 0.000000
0.050000 0.200000 0.000000
0.050000 0.225000 0.000000
0.050000 0.250000 0.000000
0.050000 0.275000 0.000000
0.050000 0.300000 0.000000
0.050000 0.325000 0.000000
0.050000 0.350000 0.000000
0.050000 0.375000 0.000000
0.050000 0.400000 0.000000
0.050000 0.425000 0.000000
0.050000 0.450000 0.000000
0.050000 0.475000 0.000000
0.050000 0.500000 0.000000
0.050000 0.525000 0.000000
0.050000 0.550000 0.000000
0.050000 0.575000 0.000000
0.050000 0.600000 0.000000
0.050000 0.625000 0.000000
0.050000 0.650000 0.000000
0.050000 0.675000 0.000000
0.075000 -0.075000 0.000000
0.075000 -0.050000 0.000000
0.075000 -0.025000 0.000000
0.075000 0.000000 0.000000
0.075000 0.025000 0.000000
0.075000 0.050000 0.000000
0.075000 0.075000 0.000000
0.075000 0.100000 0.000000
0.075000 0.125000 0.000000
0.075000 0.150000 0.000000
0.075000 0.175000 0.000000
0.075000 0.200000 0.000000
0.075000 0.225000 0.000000
0.075000 0.250000 0.000000
0.075000 0.275000 0.000000
0.075000 0.300000 0.000000
0.075000 0.325000 0.000000
0.075000 0.350000 0.000000
0.075000 0.375000 0.000000
0.075000 0.400000 0.000000
0.075000 0.425000 0.000000
0.075000 0.450000 0.000000
0.075000 0.475000 0.000000
0.075000 0.500000 0.000000
0.075000 0.525000 0.000000
0.075000 0.550000 0.000000
0.075000 0.575000 0.000000
0.075000 0.600000 0.000000
0.075000 0.625000 0.000000
0.075000 0.650000 0.000000
0.075000 0.675000 0.000000
0.100000 -0.075000 0.000000
0.100000 -0.050000 0.000000
0.100000 -0.025000 0.000000
0.100000 0.000000 0.000000
0.100000 0.025000 0.000000
0.100000 0.050000 0.000000
0.100000 0.075000 0.000000
0.100000 0.100000 0.000000
0.100000 0.125000 0.000000
0.100000 0.150000 0.000000
0.100000 0.175000 0.000000
0.100000 0.200000 0.000000
0.100000 0.225000 0.000000
0.100000 0.250000 0.000000
0.100000 0.275000 0.000000
0.100000 0.300000 0.000000
0.100000 0.325000 0.000000
0.100000 0.350000 0.000000
0.100000 0.375000 0.000000
0.100000 0.400000 0.000000
0.100000 0.425000 0.000000
0.100000 0.450000 0.000000
0.100000 0.475000 0.000000
0.100000 0.500000 0.000000
0.100000 0.525000 0.000000
0.100000 0.550000 0.000000
0.100000 0.575000 0.000000
0.100000 0.600000 0.000000
0.100000 0.625000 0.000000
0.100000 0.650000 0.000000
0.100000 0.675000 0.000000
0.125000 -0.075000 0.000000
0.125000 -0.050000 0.000000
0.125000 -0.025000 0.000000
0.125000 0.000000 0.000000
0.125000 0.025000 0.000000
0.125000 0.050000 0.000000
0.125000 0.075000 0.000000
0.125000 0.100000 0.000000
0.125000 0.125000 0.000000
0.125000 0.150000 0.000000
0.125000 0.175000 0.000000
0.125000 0.200000 0.000000
0.125000 0.225000 0.000000
0.125000 0.250000 0.000000
0.125000 0.275000 0.000000
0.125000 0.300000 0.000000
0.125000 0.325000 0.000000
0.125000 0.350000 0.000000
0.125000 0.375000 0.000000
0.125000 0.400000 0.000000
0.125000 0.425000 0.000000
0.125000 0.450000 0.000000
0.125000 0.475000 0.000000
0.125000 0.500000 0.000000
0.125000 0.525000 0.000000
0.125000 0.550000 0.000000
0.125000 0.575000 0.000000
0.125000 0.600000 0.000000
0.125000 0.625000 0.000000
0.125000 0.650000 0.000000
0.125000 0.675000 0.000000
0.150000 -0.075000 0.000000
0.150000 -0.050000 0.000000
0.150000 -0.025000 0.000000
0.150000 0.000000 0.000000
0.150000 0.025000 0.000000
0.150000 0.050000 0.000000
0.150000 0.075000 0.000000
0.150000 0.100000 0.000000
0.150000 0.125000 0.000000
0.150000 0.150000 0.000000
0.150000 0.175000 0.000000
0.150000 0.200000 0.000000
0.150000 0.225000 0.000000
0.150000 0.250000 0.000000
0.150000 0.275000 0.000000
0.150000 0.300000 0.000000
0.150000 0.325000 0.000000
0.150000 0.350000 0.000000
0.150000 0.375000 0.000000
0.150000 0.400000 0.000000
0.150000 0.425000 0.000000
0.150000 0.450000 0.000000
0.150000 0.475000 0.000000
0.150000 0.500000 0.000000
0.150000 0.525000 0.000000
0.150000 0.550000 0.000000
0.150000 0.575000 0.000000
0.150000 0.600000 0.000000
0.150000 0.625000 0.000000
0.150000 0.650000 0.000000
0.150000 0.675000 0.000000
0.175000 -0.075000 0.000000
0.175000 -0.050000 0.000000
0.175000 -0.025000 0.000000
0.175000 0.000000 0.000000
0.175000 0.025000 0.000000
0.175000 0.050000 0.000000
0.175000 0.075000 0.000000
0.175000 0.100000 0.000000
0.175000 0.125000 0.000000
0.175000 0.150000 0.000000
0.175000 0.175000 0.000000
0.175000 0.200000 0.000000
0.175000 0.225000 0.000000
0.175000 0.250000 0.000000
0.175000 0.275000 0.000000
0.175000 0.300000 0.000000
0.175000 0.325000 0.000000
0.175000 0.350000 0.000000
0.175000 0.375000 0.000000
0.175000 0.400000 0.000000
0.175000 0.425000 0.000000
0.175000 0.450000 0.000000
0.175000 0.475000 0.000000
0.175000 0.500000 0.000000
0.175000 0.525000 0.000000
0.175000 0.550000 0.000000
0.175000 0.575000 0.000000
0.175000 0.600000 0.000000
0.175000 0.625000 0.000000
0.175000 0.650000 0.000000
0.175000 0.675000 0.000000
0.200000 -0.075000 0.000000
0.200000 -0.050000 0.000000
0.200000 -0.025000 0.000000
0.200000 0.000000 0.000000
0.200000 0.025000 0.000000
0.200000 0.050000 0.000000
0.200000 0.075000 0.000000
0.200000 0.100000 0.000000
0.200000 0.125000 0.000000
0.200000 0.150000 0.000000
0.200000 0.175000 0.000000
0.200000 0.200000 0.000000
0.200000 0.225000 0.000000
0.200000 0.250000 0.000000
[...]
<PointData>
<DataArray NumberOfComponents='1' type='Int32' Name='ParticleType' format='ascii'>
4
4
4
4
4
4
4
4
4
4
4
4
4
4
4
4
4
4
4
4
4
4
4
4
4
4
4
4
2
2
2
4
4
4
4
4
4
4
4
4
4
4
4
4
4
4
4
4
4
4
4
4
4
4
4
4
4
4
4
2
2
2
4
4
3
3
3
3
3
3
3
3
3
3
3
3
3
3
3
3
3
3
3
3
3
3
3
3
3
3
2
2
2
4
4
3
3
3
3
3
3
3
3
3
3
3
3
3
3
3
3
3
3
3
3
3
3
3
3
3
3
2
2
2
4
4
3
3
0
0
0
0
0
0
0
0
0
0
0
0
0
0
0
0
0
0
0
0
0
0
1
2
2
2
2
4
4
3
3
0
0
0
0
0
0
0
0
0
0
0
0
0
0
0
0
0
0
0
0
0
0
1
2
2
2
2
4
4
3
3
0
0
0
0
0
0
0
0
0
0
0
0
0
0
0
0
0
0
0
0
0
0
1
2
2
2
2
4
4
3
3
0
0
0
0
0
0
0
0
0
0
0
0
0
0
0
0
0
0
0
0
0
0
1
2
2
2
2
4
4
3
3
0
0
0
0
0
0
0
0
0
0
0
0
0
0
0
0
0
0
0
0
0
0
1
2
2
2
2
4
4
3
3
0
0
0
0
0
0
0
0
0
0
0
0
0
0
0
0
0
0
0
0
0
0
1
2
2
2
2
4
4
3
3
0
0
0
0
0
0
0
0
0
0
0
0
0
0
0
0
0
0
0
0
0
0
0
2
2
2
2
4
4
3
3
0
0
0
0
0
0
0
0
0
0
0
0
0
0
0
0
0
0
0
0
0
0
0
1
2
2
2
4
4
3
3
0
0
0
0
0
0
0
0
0
0
0
0
0
0
0
0
0
0
0
0
0
0
0
1
2
2
2
4
4
3
3
0
0
0
0
0
0
0
0
0
0
0
0
0
0
0
0
0
0
0
0
0
0
0
1
2
2
2
4
4
3
3
0
0
0
0
0
0
0
0
0
0
0
0
0
0
0
0
0
0
0
0
0
0
0
1
2
2
2
4
4
3
3
0
0
0
0
0
0
0
0
0
0
0
0
0
0
0
0
0
0
0
0
0
0
0
1
2
2
2
4
4
3
3
0
0
0
0
0
0
0
0
0
0
0
0
0
0
0
0
0
0
0
0
0
0
0
1
2
2
2
4
4
3
3
0
0
0
0
0
0
0
0
0
0
0
0
0
0
0
0
0
0
0
0
0
0
0
1
2
2
2
4
4
3
3
0
0
0
0
0
0
0
0
0
0
0
0
0
0
0
0
0
0
0
0
0
0
0
1
2
2
2
4
4
3
3
0
0
0
0
0
0
0
0
0
0
0
0
0
0
0
0
0
0
0
0
0
0
0
1
2
2
2
4
4
3
3
0
0
0
0
0
0
0
0
0
0
0
0
0
0
0
0
0
0
0
0
0
0
0
1
2
2
2
4
4
3
3
0
0
0
0
0
0
0
0
0
0
0
0
0
0
0
0
0
0
0
0
0
0
0
1
2
2
2
4
4
3
3
0
0
0
0
0
0
0
0
0
0
0
0
0
0
0
0
0
0
0
0
0
0
0
1
2
2
2
4
4
3
3
0
0
0
0
0
0
0
0
0
0
0
0
0
0
0
0
0
0
0
0
0
0
0
1
2
2
2
4
4
3
3
0
0
0
0
0
0
0
0
0
0
0
0
0
0
0
0
0
0
0
0
0
0
0
1
2
2
2
4
4
3
3
0
0
0
0
0
0
0
0
0
0
0
0
0
0
0
0
0
0
0
0
0
0
0
1
2
2
2
4
4
3
3
0
0
0
0
0
0
0
0
0
0
0
0
0
0
0
0
0
0
0
0
0
0
0
1
2
2
2
4
4
3
3
0
0
0
0
0
0
0
0
0
0
0
0
0
0
0
0
0
0
0
0
0
0
0
1
2
2
2
4
4
3
3
0
0
0
0
0
0
0
0
0
0
0
0
0
0
0
0
0
0
0
0
0
0
0
1
2
2
2
4
4
3
3
0
0
0
0
0
0
0
0
0
0
0
0
0
0
0
0
0
0
0
0
0
0
0
1
2
2
2
4
4
3
3
0
0
0
0
0
0
0
0
0
0
0
0
0
0
0
0
0
0
0
0
0
0
0
1
2
2
2
4
4
3
3
0
0
0
0
0
0
0
0
0
0
0
0
0
0
0
0
0
0
0
0
0
0
0
1
2
2
2
4
4
3
3
0
0
0
0
0
0
0
0
0
0
0
0
0
0
0
0
0
0
0
0
0
0
0
1
2
2
2
4
4
3
3
0
0
0
0
0
0
0
0
0
0
0
0
0
0
0
0
0
0
0
0
0
0
0
1
2
2
2
4
4
3
3
0
0
0
0
0
0
0
0
0
0
0
0
0
0
0
0
0
0
0
0
0
0
0
1
2
2
2
4
4
3
3
0
0
0
0
0
0
0
0
0
0
0
0
0
0
0
0
0
0
0
0
0
0
0
1
2
2
2
4
4
3
3
0
0
0
0
0
0
0
0
0
0
0
0
0
0
0
0
0
0
0
0
0
0
0
1
2
2
2
4
4
3
3
0
0
0
0
0
0
0
0
0
0
0
0
0
0
0
0
0
0
0
0
0
0
0
2
2
2
2
4
4
3
3
0
0
0
0
0
0
0
0
0
0
0
0
0
0
0
0
0
0
0
0
0
0
1
2
2
2
2
4
4
3
3
0
0
0
0
0
0
0
0
0
0
0
0
0
0
0
0
0
0
0
0
0
0
1
2
2
2
2
4
4
3
3
0
0
0
0
0
0
0
0
0
0
0
0
0
0
0
0
0
0
0
0
0
0
1
2
2
2
2
4
4
3
3
0
0
0
0
0
0
0
0
0
0
0
0
0
0
0
0
0
0
0
0
0
0
1
2
2
2
2
4
4
3
3
0
0
0
0
0
0
0
0
0
0
0
0
0
0
0
0
0
0
0
0
0
0
1
2
2
2
2
4
4
3
3
0
0
0
0
0
0
0
0
0
0
0
0
0
0
0
0
0
0
0
0
0
0
1
2
2
2
2
4
4
3
3
3
3
3
3
3
3
3
3
3
3
3
3
3
3
3
3
3
3
3
3
3
3
3
3
2
2
2
4
4
3
3
3
3
3
3
3
3
3
3
3
3
3
3
3
3
3
3
3
3
3
3
3
3
3
3
2
2
2
4
4
4
4
4
4
4
4
4
4
4
4
4
4
4
4
4
4
4
4
4
4
4
4
4
4
4
4
2
2
2
4
4
4
4
4
4
4
4
4
4
4
4
4
4
4
4
4
4
4
4
4
4
4
4
4
4
4
4
2
2
2
</DataArray>
<DataArray NumberOfComponents='1' type='Float32' Name='Temperature' format='ascii'>
0.000000
0.000000
0.000000
0.000000
0.000000
0.000000
0.000000
0.000000
0.000000
0.000000
0.000000
0.000000
0.000000
0.000000
0.000000
0.000000
0.000000
0.000000
0.000000
0.000000
0.000000
0.000000
0.000000
0.000000
0.000000
0.000000
0.000000
0.000000
-5.000000
-5.000000
-5.000000
0.000000
0.000000
0.000000
0.000000
0.000000
0.000000
0.000000
0.000000
0.000000
0.000000
0.000000
0.000000
0.000000
0.000000
0.000000
0.000000
0.000000
0.000000
0.000000
0.000000
0.000000
0.000000
0.000000
0.000000
0.000000
0.000000
0.000000
0.000000
-5.000000
-5.000000
-5.000000
0.000000
0.000000
0.000000
0.000000
0.000000
0.000000
0.000000
0.000000
0.000000
0.000000
0.000000
0.000000
0.000000
0.000000
0.000000
0.000000
0.000000
0.000000
0.000000
0.000000
0.000000
0.000000
0.000000
0.000000
0.000000
0.000000
0.000000
0.000000
-5.000000
-5.000000
-5.000000
0.000000
0.000000
0.000000
0.000000
0.000000
0.000000
0.000000
0.000000
0.000000
0.000000
0.000000
0.000000
0.000000
0.000000
0.000000
0.000000
0.000000
0.000000
0.000000
0.000000
0.000000
0.000000
0.000000
0.000000
0.000000
0.000000
0.000000
0.000000
-5.000000
-5.000000
-5.000000
0.000000
0.000000
0.000000
0.000000
0.170386
0.304472
0.438690
0.564124
0.679982
0.784420
0.876071
0.953714
1.016265
1.062729
1.092192
1.103837
1.096966
1.071032
1.025654
0.960601
0.875714
0.770611
0.644237
0.492064
0.313657
0.039827
0.007572
-2.119635
-5.000000
-5.000000
-5.000000
0.000000
0.000000
0.000000
0.000000
0.307544
0.549416
0.792153
1.019469
1.230014
1.420398
1.588032
1.730532
1.845724
1.931592
1.986293
2.008209
1.996017
1.948747
1.865821
1.747019
1.592348
1.401580
1.173573
0.902133
0.588390
0.139492
0.007912
-2.351302
-5.000000
-5.000000
-5.000000
0.000000
0.000000
0.000000
0.000000
0.450285
0.804980
1.161719
1.496928
1.808677
2.091890
2.342497
2.556599
2.730530
2.860844
2.944407
2.978531
2.961127
2.890819
2.766996
2.589767
2.359762
2.077570
1.742887
1.350039
0.900333
0.301964
0.008805
-2.418144
-5.000000
-5.000000
-5.000000
0.000000
0.000000
0.000000
0.000000
0.592500
1.060129
1.531895
1.977181
2.393544
2.774099
3.113000
3.404396
3.642606
3.822217
3.938327
3.986835
3.964720
3.870241
3.703011
3.463911
3.154815
2.777953
2.334899
1.822599
1.241124
0.511133
0.009303
-2.394187
-5.000000
-5.000000
-5.000000
0.000000
0.000000
0.000000
0.000000
0.736238
1.318711
1.908524
2.468248
2.994995
3.479903
3.914956
4.291788
4.602032
4.837622
4.991280
5.057040
5.030732
4.910294
4.695866
4.389638
3.995447
3.518045
2.961933
2.328318
1.615891
0.770369
0.009518
-2.284523
-5.000000
-5.000000
-5.000000
0.000000
0.000000
0.000000
0.000000
0.882498
1.582612
2.294560
2.974325
3.618652
4.216497
4.757218
5.229270
5.620818
5.920342
6.117470
6.203851
6.173900
6.025276
5.758988
5.379136
4.892308
4.306683
3.630696
2.871068
2.028378
1.085623
0.009636
-2.022205
-5.000000
-5.000000
-5.000000
0.000000
0.000000
0.000000
0.000000
1.032527
1.854126
2.693454
3.500097
4.270515
4.991244
5.648517
6.226884
6.710184
7.082562
7.329769
7.440486
7.407424
7.227993
6.904435
6.443395
5.855029
5.151819
4.347009
3.453621
2.477729
1.439853
0.179671
-0.774274
-5.000000
-5.000000
-5.000000
0.000000
0.000000
0.000000
0.000000
1.187228
2.134880
3.107584
4.048682
4.954426
5.808691
6.594061
7.290438
7.876454
8.331011
8.635179
8.774070
8.738379
8.525301
8.138667
7.588298
6.888724
6.057554
5.113527
4.075904
2.956687
1.799673
0.451057
-0.009770
-5.000000
-5.000000
-5.000000
0.000000
0.000000
0.000000
0.000000
1.346870
2.425310
3.537485
4.620613
5.670814
6.669061
7.593792
8.419547
9.118908
9.664668
10.032436
10.203180
10.165281
9.915737
9.460301
8.812565
7.992182
7.022642
5.928738
4.735676
3.461178
2.154809
0.671473
-0.007788
-5.000000
-5.000000
-5.000000
0.000000
0.000000
0.000000
0.000000
1.510816
2.724172
3.981135
5.212909
6.415544
7.566906
8.640852
9.605934
10.427944
11.072805
11.509984
11.715794
11.676038
11.387530
10.858234
10.106022
9.156323
8.039158
6.785869
5.427549
3.986915
2.514657
0.872744
-0.007025
-5.000000
-5.000000
-5.000000
0.000000
0.000000
0.000000
0.000000
1.677384
3.028291
4.433601
5.818622
7.179390
8.490513
9.720934
10.832739
11.784358
12.534256
13.045230
13.288544
13.247217
12.917889
12.310954
11.448961
10.363609
9.091959
7.672309
6.141782
4.527907
2.882623
1.076404
-0.005164
-5.000000
-5.000000
-5.000000
0.000000
0.000000
0.000000
0.000000
1.843855
3.332595
4.887101
6.426955
7.948222
9.422176
10.812656
12.074994
13.159915
14.018068
14.605261
14.887470
14.844803
14.473736
13.787230
12.812749
11.588565
10.159088
8.569819
6.864062
5.074190
3.253470
1.281159
-0.004061
-5.000000
-5.000000
-5.000000
0.000000
0.000000
0.000000
0.000000
2.006644
3.630422
5.331488
7.023938
8.703898
10.339323
11.888925
13.301228
14.519173
15.485511
16.148984
16.470226
16.426411
16.013855
15.248127
14.161669
12.799397
11.213129
9.455609
7.576321
5.612451
3.618592
1.482606
-0.003589
-5.000000
-5.000000
-5.000000
0.000000
0.000000
0.000000
0.000000
2.161584
3.914060
5.755059
7.593537
9.425692
11.216290
12.919067
14.475931
15.822254
16.893099
17.630332
17.989387
17.944586
17.492097
16.650033
15.455684
13.960433
12.223303
10.304060
8.258170
6.127461
3.967793
1.675256
-0.001482
-5.000000
-5.000000
-5.000000
0.000000
0.000000
0.000000
0.000000
2.304279
4.175384
6.145527
8.118974
10.092003
12.026418
13.871319
15.562435
17.028068
18.196098
19.001968
19.396253
19.350611
18.861078
17.948144
16.653635
15.034973
13.157904
11.088751
8.888545
6.603425
4.290424
1.853182
-0.000691
-5.000000
-5.000000
-5.000000
0.000000
0.000000
0.000000
0.000000
2.430451
4.406509
6.490994
8.584051
10.682037
12.744121
14.715270
16.525710
18.097431
19.351911
20.218858
20.644519
20.598176
20.075745
19.099842
17.716336
15.988037
13.986686
11.784443
9.447300
7.025220
4.576269
2.010777
0.000396
-5.000000
-5.000000
-5.000000
0.000000
0.000000
0.000000
0.000000
2.536250
4.600341
6.780777
8.974260
11.177212
13.346590
15.423879
17.334666
18.995627
20.322840
21.241188
21.693266
21.646358
21.096280
20.067437
18.609106
16.788635
14.682814
12.368719
9.916514
7.379382
4.816250
2.143041
0.000213
-5.000000
-5.000000
-5.000000
0.000000
0.000000
0.000000
0.000000
2.618459
4.750967
7.005988
9.277556
11.562143
13.814983
15.974852
17.963721
19.694128
21.077949
22.036306
22.508953
22.461618
21.890039
20.820014
19.303473
17.411297
15.224206
12.823104
10.281401
7.654789
5.002865
2.245928
0.001519
-5.000000
-5.000000
-5.000000
0.000000
0.000000
0.000000
0.000000
2.674627
4.853882
7.159869
9.484797
11.825176
14.135058
16.351367
18.393604
20.171478
21.593990
22.579695
23.066405
23.018782
22.432513
21.334349
19.778030
17.836852
15.594222
13.133656
10.530789
7.843021
5.130417
2.316243
0.001562
-5.000000
-5.000000
-5.000000
0.000000
0.000000
0.000000
0.000000
2.703117
4.906081
7.237916
9.589901
11.958566
14.297366
16.542285
18.611571
20.413502
21.855623
22.855186
23.349023
23.301256
22.707544
21.595121
20.018644
18.052633
15.781852
13.291144
10.657267
7.938491
5.195112
2.351914
0.001851
-5.000000
-5.000000
-5.000000
0.000000
0.000000
0.000000
0.000000
2.703111
4.906067
7.237884
9.589843
11.958471
14.297223
16.542088
18.611317
20.413191
21.855264
22.854793
23.348610
23.300842
22.707148
21.594759
20.018328
18.052370
15.781645
13.290991
10.657160
7.938422
5.195072
2.351895
0.001853
-5.000000
-5.000000
-5.000000
0.000000
0.000000
0.000000
0.000000
2.674611
4.853838
7.159775
9.484622
11.824888
14.134628
16.350775
18.392840
20.170548
21.592917
22.578515
23.065168
23.017543
22.431328
21.333264
19.777084
17.836066
15.593602
13.133196
10.530467
7.842814
5.130298
2.316188
0.001569
-5.000000
-5.000000
-5.000000
0.000000
0.000000
0.000000
0.000000
2.618430
4.750892
7.005828
9.277262
11.561663
13.814268
15.973869
17.962453
19.692587
21.076171
22.034353
22.506906
22.459567
21.888075
20.818218
19.301905
17.409993
15.223178
12.822337
10.280866
7.654443
5.002667
2.245838
0.001537
-5.000000
-5.000000
-5.000000
0.000000
0.000000
0.000000
0.000000
2.536208
4.600234
6.780551
8.973849
11.176544
13.345600
15.422520
17.332916
18.993501
20.320389
21.238497
21.690446
21.643533
21.093575
20.064962
18.606944
16.786836
14.681393
12.367659
9.915772
7.378902
4.815976
2.142918
0.000247
-5.000000
-5.000000
-5.000000
0.000000
0.000000
0.000000
0.000000
2.430398
4.406373
6.490709
8.583536
10.681201
12.742884
14.713573
16.523528
18.094782
19.348858
20.215507
20.641007
20.594658
20.072376
19.096758
17.713641
15.985794
13.984913
11.783120
9.446373
7.024621
4.575928
2.010629
0.000454
-5.000000
-5.000000
-5.000000
0.000000
0.000000
0.000000
0.000000
2.304218
4.175228
6.145199
8.118379
10.091038
12.024989
13.869357
15.559911
17.025002
18.192565
18.998088
19.392187
19.346538
18.857176
17.944572
16.650514
15.032376
13.155853
11.087220
8.887474
6.602734
4.290035
1.853018
-0.000614
-5.000000
-5.000000
-5.000000
0.000000
0.000000
0.000000
0.000000
2.161524
3.913900
5.754716
7.592905
9.424658
11.214750
12.916945
14.473196
15.818926
16.889259
17.626113
17.984964
17.940153
17.487852
16.646148
15.452293
13.957614
12.221079
10.302404
8.257015
6.126721
3.967381
1.675090
-0.001360
-5.000000
-5.000000
-5.000000
0.000000
0.000000
0.000000
0.000000
2.006594
3.630279
5.331164
7.023323
8.702871
10.337777
11.886778
13.298444
14.515775
15.481581
16.144660
16.465689
16.421864
16.009502
15.244148
14.158200
12.796520
11.210868
9.453934
7.575161
5.611717
3.618192
1.482453
-0.003438
-5.000000
-5.000000
-5.000000
0.000000
0.000000
0.000000
0.000000
1.843828
3.332491
4.886835
6.426414
7.947287
9.420735
10.810628
12.072341
13.156657
14.014285
14.601088
14.883085
14.840407
14.469530
13.783391
12.809412
11.585810
10.156935
8.568239
6.862985
5.073522
3.253117
1.281030
-0.003925
-5.000000
-5.000000
-5.000000
0.000000
0.000000
0.000000
0.000000
1.677389
3.028248
4.433428
5.818210
7.178623
8.489283
9.719161
10.830385
11.781439
12.530843
13.041451
13.284565
13.243225
12.914073
12.307481
11.445955
10.361143
9.090055
7.670937
6.140872
4.527350
2.882302
1.076246
-0.005035
-5.000000
-5.000000
-5.000000
0.000000
0.000000
0.000000
0.000000
1.510859
2.724202
3.981078
5.212664
6.415002
7.565968
8.639441
9.604012
10.425521
11.069943
11.506795
11.712424
11.672655
11.384301
10.855305
10.103503
9.154280
8.037610
6.784796
5.426870
3.986424
2.514129
0.872203
-0.006895
-5.000000
-5.000000
-5.000000
0.000000
0.000000
0.000000
0.000000
1.346951
2.425416
3.537550
4.620549
5.670524
6.668456
7.592801
8.418133
9.117076
9.662467
10.029958
10.200547
10.162633
9.913214
9.458025
8.810626
7.990635
7.021512
5.928025
4.735263
3.460575
2.151015
0.659839
-0.007720
-5.000000
-5.000000
-5.000000
0.000000
0.000000
0.000000
0.000000
1.187343
2.135052
3.107760
4.048787
4.954379
5.808415
6.593494
7.289544
7.875233
8.329499
8.633446
8.772211
8.736504
8.523518
8.137070
7.586954
6.887678
6.056842
5.113189
4.075797
2.955987
1.786596
0.413422
-0.008672
-5.000000
-5.000000
-5.000000
0.000000
0.000000
0.000000
0.000000
1.032663
1.854344
2.693713
3.500337
4.270670
4.991252
5.648325
6.226461
6.709524
7.081687
7.328729
7.439349
7.406269
7.226897
6.903461
6.442586
5.854414
5.151447
4.346988
3.453895
2.476688
1.420072
0.111239
-1.889199
-5.000000
-5.000000
-5.000000
0.000000
0.000000
0.000000
0.000000
0.882640
1.582848
2.294862
2.974648
3.618946
4.216712
4.757314
5.229219
5.620612
5.919991
6.117004
6.203315
6.173344
6.024747
5.758519
5.378741
4.891993
4.306497
3.630818
2.871735
2.028984
1.071261
0.009901
-2.205189
-5.000000
-5.000000
-5.000000
0.000000
0.000000
0.000000
0.000000
0.736371
1.318938
1.908828
2.468596
2.995353
3.480235
3.915233
4.291986
4.602140
4.837644
4.991229
5.056940
5.030611
4.910172
4.695749
4.389507
3.995269
3.517837
2.961887
2.328931
1.617588
0.767503
0.009682
-2.350736
-5.000000
-5.000000
-5.000000
0.000000
0.000000
0.000000
0.000000
0.592612
1.060323
1.532162
1.977502
2.393896
2.774460
3.113349
3.404714
3.642883
3.822451
3.938522
3.986998
3.964860
3.870360
3.703090
3.463901
3.154634
2.777540
2.334351
1.822441
1.242083
0.513491
0.009350
-2.408643
-5.000000
-5.000000
-5.000000
0.000000
0.000000
0.000000
0.000000
0.450367
0.805126
1.161924
1.497183
1.808970
2.092208
2.342826
2.556928
2.730849
2.861149
2.944694
2.978799
2.961374
2.891033
2.767144
2.589777
2.359511
2.076906
1.741735
1.348670
0.899348
0.302473
0.008759
-2.421613
-5.000000
-5.000000
-5.000000
0.000000
0.000000
0.000000
0.000000
0.307596
0.549507
0.792285
1.019638
1.230214
1.420625
1.588279
1.730792
1.845989
1.931857
1.986552
2.008459
1.996249
1.948946
1.865950
1.747007
1.592063
1.400825
1.172146
0.900009
0.585980
0.137455
0.008091
-2.352226
-5.000000
-5.000000
-5.000000
0.000000
0.000000
0.000000
0.000000
0.170409
0.304515
0.438754
0.564208
0.680086
0.784542
0.876208
0.953864
1.016423
1.062891
1.092355
1.103995
1.097113
1.071156
1.025729
0.960575
0.875490
0.770033
0.643111
0.490246
0.311357
0.037501
0.007463
-2.119968
-5.000000
-5.000000
-5.000000
0.000000
0.000000
0.000000
0.000000
0.000000
0.000000
0.000000
0.000000
0.000000
0.000000
0.000000
0.000000
0.000000
0.000000
0.000000
0.000000
0.000000
0.000000
0.000000
0.000000
0.000000
0.000000
0.000000
0.000000
0.000000
0.000000
0.000000
0.000000
-5.000000
-5.000000
-5.000000
0.000000
0.000000
0.000000
0.000000
0.000000
0.000000
0.000000
0.000000
0.000000
0.000000
0.000000
0.000000
0.000000
0.000000
0.000000
0.000000
0.000000
0.000000
0.000000
0.000000
0.000000
0.000000
0.000000
0.000000
0.000000
0.000000
0.000000
0.000000
-5.000000
-5.000000
-5.000000
0.000000
0.000000
0.000000
0.000000
0.000000
0.000000
0.000000
0.000000
0.000000
0.000000
0.000000
0.000000
0.000000
0.000000
0.000000
0.000000
0.000000
0.000000
0.000000
0.000000
0.000000
0.000000
0.000000
0.000000
0.000000
0.000000
0.000000
0.000000
-5.000000
-5.000000
-5.000000
0.000000
0.000000
0.000000
0.000000
0.000000
0.000000
0.000000
0.000000
0.000000
0.000000
0.000000
0.000000
0.000000
0.000000
0.000000
0.000000
0.000000
0.000000
0.000000
0.000000
0.000000
0.000000
0.000000
0.000000
0.000000
0.000000
0.000000
0.000000
-5.000000
-5.000000
-5.000000
</DataArray>
</PointData>
<Cells>
<DataArray type='Int32' Name='connectivity' format='ascii'>
0
1
2
3
4
5
6
7
8
9
10
11
12
13
14
15
16
17
18
19
20
21
22
23
24
25
26
27
28
29
30
31
32
33
34
35
36
37
38
39
40
41
42
43
44
45
46
47
48
49
50
51
52
53
54
55
56
57
58
59
60
61
62
63
64
65
66
67
68
69
70
71
72
73
74
75
76
77
78
79
80
81
82
83
84
85
86
87
88
89
90
91
92
93
94
95
96
97
98
99
100
101
102
103
104
105
106
107
108
109
110
111
112
113
114
115
116
117
118
119
120
121
122
123
124
125
126
127
128
129
130
131
132
133
134
135
136
137
138
139
140
141
142
143
144
145
146
147
148
149
150
151
152
153
154
155
156
157
158
159
160
161
162
163
164
165
166
167
168
169
170
171
172
173
174
175
176
177
178
179
180
181
182
183
184
185
186
187
188
189
190
191
192
193
194
195
196
197
198
199
200
201
202
203
204
205
206
207
208
209
210
211
212
213
214
215
216
217
218
219
220
221
222
223
224
225
226
227
228
229
230
231
232
233
234
235
236
237
238
239
240
241
242
243
244
245
246
247
248
249
250
251
252
253
254
255
256
257
258
259
260
261
262
263
264
265
266
267
268
269
270
271
272
273
274
275
276
277
278
279
280
281
282
283
284
285
286
287
288
289
290
291
292
293
294
295
296
297
298
299
300
301
302
303
304
305
306
307
308
309
310
311
312
313
314
315
316
317
318
319
320
321
322
323
324
325
326
327
328
329
330
331
332
333
334
335
336
337
338
339
340
341
342
343
344
345
346
347
348
349
350
351
352
353
354
355
356
357
358
359
360
361
362
363
364
365
366
367
368
369
370
371
372
373
374
375
376
377
378
379
380
381
382
383
384
385
386
387
388
389
390
391
392
393
394
395
396
397
398
399
400
401
402
403
404
405
406
407
408
409
410
411
412
413
414
415
416
417
418
419
420
421
422
423
424
425
426
427
428
429
430
431
432
433
434
435
436
437
438
439
440
441
442
443
444
445
446
447
448
449
450
451
452
453
454
455
456
457
458
459
460
461
462
463
464
465
466
467
468
469
470
471
472
473
474
475
476
477
478
479
480
481
482
483
484
485
486
487
488
489
490
491
492
493
494
495
496
497
498
499
500
501
502
503
504
505
506
507
508
509
510
511
512
513
514
515
516
517
518
519
520
521
522
523
524
525
526
527
528
529
530
531
532
533
534
535
536
537
538
539
540
541
542
543
544
545
546
547
548
549
550
551
552
553
554
555
556
557
558
559
560
561
562
563
564
565
566
567
568
569
570
571
572
573
574
575
576
577
578
579
580
581
582
583
584
585
586
587
588
589
590
591
592
593
594
595
596
597
598
599
600
601
602
603
604
605
606
607
608
609
610
611
612
613
614
615
616
617
618
619
620
621
622
623
624
625
626
627
628
629
630
631
632
633
634
635
636
637
638
639
640
641
642
643
644
645
646
647
648
649
650
651
652
653
654
655
656
657
658
659
660
661
662
663
664
665
666
667
668
669
670
671
672
673
674
675
676
677
678
679
680
681
682
683
684
685
686
687
688
689
690
691
692
693
694
695
696
697
698
699
700
701
702
703
704
705
706
707
708
709
710
711
712
713
714
715
716
717
718
719
720
721
722
723
724
725
726
727
728
729
730
731
732
733
734
735
736
737
738
739
740
741
742
743