<?xml version='1.0' encoding='UTF-8'?>
<VTKFile xmlns='VTK' byte_order='LittleEndian' version='0.1' type='UnstructuredGrid'>
<UnstructuredGrid>
<Piece NumberOfCells='1488' NumberOfPoints='1488'>
<Points>
<DataArray NumberOfComponents='3' type='Float32' Name='Position' format='ascii'>
-0.075000 -0.075000 0.000000
-0.075000 -0.050000 0.000000
-0.075000 -0.025000 0.000000
-0.075000 0.000000 0.000000
-0.075000 0.025000 0.000000
-0.075000 0.050000 0.000000
-0.075000 0.075000 0.000000
-0.075000 0.100000 0.000000
-0.075000 0.125000 0.000000
-0.075000 0.150000 0.000000
-0.075000 0.175000 0.000000
-0.075000 0.200000 0.000000
-0.075000 0.225000 0.000000
-0.075000 0.250000 0.000000
-0.075000 0.275000 0.000000
-0.075000 0.300000 0.000000
-0.075000 0.325000 0.000000
-0.075000 0.350000 0.000000
-0.075000 0.375000 0.000000
-0.075000 0.400000 0.000000
-0.075000 0.425000 0.000000
-0.075000 0.450000 0.000000
-0.075000 0.475000 0.000000
-0.075000 0.500000 0.000000
-0.075000 0.525000 0.000000
-0.075000 0.550000 0.000000
-0.075000 0.575000 0.000000
-0.075000 0.600000 0.000000
-0.075000 0.625000 0.000000
-0.075000 0.650000 0.000000
-0.075000 0.675000 0.000000
-0.050000 -0.075000 0.000000
-0.050000 -0.050000 0.000000
-0.050000 -0.025000 0.000000
-0.050000 0.000000 0.000000
-0.050000 0.025000 0.000000
-0.050000 0.050000 0.000000
-0.050000 0.075000 0.000000
-0.050000 0.100000 0.000000
-0.050000 0.125000 0.000000
-0.050000 0.150000 0.000000
-0.050000 0.175000 0.000000
-0.050000 0.200000 0.000000
-0.050000 0.225000 0.000000
-0.050000 0.250000 0.000000
-0.050000 0.275000 0.000000
-0.050000 0.300000 0.000000
-0.050000 0.325000 0.000000
-0.050000 0.350000 0.000000
-0.050000 0.375000 0.000000
-0.050000 0.400000 0.000000
-0.050000 0.425000 0.000000
-0.050000 0.450000 0.000000
-0.050000 0.475000 0.000000
-0.050000 0.500000 0.000000
-0.050000 0.525000 0.000000
-0.050000 0.550000 0.000000
-0.050000 0.575000 0.000000
-0.050000 0.600000 0.000000
-0.050000 0.625000 0.000000
-0.050000 0.650000 0.000000
-0.050000 0.675000 0.000000
-0.025000 -0.075000 0.000000
-0.025000 -0.050000 0.000000
-0.025000 -0.025000 0.000000
-0.025000 0.000000 0.000000
-0.025000 0.025000 0.000000
-0.025000 0.050000 0.000000
-0.025000 0.075000 0.000000
-0.025000 0.100000 0.000000
-0.025000 0.125000 0.000000
-0.025000 0.150000 0.000000
-0.025000 0.175000 0.000000
-0.025000 0.200000 0.000000
-0.025000 0.225000 0.000000
-0.025000 0.250000 0.000000
-0.025000 0.275000 0.000000
-0.025000 0.300000 0.000000
-0.025000 0.325000 0.000000
-0.025000 0.350000 0.000000
-0.025000 0.375000 0.000000
-0.025000 0.400000 0.000000
-0.025000 0.425000 0.000000
-0.025000 0.450000 0.000000
-0.025000 0.475000 0.000000
-0.025000 0.500000 0.000000
-0.025000 0.525000 0.000000
-0.025000 0.550000 0.000000
-0.025000 0.575000 0.000000
-0.025000 0.600000 0.000000
-0.025000 0.625000 0.000000
-0.025000 0.650000 0.000000
-0.025000 0.675000 0.000000
0.000000 -0.075000 0.000000
0.000000 -0.050000 0.000000
0.000000 -0.025000 0.000000
0.000000 0.000000 0.000000
0.000000 0.025000 0.000000
0.000000 0.050000 0.000000
0.000000 0.075000 0.000000
0.000000 0.100000 0.000000
0.000000 0.125000 0.000000
0.000000 0.150000 0.000000
0.000000 0.175000 0.000000
0.000000 0.200000 0.000000
0.000000 0.225000 0.000000
0.000000 0.250000 0.000000
0.000000 0.275000 0.000000
0.000000 0.300000 0.000000
0.000000 0.325000 0.000000
0.000000 0.350000 0.000000
0.000000 0.375000 0.000000
0.000000 0.400000 0.000000
0.000000 0.425000 0.000000
0.000000 0.450000 0.000000
0.000000 0.475000 0.000000
0.000000 0.500000 0.000000
0.000000 0.525000 0.000000
0.000000 0.550000 0.000000
0.000000 0.575000 0.000000
0.000000 0.600000 0.000000
0.000000 0.625000 0.000000
0.000000 0.650000 0.000000
0.000000 0.675000 0.000000
0.025000 -0.075000 0.000000
0.025000 -0.050000 0.000000
0.025000 -0.025000 0.000000
0.025000 0.000000 0.000000
0.025000 0.025000 0.000000
0.025000 0.050000 0.000000
0.025000 0.075000 0.000000
0.025000 0.100000 0.000000
0.025000 0.125000 0.000000
0.025000 0.150000 0.000000
0.025000 0.175000 0.000000
0.025000 0.200000 0.000000
0.025000 0.225000 0.000000
0.025000 0.250000 0.000000
0.025000 0.275000 0.000000
0.025000 0.300000 0.000000
0.025000 0.325000 0.000000
0.025000 0.350000 0.000000
0.025000 0.375000 0.000000
0.025000 0.400000 0.000000
0.025000 0.425000 0.000000
0.025000 0.450000 0.000000
0.025000 0.475000 0.000000
0.025000 0.500000 0.000000
0.025000 0.525000 0.000000
0.025000 0.550000 0.000000
0.025000 0.575000 0.000000
0.025000 0.600000 0.000000
0.025000 0.625000 0.000000
0.025000 0.650000 0.000000
0.025000 0.675000 0.000000
0.050000 -0.075000 0.000000
0.050000 -0.050000 0.000000
0.050000 -0.025000 0.000000
0.050000 0.000000 0.000000
0.050000 0.025000 0.000000
0.050000 0.050000 0.000000
0.050000 0.075000 0.000000
0.050000 0.100000 0.000000
0.050000 0.125000 0.000000
0.050000 0.150000 0.000000
0.050000 0.175000 0.000000
0.050000 0.200000 0.000000
0.050000 0.225000 0.000000
0.050000 0.250000 0.000000
0.050000 0.275000 0.000000
0.050000 0.300000 0.000000
0.050000 0.325000 0.000000
0.050000 0.350000 0.000000
0.050000 0.375000 0.000000
0.050000 0.400000 0.000000
0.050000 0.425000 0.000000
0.050000 0.450000 0.000000
0.050000 0.475000 0.000000
0.050000 0.500000 0.000000
0.050000 0.525000 0.000000
0.050000 0.550000 0.000000
0.050000 0.575000 0.000000
0.050000 0.600000 0.000000
0.050000 0.625000 0.000000
0.050000 0.650000 0.000000
0.050000 0.675000 0.000000
0.075000 -0.075000 0.000000
0.075000 -0.050000 0.000000
0.075000 -0.025000 0.000000
0.075000 0.000000 0.000000
0.075000 0.025000 0.000000
0.075000 0.050000 0.000000
0.075000 0.075000 0.000000
0.075000 0.100000 0.000000
0.075000 0.125000 0.000000
0.075000 0.150000 0.000000
0.075000 0.175000 0.000000
0.075000 0.200000 0.000000
0.075000 0.225000 0.000000
0.075000 0.250000 0.000000
0.075000 0.275000 0.000000
0.075000 0.300000 0.000000
0.075000 0.325000 0.000000
0.075000 0.350000 0.000000
0.075000 0.375000 0.000000
0.075000 0.400000 0.000000
0.075000 0.425000 0.000000
0.075000 0.450000 0.000000
0.075000 0.475000 0.000000
0.075000 0.500000 0.000000
0.075000 0.525000 0.000000
0.075000 0.550000 0.000000
0.075000 0.575000 0.000000
0.075000 0.600000 0.000000
0.075000 0.625000 0.000000
0.075000 0.650000 0.000000
0.075000 0.675000 0.000000
0.100000 -0.075000 0.000000
0.100000 -0.050000 0.000000
0.100000 -0.025000 0.000000
0.100000 0.000000 0.000000
0.100000 0.025000 0.000000
0.100000 0.050000 0.000000
0.100000 0.075000 0.000000
0.100000 0.100000 0.000000
0.100000 0.125000 0.000000
0.100000 0.150000 0.000000
0.100000 0.175000 0.000000
0.100000 0.200000 0.000000
0.100000 0.225000 0.000000
0.100000 0.250000 0.000000
0.100000 0.275000 0.000000
0.100000 0.300000 0.000000
0.100000 0.325000 0.000000
0.100000 0.350000 0.000000
0.100000 0.375000 0.000000
0.100000 0.400000 0.000000
0.100000 0.425000 0.000000
0.100000 0.450000 0.000000
0.100000 0.475000 0.000000
0.100000 0.500000 0.000000
0.100000 0.525000 0.000000
0.100000 0.550000 0.000000
0.100000 0.575000 0.000000
0.100000 0.600000 0.000000
0.100000 0.625000 0.000000
0.100000 0.650000 0.000000
0.100000 0.675000 0.000000
0.125000 -0.075000 0.000000
0.125000 -0.050000 0.000000
0.125000 -0.025000 0.000000
0.125000 0.000000 0.000000
0.125000 0.025000 0.000000
0.125000 0.050000 0.000000
0.125000 0.075000 0.000000
0.125000 0.100000 0.000000
0.125000 0.125000 0.000000
0.125000 0.150000 0.000000
0.125000 0.175000 0.000000
0.125000 0.200000 0.000000
0.125000 0.225000 0.000000
0.125000 0.250000 0.000000
0.125000 0.275000 0.000000
0.125000 0.300000 0.000000
0.125000 0.325000 0.000000
0.125000 0.350000 0.000000
0.125000 0.375000 0.000000
0.125000 0.400000 0.000000
0.125000 0.425000 0.000000
0.125000 0.450000 0.000000
0.125000 0.475000 0.000000
0.125000 0.500000 0.000000
0.125000 0.525000 0.000000
0.125000 0.550000 0.000000
0.125000 0.575000 0.000000
0.125000 0.600000 0.000000
0.125000 0.625000 0.000000
0.125000 0.650000 0.000000
0.125000 0.675000 0.000000
0.150000 -0.075000 0.000000
0.150000 -0.050000 0.000000
0.150000 -0.025000 0.000000
0.150000 0.000000 0.000000
0.150000 0.025000 0.000000
0.150000 0.050000 0.000000
0.150000 0.075000 0.000000
0.150000 0.100000 0.000000
0.150000 0.125000 0.000000
0.150000 0.150000 0.000000
0.150000 0.175000 0.000000
0.150000 0.200000 0.000000
0.150000 0.225000 0.000000
0.150000 0.250000 0.000000
0.150000 0.275000 0.000000
0.150000 0.300000 0.000000
0.150000 0.325000 0.000000
0.150000 0.350000 0.000000
0.150000 0.375000 0.000000
0.150000 0.400000 0.000000
0.150000 0.425000 0.000000
0.150000 0.450000 0.000000
0.150000 0.475000 0.000000
0.150000 0.500000 0.000000
0.150000 0.525000 0.000000
0.150000 0.550000 0.000000
0.150000 0.575000 0.000000
0.150000 0.600000 0.000000
0.150000 0.625000 0.000000
0.150000 0.650000 0.000000
0.150000 0.675000 0.000000
0.175000 -0.075000 0.000000
0.175000 -0.050000 0.000000
0.175000 -0.025000 0.000000
0.175000 0.000000 0.000000
0.175000 0.025000 0.000000
0.175000 0.050000 0.000000
0.175000 0.075000 0.000000
0.175000 0.100000 0.000000
0.175000 0.125000 0.000000
0.175000 0.150000 0.000000
0.175000 0.175000 0.000000
0.175000 0.200000 0.000000
0.175000 0.225000 0.000000
0.175000 0.250000 0.000000
0.175000 0.275000 0.000000
0.175000 0.300000 0.000000
0.175000 0.325000 0.000000
0.175000 0.350000 0.000000
0.175000 0.375000 0.000000
0.175000 0.400000 0.000000
0.175000 0.425000 0.000000
0.175000 0.450000 0.000000
0.175000 0.475000 0.000000
0.175000 0.500000 0.000000
0.175000 0.525000 0.000000
0.175000 0.550000 0.000000
0.175000 0.575000 0.000000
0.175000 0.600000 0.000000
0.175000 0.625000 0.000000
0.175000 0.650000 0.000000
0.175000 0.675000 0.000000
0.200000 -0.075000 0.000000
0.200000 -0.050000 0.000000
0.200000 -0.025000 0.000000
0.200000 0.000000 0.000000
0.200000 0.025000 0.000000
0.200000 0.050000 0.000000
0.200000 0.075000 0.000000
0.200000 0.100000 0.000000
0.200000 0.125000 0.000000
0.200000 0.150000 0.000000
0.200000 0.175000 0.000000
0.200000 0.200000 0.000000
0.200000 0.225000 0.000000
0.200000 0.250000 0.000000
[...]
<PointData>
<DataArray NumberOfComponents='1' type='Int32' Name='ParticleType' format='ascii'>
4
4
4
4
4
4
4
4
4
4
4
4
4
4
4
4
4
4
4
4
4
4
4
4
4
4
4
4
2
2
2
4
4
4
4
4
4
4
4
4
4
4
4
4
4
4
4
4
4
4
4
4
4
4
4
4
4
4
4
2
2
2
4
4
3
3
3
3
3
3
3
3
3
3
3
3
3
3
3
3
3
3
3
3
3
3
3
3
3
3
2
2
2
4
4
3
3
3
3
3
3
3
3
3
3
3
3
3
3
3
3
3
3
3
3
3
3
3
3
3
3
2
2
2
4
4
3
3
0
0
0
0
0
0
0
0
0
0
0
0
0
0
0
0
0
0
0
0
0
1
1
2
2
2
2
4
4
3
3
0
0
0
0
0
0
0
0
0
0
0
0
0
0
0
0
0
0
0
0
0
0
1
2
2
2
2
4
4
3
3
0
0
0
0
0
0
0
0
0
0
0
0
0
0
0
0
0
0
0
0
0
0
1
2
2
2
2
4
4
3
3
0
0
0
0
0
0
0
0
0
0
0
0
0
0
0
0
0
0
0
0
0
0
1
2
2
2
2
4
4
3
3
0
0
0
0
0
0
0
0
0
0
0
0
0
0
0
0
0
0
0
0
0
0
1
2
2
2
2
4
4
3
3
0
0
0
0
0
0
0
0
0
0
0
0
0
0
0
0
0
0
0
0
0
0
1
2
2
2
2
4
4
3
3
0
0
0
0
0
0
0
0
0
0
0
0
0
0
0
0
0
0
0
0
0
0
1
2
2
2
2
4
4
3
3
0
0
0
0
0
0
0
0
0
0
0
0
0
0
0
0
0
0
0
0
0
0
1
2
2
2
2
4
4
3
3
0
0
0
0
0
0
0
0
0
0
0
0
0
0
0
0
0
0
0
0
0
0
1
2
2
2
2
4
4
3
3
0
0
0
0
0
0
0
0
0
0
0
0
0
0
0
0
0
0
0
0
0
0
1
2
2
2
2
4
4
3
3
0
0
0
0
0
0
0
0
0
0
0
0
0
0
0
0
0
0
0
0
0
0
0
2
2
2
2
4
4
3
3
0
0
0
0
0
0
0
0
0
0
0
0
0
0
0
0
0
0
0
0
0
0
0
2
2
2
2
4
4
3
3
0
0
0
0
0
0
0
0
0
0
0
0
0
0
0
0
0
0
0
0
0
0
0
1
2
2
2
4
4
3
3
0
0
0
0
0
0
0
0
0
0
0
0
0
0
0
0
0
0
0
0
0
0
0
2
2
2
2
4
4
3
3
0
0
0
0
0
0
0
0
0
0
0
0
0
0
0
0
0
0
0
0
0
0
0
1
2
2
2
4
4
3
3
0
0
0
0
0
0
0
0
0
0
0
0
0
0
0
0
0
0
0
0
0
0
0
1
2
2
2
4
4
3
3
0
0
0
0
0
0
0
0
0
0
0
0
0
0
0
0
0
0
0
0
0
0
0
1
2
2
2
4
4
3
3
0
0
0
0
0
0
0
0
0
0
0
0
0
0
0
0
0
0
0
0
0
0
0
1
2
2
2
4
4
3
3
0
0
0
0
0
0
0
0
0
0
0
0
0
0
0
0
0
0
0
0
0
0
0
1
2
2
2
4
4
3
3
0
0
0
0
0
0
0
0
0
0
0
0
0
0
0
0
0
0
0
0
0
0
0
1
2
2
2
4
4
3
3
0
0
0
0
0
0
0
0
0
0
0
0
0
0
0
0
0
0
0
0
0
0
0
1
2
2
2
4
4
3
3
0
0
0
0
0
0
0
0
0
0
0
0
0
0
0
0
0
0
0
0
0
0
0
1
2
2
2
4
4
3
3
0
0
0
0
0
0
0
0
0
0
0
0
0
0
0
0
0
0
0
0
0
0
0
1
2
2
2
4
4
3
3
0
0
0
0
0
0
0
0
0
0
0
0
0
0
0
0
0
0
0
0
0
0
0
1
2
2
2
4
4
3
3
0
0
0
0
0
0
0
0
0
0
0
0
0
0
0
0
0
0
0
0
0
0
0
1
2
2
2
4
4
3
3
0
0
0
0
0
0
0
0
0
0
0
0
0
0
0
0
0
0
0
0
0
0
0
1
2
2
2
4
4
3
3
0
0
0
0
0
0
0
0
0
0
0
0
0
0
0
0
0
0
0
0
0
0
0
1
2
2
2
4
4
3
3
0
0
0
0
0
0
0
0
0
0
0
0
0
0
0
0
0
0
0
0
0
0
0
2
2
2
2
4
4
3
3
0
0
0
0
0
0
0
0
0
0
0
0
0
0
0
0
0
0
0
0
0
0
0
1
2
2
2
4
4
3
3
0
0
0
0
0
0
0
0
0
0
0
0
0
0
0
0
0
0
0
0
0
0
0
2
2
2
2
4
4
3
3
0
0
0
0
0
0
0
0
0
0
0
0
0
0
0
0
0
0
0
0
0
0
1
2
2
2
2
4
4
3
3
0
0
0
0
0
0
0
0
0
0
0
0
0
0
0
0
0
0
0
0
0
0
1
2
2
2
2
4
4
3
3
0
0
0
0
0
0
0
0
0
0
0
0
0
0
0
0
0
0
0
0
0
0
1
2
2
2
2
4
4
3
3
0
0
0
0
0
0
0
0
0
0
0
0
0
0
0
0
0
0
0
0
0
0
1
2
2
2
2
4
4
3
3
0
0
0
0
0
0
0
0
0
0
0
0
0
0
0
0
0
0
0
0
0
0
1
2
2
2
2
4
4
3
3
0
0
0
0
0
0
0
0
0
0
0
0
0
0
0
0
0
0
0
0
0
0
1
2
2
2
2
4
4
3
3
0
0
0
0
0
0
0
0
0
0
0
0
0
0
0
0
0
0
0
0
0
0
1
2
2
2
2
4
4
3
3
0
0
0
0
0
0
0
0
0
0
0
0
0
0
0
0
0
0
0
0
0
0
1
2
2
2
2
4
4
3
3
0
0
0
0
0
0
0
0
0
0
0
0
0
0
0
0
0
0
0
0
0
0
1
2
2
2
2
4
4
3
3
0
0
0
0
0
0
0
0
0
0
0
0
0
0
0
0
0
0
0
0
0
1
1
2
2
2
2
4
4
3
3
3
3
3
3
3
3
3
3
3
3
3
3
3
3
3
3
3
3
3
3
3
3
3
3
2
2
2
4
4
3
3
3
3
3
3
3
3
3
3
3
3
3
3
3
3
3
3
3
3
3
3
3
3
3
3
2
2
2
4
4
4
4
4
4
4
4
4
4
4
4
4
4
4
4
4
4
4
4
4
4
4
4
4
4
4
4
2
2
2
4
4
4
4
4
4
4
4
4
4
4
4
4
4
4
4
4
4
4
4
4
4
4
4
4
4
4
4
2
2
2
</DataArray>
<DataArray NumberOfComponents='1' type='Float32' Name='Temperature' format='ascii'>
0.000000
0.000000
0.000000
0.000000
0.000000
0.000000
0.000000
0.000000
0.000000
0.000000
0.000000
0.000000
0.000000
0.000000
0.000000
0.000000
0.000000
0.000000
0.000000
0.000000
0.000000
0.000000
0.000000
0.000000
0.000000
0.000000
0.000000
0.000000
-5.000000
-5.000000
-5.000000
0.000000
0.000000
0.000000
0.000000
0.000000
0.000000
0.000000
0.000000
0.000000
0.000000
0.000000
0.000000
0.000000
0.000000
0.000000
0.000000
0.000000
0.000000
0.000000
0.000000
0.000000
0.000000
0.000000
0.000000
0.000000
0.000000
0.000000
0.000000
-5.000000
-5.000000
-5.000000
0.000000
0.000000
0.000000
0.000000
0.000000
0.000000
0.000000
0.000000
0.000000
0.000000
0.000000
0.000000
0.000000
0.000000
0.000000
0.000000
0.000000
0.000000
0.000000
0.000000
0.000000
0.000000
0.000000
0.000000
0.000000
0.000000
0.000000
0.000000
-5.000000
-5.000000
-5.000000
0.000000
0.000000
0.000000
0.000000
0.000000
0.000000
0.000000
0.000000
0.000000
0.000000
0.000000
0.000000
0.000000
0.000000
0.000000
0.000000
0.000000
0.000000
0.000000
0.000000
0.000000
0.000000
0.000000
0.000000
0.000000
0.000000
0.000000
0.000000
-5.000000
-5.000000
-5.000000
0.000000
0.000000
0.000000
0.000000
0.159699
0.286168
0.413962
0.534974
0.648410
0.752222
0.844601
0.923750
0.987976
1.035732
1.065672
1.076697
1.067981
1.038973
0.989360
0.918996
0.827815
0.715678
0.582504
0.426326
0.252737
0.009966
0.004573
-2.126112
-5.000000
-5.000000
-5.000000
0.000000
0.000000
0.000000
0.000000
0.289499
0.518483
0.750243
0.969850
1.175921
1.364722
1.532930
1.677231
1.794482
1.881809
1.936710
1.957152
1.941632
1.889179
1.799298
1.671845
1.506876
1.304416
1.064751
0.785572
0.478288
0.055190
0.004513
-2.364694
-5.000000
-5.000000
-5.000000
0.000000
0.000000
0.000000
0.000000
0.426401
0.763896
1.105741
1.430067
1.734857
2.014571
2.264221
2.478785
2.653476
2.783894
2.866218
2.897363
2.875092
2.798036
2.665618
2.477871
2.235223
1.938217
1.587980
1.183168
0.739984
0.173843
0.005718
-2.443472
-5.000000
-5.000000
-5.000000
0.000000
0.000000
0.000000
0.000000
0.565023
1.012551
1.466360
1.897615
2.303680
2.677150
3.011248
3.299082
3.534024
3.709961
3.821585
3.864649
3.836148
3.734366
3.558788
3.309857
2.988671
2.596634
2.136022
1.607294
1.029610
0.329471
0.006640
-2.447952
-5.000000
-5.000000
-5.000000
0.000000
0.000000
0.000000
0.000000
0.707115
1.267672
1.836857
2.378801
2.890261
3.361870
3.784906
4.150380
4.449576
4.674415
4.817890
4.874445
4.840248
4.713291
4.493281
4.181329
3.779509
3.290376
2.717430
2.062891
1.347183
0.507959
0.007232
-2.433058
-5.000000
-5.000000
-5.000000
0.000000
0.000000
0.000000
0.000000
0.853008
1.529876
2.218190
2.874975
3.496395
4.071019
4.587989
5.035979
5.403896
5.681418
5.859594
5.931389
5.892076
5.739405
5.473483
5.096363
4.611421
4.022624
3.334669
2.551027
1.691726
0.705302
0.007747
-2.411185
-5.000000
-5.000000
-5.000000
0.000000
0.000000
0.000000
0.000000
1.002949
1.799619
2.611054
3.387092
4.123318
4.806125
5.422328
5.957997
6.399367
6.733569
6.949450
7.038311
6.994456
6.815441
6.501949
6.057273
5.486453
4.795182
3.989371
3.073163
2.064355
0.921652
0.008649
-2.385032
-5.000000
-5.000000
-5.000000
0.000000
0.000000
0.000000
0.000000
1.156738
2.076542
3.014922
3.914461
4.770181
5.566190
6.286786
6.915174
7.434620
7.829412
8.085934
8.193641
8.145786
7.939772
7.577038
7.062421
6.403038
5.606750
4.680922
3.630023
2.467344
1.160040
0.009113
-2.353336
-5.000000
-5.000000
-5.000000
0.000000
0.000000
0.000000
0.000000
1.313666
2.359354
3.427882
4.454539
5.433798
6.347388
7.176915
7.902486
8.504123
8.962998
9.262794
9.390947
9.339580
9.105980
8.692499
8.105819
7.355580
6.452405
5.405754
4.220745
2.904232
1.429335
0.009593
-2.308031
-5.000000
-5.000000
-5.000000
0.000000
0.000000
0.000000
0.000000
1.472439
2.645696
3.846440
5.002670
6.108332
7.142701
8.084557
8.910711
9.597720
10.123410
10.468564
10.618452
10.563999
10.302398
9.837047
9.176728
8.334034
7.323035
6.156363
4.841213
3.379220
1.746441
0.009730
-2.225548
-5.000000
-5.000000
-5.000000
0.000000
0.000000
0.000000
0.000000
1.631153
2.932106
4.265469
5.552035
6.785238
7.941870
8.997793
9.926391
10.700600
11.294739
11.686549
11.859029
11.801852
11.512132
10.994394
10.259701
9.323928
8.205224
6.920670
5.482144
3.891399
2.133959
0.141130
-2.047612
-5.000000
-5.000000
-5.000000
0.000000
0.000000
0.000000
0.000000
1.787336
3.214089
4.678319
6.093792
7.453459
8.731634
9.901235
10.932172
11.793684
12.456513
12.895286
13.090680
13.031089
12.713546
12.143736
11.335075
10.306880
9.081757
7.682229
6.127330
4.425771
2.590296
0.541103
-1.719862
-5.000000
-5.000000
-5.000000
0.000000
0.000000
0.000000
0.000000
1.938043
3.486292
5.077080
6.617443
8.099873
9.496276
10.776673
11.907534
12.854438
13.584572
14.069466
14.287486
14.225752
13.881207
13.260673
12.379880
11.261545
9.932733
8.421654
6.755338
4.954523
3.059334
1.001543
-0.009971
-5.000000
-5.000000
-5.000000
0.000000
0.000000
0.000000
0.000000
2.080003
3.742774
5.452981
7.111352
8.709960
10.218424
11.603995
12.829844
13.858028
14.652310
15.181236
15.420942
15.357313
14.987192
14.318472
13.369059
12.164841
10.736995
9.118884
7.344360
5.442246
3.472472
1.347005
-0.722482
-5.000000
-5.000000
-5.000000
0.000000
0.000000
0.000000
0.000000
2.209799
3.977335
5.796870
7.563395
9.268604
10.880012
12.362310
13.675609
14.778697
15.632152
16.201745
16.461536
16.396254
16.002636
15.289542
14.276841
12.993246
11.473491
9.755141
7.876942
5.872593
3.803065
1.579005
-0.008039
-5.000000
-5.000000
-5.000000
0.000000
0.000000
0.000000
0.000000
2.324066
4.183869
6.099747
7.961654
9.760956
11.463310
13.031131
14.421813
15.591228
16.497118
17.102780
17.380418
17.313728
16.899343
16.146961
15.078149
13.724035
12.122293
10.313754
8.340410
6.238579
4.066958
1.736087
-0.005917
-5.000000
-5.000000
-5.000000
0.000000
0.000000
0.000000
0.000000
2.419682
4.356713
6.353265
8.295087
10.173272
11.951918
13.591526
15.047196
16.272344
17.222316
17.858320
18.150993
18.083153
17.651339
16.865941
15.749928
14.336395
12.665360
10.780141
8.724991
6.537923
4.277046
1.856576
-0.005742
-5.000000
-5.000000
-5.000000
0.000000
0.000000
0.000000
0.000000
2.493938
4.490957
6.550191
8.554130
10.493656
12.331652
14.027129
15.533395
16.801948
17.786264
18.445916
18.750318
18.681599
18.236222
17.425108
16.272303
14.812407
13.087200
11.141832
9.022199
6.767642
4.436283
1.946152
-0.003649
-5.000000
-5.000000
-5.000000
0.000000
0.000000
0.000000
0.000000
2.544683
4.582700
6.684782
8.731190
10.712665
12.591261
14.324964
15.865856
17.164121
18.171950
18.847797
19.160235
19.090923
18.636266
17.807547
16.629547
15.137878
13.375508
11.388812
9.224795
6.923761
4.544054
2.006478
-0.003393
-5.000000
-5.000000
-5.000000
0.000000
0.000000
0.000000
0.000000
2.570424
4.629238
6.753055
8.821008
10.823765
12.722958
14.476056
16.034517
17.347857
18.367618
19.051684
19.368201
19.298589
18.839224
18.001573
16.810785
15.302985
13.521738
11.514036
9.327443
7.002771
4.598512
2.036921
-0.002907
-5.000000
-5.000000
-5.000000
0.000000
0.000000
0.000000
0.000000
2.570397
4.629188
6.752977
8.820898
10.823618
12.722771
14.475826
16.034245
17.347546
18.367274
19.051316
19.367821
19.298208
18.838855
18.001228
16.810473
15.302717
13.521520
11.513873
9.327337
7.002716
4.598494
2.036921
-0.002905
-5.000000
-5.000000
-5.000000
0.000000
0.000000
0.000000
0.000000
2.544606
4.582554
6.684552
8.730865
10.712231
12.590706
14.324282
15.865050
17.163199
18.170931
18.846709
19.159109
19.089795
18.635174
17.806526
16.628628
15.137092
13.374880
11.388364
9.224536
6.923672
4.544078
2.006536
-0.003383
-5.000000
-5.000000
-5.000000
0.000000
0.000000
0.000000
0.000000
2.493814
4.490720
6.549821
8.553604
10.492952
12.330752
14.026024
15.532087
16.800453
17.784612
18.444150
18.748491
18.679771
18.234452
17.423456
16.270827
14.811163
13.086250
11.141241
9.022009
6.767821
4.436667
1.946496
-0.003625
-5.000000
-5.000000
-5.000000
0.000000
0.000000
0.000000
0.000000
2.419515
4.356397
6.352770
8.294384
10.172330
11.950713
13.590045
15.045442
16.270337
17.220099
17.855949
18.148540
18.080699
17.648968
16.863736
15.747978
14.334803
12.664262
10.779717
8.725394
6.539083
4.278488
1.857683
-0.005694
-5.000000
-5.000000
-5.000000
0.000000
0.000000
0.000000
0.000000
2.323866
4.183489
6.099151
7.960807
9.759820
11.461854
13.029340
14.419689
15.588797
16.494430
17.099905
17.377446
17.310756
16.896477
16.144313
15.075847
13.722256
12.121326
10.314050
8.342452
6.242330
4.071536
1.740153
-0.005833
-5.000000
-5.000000
-5.000000
0.000000
0.000000
0.000000
0.000000
2.209576
3.976912
5.796205
7.562446
9.267328
10.878375
12.360291
13.673212
14.775951
15.629113
16.198495
16.458175
16.392896
15.999408
15.286585
14.274335
12.991484
11.473018
9.756949
7.882381
5.882437
3.811908
1.574688
-0.007936
-5.000000
-5.000000
-5.000000
0.000000
0.000000
0.000000
0.000000
2.079770
3.742330
5.452280
7.110349
8.708608
10.216684
11.601845
12.827286
13.855094
14.649059
15.177757
15.417345
15.353725
14.983757
14.315360
13.366512
12.163298
10.737365
9.123001
7.355411
5.463910
3.494219
1.355690
-0.009878
-5.000000
-5.000000
-5.000000
0.000000
0.000000
0.000000
0.000000
1.937813
3.485851
5.076382
6.616439
8.098513
9.494519
10.774494
11.904936
12.851451
13.581259
14.065918
14.283818
14.222099
13.877726
13.257562
12.377442
11.260365
9.934097
8.428373
6.773042
4.990620
3.123127
1.061429
-1.305570
-5.000000
-5.000000
-5.000000
0.000000
0.000000
0.000000
0.000000
1.787121
3.213674
4.677658
6.092836
7.452157
8.729942
9.899129
10.929651
11.790779
12.453285
12.891825
13.087102
13.027533
12.710177
12.140770
11.332858
10.306097
9.083938
7.690793
6.149747
4.477013
2.696335
0.738635
-0.009509
-5.000000
-5.000000
-5.000000
0.000000
0.000000
0.000000
0.000000
1.630963
2.931739
4.264878
5.551171
6.784052
7.940319
8.995850
9.924056
10.697899
11.291730
11.683318
11.855688
11.798538
11.509010
10.991689
10.257772
9.323471
8.207752
6.929458
5.504181
3.937936
2.237099
0.309990
-1.845763
-5.000000
-5.000000
-5.000000
0.000000
0.000000
0.000000
0.000000
1.472283
2.645390
3.845942
5.001933
6.107308
7.141349
8.082850
8.908647
9.595321
10.120728
10.465678
10.615466
10.561041
10.299628
9.834682
9.175108
8.333783
7.325409
6.163836
4.858463
3.411876
1.804659
0.009963
-2.133409
-5.000000
-5.000000
-5.000000
0.000000
0.000000
0.000000
0.000000
1.313547
2.359118
3.427490
4.453948
5.432964
6.346270
7.175490
7.900748
8.502091
8.960716
9.260331
9.388395
9.337055
9.103627
8.690514
8.104499
7.355427
6.454316
5.411250
4.232157
2.922525
1.453873
0.009450
-2.281987
-5.000000
-5.000000
-5.000000
0.000000
0.000000
0.000000
0.000000
1.156656
2.076376
3.014638
3.914020
4.769544
5.565321
6.285661
6.913787
7.432984
7.827563
8.083930
8.191559
8.143725
7.937857
7.575437
7.061374
6.402914
5.608120
4.684572
3.636781
2.476654
1.170011
0.009099
-2.345941
-5.000000
-5.000000
-5.000000
0.000000
0.000000
0.000000
0.000000
1.002901
1.799517
2.610870
3.386792
4.122868
4.805493
5.421494
5.956952
6.398121
6.732149
6.947900
7.036694
6.992851
6.813949
6.500704
6.056459
5.486324
4.796075
3.991637
3.076973
2.069091
0.926069
0.008646
-2.382661
-5.000000
-5.000000
-5.000000
0.000000
0.000000
0.000000
0.000000
0.852987
1.529825
2.218088
2.874794
3.496107
4.070596
4.587414
5.035242
5.403003
5.680388
5.858459
5.930196
5.890885
5.738292
5.472547
5.095735
4.611270
4.023139
3.335996
2.553137
1.694181
0.707417
0.008101
-2.410337
-5.000000
-5.000000
-5.000000
0.000000
0.000000
0.000000
0.000000
0.707113
1.267659
1.836816
2.378710
2.890098
3.361614
3.784540
4.149897
4.448977
4.673712
4.817105
4.873611
4.839406
4.712493
4.492597
4.180845
3.779332
3.290612
2.718138
2.064013
1.348455
0.509015
0.007451
-2.432706
-5.000000
-5.000000
-5.000000
0.000000
0.000000
0.000000
0.000000
0.565032
1.012560
1.466357
1.897584
2.303604
2.677012
3.011037
3.298791
3.533651
3.709513
3.821075
3.864098
3.835581
3.733816
3.558298
3.309481
2.988473
2.596675
2.136328
1.607826
1.030224
0.329979
0.006705
-2.447795
-5.000000
-5.000000
-5.000000
0.000000
0.000000
0.000000
0.000000
0.426413
0.763913
1.105755
1.430067
1.734831
2.014508
2.264111
2.478624
2.653261
2.783628
2.865908
2.897019
2.874729
2.797672
2.665277
2.477583
2.235025
1.938142
1.588046
1.183358
0.740232
0.174059
0.005654
-2.443402
-5.000000
-5.000000
-5.000000
0.000000
0.000000
0.000000
0.000000
0.289510
0.518498
0.750259
0.969859
1.175917
1.364697
1.532879
1.677149
1.794368
1.881663
1.936535
1.956953
1.941416
1.888954
1.799075
1.671639
1.506706
1.304301
1.064704
0.785592
0.478353
0.055267
0.004761
-2.364657
-5.000000
-5.000000
-5.000000
0.000000
0.000000
0.000000
0.000000
0.159705
0.286176
0.413971
0.534980
0.648410
0.752213
0.844578
0.923712
0.987921
1.035661
1.065586
1.076597
1.067869
1.038853
0.989235
0.918873
0.827701
0.715584
0.582439
0.426293
0.252733
0.009982
0.004429
-2.126105
-5.000000
-5.000000
-5.000000
0.000000
0.000000
0.000000
0.000000
0.000000
0.000000
0.000000
0.000000
0.000000
0.000000
0.000000
0.000000
0.000000
0.000000
0.000000
0.000000
0.000000
0.000000
0.000000
0.000000
0.000000
0.000000
0.000000
0.000000
0.000000
0.000000
0.000000
0.000000
-5.000000
-5.000000
-5.000000
0.000000
0.000000
0.000000
0.000000
0.000000
0.000000
0.000000
0.000000
0.000000
0.000000
0.000000
0.000000
0.000000
0.000000
0.000000
0.000000
0.000000
0.000000
0.000000
0.000000
0.000000
0.000000
0.000000
0.000000
0.000000
0.000000
0.000000
0.000000
-5.000000
-5.000000
-5.000000
0.000000
0.000000
0.000000
0.000000
0.000000
0.000000
0.000000
0.000000
0.000000
0.000000
0.000000
0.000000
0.000000
0.000000
0.000000
0.000000
0.000000
0.000000
0.000000
0.000000
0.000000
0.000000
0.000000
0.000000
0.000000
0.000000
0.000000
0.000000
-5.000000
-5.000000
-5.000000
0.000000
0.000000
0.000000
0.000000
0.000000
0.000000
0.000000
0.000000
0.000000
0.000000
0.000000
0.000000
0.000000
0.000000
0.000000
0.000000
0.000000
0.000000
0.000000
0.000000
0.000000
0.000000
0.000000
0.000000
0.000000
0.000000
0.000000
0.000000
-5.000000
-5.000000
-5.000000
</DataArray>
</PointData>
<Cells>
<DataArray type='Int32' Name='connectivity' format='ascii'>
0
1
2
3
4
5
6
7
8
9
10
11
12
13
14
15
16
17
18
19
20
21
22
23
24
25
26
27
28
29
30
31
32
33
34
35
36
37
38
39
40
41
42
43
44
45
46
47
48
49
50
51
52
53
54
55
56
57
58
59
60
61
62
63
64
65
66
67
68
69
70
71
72
73
74
75
76
77
78
79
80
81
82
83
84
85
86
87
88
89
90
91
92
93
94
95
96
97
98
99
100
101
102
103
104
105
106
107
108
109
110
111
112
113
114
115
116
117
118
119
120
121
122
123
124
125
126
127
128
129
130
131
132
133
134
135
136
137
138
139
140
141
142
143
144
145
146
147
148
149
150
151
152
153
154
155
156
157
158
159
160
161
162
163
164
165
166
167
168
169
170
171
172
173
174
175
176
177
178
179
180
181
182
183
184
185
186
187
188
189
190
191
192
193
194
195
196
197
198
199
200
201
202
203
204
205
206
207
208
209
210
211
212
213
214
215
216
217
218
219
220
221
222
223
224
225
226
227
228
229
230
231
232
233
234
235
236
237
238
239
240
241
242
243
244
245
246
247
248
249
250
251
252
253
254
255
256
257
258
259
260
261
262
263
264
265
266
267
268
269
270
271
272
273
274
275
276
277
278
279
280
281
282
283
284
285
286
287
288
289
290
291
292
293
294
295
296
297
298
299
300
301
302
303
304
305
306
307
308
309
310
311
312
313
314
315
316
317
318
319
320
321
322
323
324
325
326
327
328
329
330
331
332
333
334
335
336
337
338
339
340
341
342
343
344
345
346
347
348
349
350
351
352
353
354
355
356
357
358
359
360
361
362
363
364
365
366
367
368
369
370
371
372
373
374
375
376
377
378
379
380
381
382
383
384
385
386
387
388
389
390
391
392
393
394
395
396
397
398
399
400
401
402
403
404
405
406
407
408
409
410
411
412
413
414
415
416
417
418
419
420
421
422
423
424
425
426
427
428
429
430
431
432
433
434
435
436
437
438
439
440
441
442
443
444
445
446
447
448
449
450
451
452
453
454
455
456
457
458
459
460
461
462
463
464
465
466
467
468
469
470
471
472
473
474
475
476
477
478
479
480
481
482
483
484
485
486
487
488
489
490
491
492
493
494
495
496
497
498
499
500
501
502
503
504
505
506
507
508
509
510
511
512
513
514
515
516
517
518
519
520
521
522
523
524
525
526
527
528
529
530
531
532
533
534
535
536
537
538
539
540
541
542
543
544
545
546
547
548
549
550
551
552
553
554
555
556
557
558
559
560
561
562
563
564
565
566
567
568
569
570
571
572
573
574
575
576
577
578
579
580
581
582
583
584
585
586
587
588
589
590
591
592
593
594
595
596
597
598
599
600
601
602
603
604
605
606
607
608
609
610
611
612
613
614
615
616
617
618
619
620
621
622
623
624
625
626
627
628
629
630
631
632
633
634
635
636
637
638
639
640
641
642
643
644
645
646
647
648
649
650
651
652
653
654
655
656
657
658
659
660
661
662
663
664
665
666
667
668
669
670
671
672
673
674
675
676
677
678
679
680
681
682
683
684
685
686
687
688
689
690
691
692
693
694
695
696
697
698
699
700
701
702
703
704
705
706
707
708
709
710
711
712
713
714
715
716
717
718
719
720
721
722
723
724
725
726
727
728
729
730
731
732
733
734
735
736
737
738
739
740
741
742
743
744
745
746
747
748
749
750