<?xml version='1.0' encoding='UTF-8'?>
<VTKFile xmlns='VTK' byte_order='LittleEndian' version='0.1' type='UnstructuredGrid'>
<UnstructuredGrid>
<Piece NumberOfCells='1488' NumberOfPoints='1488'>
<Points>
<DataArray NumberOfComponents='3' type='Float32' Name='Position' format='ascii'>
-0.075000 -0.075000 0.000000
-0.075000 -0.050000 0.000000
-0.075000 -0.025000 0.000000
-0.075000 0.000000 0.000000
-0.075000 0.025000 0.000000
-0.075000 0.050000 0.000000
-0.075000 0.075000 0.000000
-0.075000 0.100000 0.000000
-0.075000 0.125000 0.000000
-0.075000 0.150000 0.000000
-0.075000 0.175000 0.000000
-0.075000 0.200000 0.000000
-0.075000 0.225000 0.000000
-0.075000 0.250000 0.000000
-0.075000 0.275000 0.000000
-0.075000 0.300000 0.000000
-0.075000 0.325000 0.000000
-0.075000 0.350000 0.000000
-0.075000 0.375000 0.000000
-0.075000 0.400000 0.000000
-0.075000 0.425000 0.000000
-0.075000 0.450000 0.000000
-0.075000 0.475000 0.000000
-0.075000 0.500000 0.000000
-0.075000 0.525000 0.000000
-0.075000 0.550000 0.000000
-0.075000 0.575000 0.000000
-0.075000 0.600000 0.000000
-0.075000 0.625000 0.000000
-0.075000 0.650000 0.000000
-0.075000 0.675000 0.000000
-0.050000 -0.075000 0.000000
-0.050000 -0.050000 0.000000
-0.050000 -0.025000 0.000000
-0.050000 0.000000 0.000000
-0.050000 0.025000 0.000000
-0.050000 0.050000 0.000000
-0.050000 0.075000 0.000000
-0.050000 0.100000 0.000000
-0.050000 0.125000 0.000000
-0.050000 0.150000 0.000000
-0.050000 0.175000 0.000000
-0.050000 0.200000 0.000000
-0.050000 0.225000 0.000000
-0.050000 0.250000 0.000000
-0.050000 0.275000 0.000000
-0.050000 0.300000 0.000000
-0.050000 0.325000 0.000000
-0.050000 0.350000 0.000000
-0.050000 0.375000 0.000000
-0.050000 0.400000 0.000000
-0.050000 0.425000 0.000000
-0.050000 0.450000 0.000000
-0.050000 0.475000 0.000000
-0.050000 0.500000 0.000000
-0.050000 0.525000 0.000000
-0.050000 0.550000 0.000000
-0.050000 0.575000 0.000000
-0.050000 0.600000 0.000000
-0.050000 0.625000 0.000000
-0.050000 0.650000 0.000000
-0.050000 0.675000 0.000000
-0.025000 -0.075000 0.000000
-0.025000 -0.050000 0.000000
-0.025000 -0.025000 0.000000
-0.025000 0.000000 0.000000
-0.025000 0.025000 0.000000
-0.025000 0.050000 0.000000
-0.025000 0.075000 0.000000
-0.025000 0.100000 0.000000
-0.025000 0.125000 0.000000
-0.025000 0.150000 0.000000
-0.025000 0.175000 0.000000
-0.025000 0.200000 0.000000
-0.025000 0.225000 0.000000
-0.025000 0.250000 0.000000
-0.025000 0.275000 0.000000
-0.025000 0.300000 0.000000
-0.025000 0.325000 0.000000
-0.025000 0.350000 0.000000
-0.025000 0.375000 0.000000
-0.025000 0.400000 0.000000
-0.025000 0.425000 0.000000
-0.025000 0.450000 0.000000
-0.025000 0.475000 0.000000
-0.025000 0.500000 0.000000
-0.025000 0.525000 0.000000
-0.025000 0.550000 0.000000
-0.025000 0.575000 0.000000
-0.025000 0.600000 0.000000
-0.025000 0.625000 0.000000
-0.025000 0.650000 0.000000
-0.025000 0.675000 0.000000
0.000000 -0.075000 0.000000
0.000000 -0.050000 0.000000
0.000000 -0.025000 0.000000
0.000000 0.000000 0.000000
0.000000 0.025000 0.000000
0.000000 0.050000 0.000000
0.000000 0.075000 0.000000
0.000000 0.100000 0.000000
0.000000 0.125000 0.000000
0.000000 0.150000 0.000000
0.000000 0.175000 0.000000
0.000000 0.200000 0.000000
0.000000 0.225000 0.000000
0.000000 0.250000 0.000000
0.000000 0.275000 0.000000
0.000000 0.300000 0.000000
0.000000 0.325000 0.000000
0.000000 0.350000 0.000000
0.000000 0.375000 0.000000
0.000000 0.400000 0.000000
0.000000 0.425000 0.000000
0.000000 0.450000 0.000000
0.000000 0.475000 0.000000
0.000000 0.500000 0.000000
0.000000 0.525000 0.000000
0.000000 0.550000 0.000000
0.000000 0.575000 0.000000
0.000000 0.600000 0.000000
0.000000 0.625000 0.000000
0.000000 0.650000 0.000000
0.000000 0.675000 0.000000
0.025000 -0.075000 0.000000
0.025000 -0.050000 0.000000
0.025000 -0.025000 0.000000
0.025000 0.000000 0.000000
0.025000 0.025000 0.000000
0.025000 0.050000 0.000000
0.025000 0.075000 0.000000
0.025000 0.100000 0.000000
0.025000 0.125000 0.000000
0.025000 0.150000 0.000000
0.025000 0.175000 0.000000
0.025000 0.200000 0.000000
0.025000 0.225000 0.000000
0.025000 0.250000 0.000000
0.025000 0.275000 0.000000
0.025000 0.300000 0.000000
0.025000 0.325000 0.000000
0.025000 0.350000 0.000000
0.025000 0.375000 0.000000
0.025000 0.400000 0.000000
0.025000 0.425000 0.000000
0.025000 0.450000 0.000000
0.025000 0.475000 0.000000
0.025000 0.500000 0.000000
0.025000 0.525000 0.000000
0.025000 0.550000 0.000000
0.025000 0.575000 0.000000
0.025000 0.600000 0.000000
0.025000 0.625000 0.000000
0.025000 0.650000 0.000000
0.025000 0.675000 0.000000
0.050000 -0.075000 0.000000
0.050000 -0.050000 0.000000
0.050000 -0.025000 0.000000
0.050000 0.000000 0.000000
0.050000 0.025000 0.000000
0.050000 0.050000 0.000000
0.050000 0.075000 0.000000
0.050000 0.100000 0.000000
0.050000 0.125000 0.000000
0.050000 0.150000 0.000000
0.050000 0.175000 0.000000
0.050000 0.200000 0.000000
0.050000 0.225000 0.000000
0.050000 0.250000 0.000000
0.050000 0.275000 0.000000
0.050000 0.300000 0.000000
0.050000 0.325000 0.000000
0.050000 0.350000 0.000000
0.050000 0.375000 0.000000
0.050000 0.400000 0.000000
0.050000 0.425000 0.000000
0.050000 0.450000 0.000000
0.050000 0.475000 0.000000
0.050000 0.500000 0.000000
0.050000 0.525000 0.000000
0.050000 0.550000 0.000000
0.050000 0.575000 0.000000
0.050000 0.600000 0.000000
0.050000 0.625000 0.000000
0.050000 0.650000 0.000000
0.050000 0.675000 0.000000
0.075000 -0.075000 0.000000
0.075000 -0.050000 0.000000
0.075000 -0.025000 0.000000
0.075000 0.000000 0.000000
0.075000 0.025000 0.000000
0.075000 0.050000 0.000000
0.075000 0.075000 0.000000
0.075000 0.100000 0.000000
0.075000 0.125000 0.000000
0.075000 0.150000 0.000000
0.075000 0.175000 0.000000
0.075000 0.200000 0.000000
0.075000 0.225000 0.000000
0.075000 0.250000 0.000000
0.075000 0.275000 0.000000
0.075000 0.300000 0.000000
0.075000 0.325000 0.000000
0.075000 0.350000 0.000000
0.075000 0.375000 0.000000
0.075000 0.400000 0.000000
0.075000 0.425000 0.000000
0.075000 0.450000 0.000000
0.075000 0.475000 0.000000
0.075000 0.500000 0.000000
0.075000 0.525000 0.000000
0.075000 0.550000 0.000000
0.075000 0.575000 0.000000
0.075000 0.600000 0.000000
0.075000 0.625000 0.000000
0.075000 0.650000 0.000000
0.075000 0.675000 0.000000
0.100000 -0.075000 0.000000
0.100000 -0.050000 0.000000
0.100000 -0.025000 0.000000
0.100000 0.000000 0.000000
0.100000 0.025000 0.000000
0.100000 0.050000 0.000000
0.100000 0.075000 0.000000
0.100000 0.100000 0.000000
0.100000 0.125000 0.000000
0.100000 0.150000 0.000000
0.100000 0.175000 0.000000
0.100000 0.200000 0.000000
0.100000 0.225000 0.000000
0.100000 0.250000 0.000000
0.100000 0.275000 0.000000
0.100000 0.300000 0.000000
0.100000 0.325000 0.000000
0.100000 0.350000 0.000000
0.100000 0.375000 0.000000
0.100000 0.400000 0.000000
0.100000 0.425000 0.000000
0.100000 0.450000 0.000000
0.100000 0.475000 0.000000
0.100000 0.500000 0.000000
0.100000 0.525000 0.000000
0.100000 0.550000 0.000000
0.100000 0.575000 0.000000
0.100000 0.600000 0.000000
0.100000 0.625000 0.000000
0.100000 0.650000 0.000000
0.100000 0.675000 0.000000
0.125000 -0.075000 0.000000
0.125000 -0.050000 0.000000
0.125000 -0.025000 0.000000
0.125000 0.000000 0.000000
0.125000 0.025000 0.000000
0.125000 0.050000 0.000000
0.125000 0.075000 0.000000
0.125000 0.100000 0.000000
0.125000 0.125000 0.000000
0.125000 0.150000 0.000000
0.125000 0.175000 0.000000
0.125000 0.200000 0.000000
0.125000 0.225000 0.000000
0.125000 0.250000 0.000000
0.125000 0.275000 0.000000
0.125000 0.300000 0.000000
0.125000 0.325000 0.000000
0.125000 0.350000 0.000000
0.125000 0.375000 0.000000
0.125000 0.400000 0.000000
0.125000 0.425000 0.000000
0.125000 0.450000 0.000000
0.125000 0.475000 0.000000
0.125000 0.500000 0.000000
0.125000 0.525000 0.000000
0.125000 0.550000 0.000000
0.125000 0.575000 0.000000
0.125000 0.600000 0.000000
0.125000 0.625000 0.000000
0.125000 0.650000 0.000000
0.125000 0.675000 0.000000
0.150000 -0.075000 0.000000
0.150000 -0.050000 0.000000
0.150000 -0.025000 0.000000
0.150000 0.000000 0.000000
0.150000 0.025000 0.000000
0.150000 0.050000 0.000000
0.150000 0.075000 0.000000
0.150000 0.100000 0.000000
0.150000 0.125000 0.000000
0.150000 0.150000 0.000000
0.150000 0.175000 0.000000
0.150000 0.200000 0.000000
0.150000 0.225000 0.000000
0.150000 0.250000 0.000000
0.150000 0.275000 0.000000
0.150000 0.300000 0.000000
0.150000 0.325000 0.000000
0.150000 0.350000 0.000000
0.150000 0.375000 0.000000
0.150000 0.400000 0.000000
0.150000 0.425000 0.000000
0.150000 0.450000 0.000000
0.150000 0.475000 0.000000
0.150000 0.500000 0.000000
0.150000 0.525000 0.000000
0.150000 0.550000 0.000000
0.150000 0.575000 0.000000
0.150000 0.600000 0.000000
0.150000 0.625000 0.000000
0.150000 0.650000 0.000000
0.150000 0.675000 0.000000
0.175000 -0.075000 0.000000
0.175000 -0.050000 0.000000
0.175000 -0.025000 0.000000
0.175000 0.000000 0.000000
0.175000 0.025000 0.000000
0.175000 0.050000 0.000000
0.175000 0.075000 0.000000
0.175000 0.100000 0.000000
0.175000 0.125000 0.000000
0.175000 0.150000 0.000000
0.175000 0.175000 0.000000
0.175000 0.200000 0.000000
0.175000 0.225000 0.000000
0.175000 0.250000 0.000000
0.175000 0.275000 0.000000
0.175000 0.300000 0.000000
0.175000 0.325000 0.000000
0.175000 0.350000 0.000000
0.175000 0.375000 0.000000
0.175000 0.400000 0.000000
0.175000 0.425000 0.000000
0.175000 0.450000 0.000000
0.175000 0.475000 0.000000
0.175000 0.500000 0.000000
0.175000 0.525000 0.000000
0.175000 0.550000 0.000000
0.175000 0.575000 0.000000
0.175000 0.600000 0.000000
0.175000 0.625000 0.000000
0.175000 0.650000 0.000000
0.175000 0.675000 0.000000
0.200000 -0.075000 0.000000
0.200000 -0.050000 0.000000
0.200000 -0.025000 0.000000
0.200000 0.000000 0.000000
0.200000 0.025000 0.000000
0.200000 0.050000 0.000000
0.200000 0.075000 0.000000
0.200000 0.100000 0.000000
0.200000 0.125000 0.000000
0.200000 0.150000 0.000000
0.200000 0.175000 0.000000
0.200000 0.200000 0.000000
0.200000 0.225000 0.000000
0.200000 0.250000 0.000000
[...]
<PointData>
<DataArray NumberOfComponents='1' type='Int32' Name='ParticleType' format='ascii'>
4
4
4
4
4
4
4
4
4
4
4
4
4
4
4
4
4
4
4
4
4
4
4
4
4
4
4
4
2
2
2
4
4
4
4
4
4
4
4
4
4
4
4
4
4
4
4
4
4
4
4
4
4
4
4
4
4
4
4
2
2
2
4
4
3
3
3
3
3
3
3
3
3
3
3
3
3
3
3
3
3
3
3
3
3
3
3
3
3
3
2
2
2
4
4
3
3
3
3
3
3
3
3
3
3
3
3
3
3
3
3
3
3
3
3
3
3
3
3
3
3
2
2
2
4
4
3
3
0
0
0
0
0
0
0
0
0
0
0
0
0
0
0
0
0
0
0
0
0
0
1
1
2
2
2
4
4
3
3
0
0
0
0
0
0
0
0
0
0
0
0
0
0
0
0
0
0
0
0
0
0
1
1
2
2
2
4
4
3
3
0
0
0
0
0
0
0
0
0
0
0
0
0
0
0
0
0
0
0
0
0
0
1
1
2
2
2
4
4
3
3
0
0
0
0
0
0
0
0
0
0
0
0
0
0
0
0
0
0
0
0
0
0
0
1
2
2
2
4
4
3
3
0
0
0
0
0
0
0
0
0
0
0
0
0
0
0
0
0
0
0
0
0
0
0
1
2
2
2
4
4
3
3
0
0
0
0
0
0
0
0
0
0
0
0
0
0
0
0
0
0
0
0
0
0
0
1
2
2
2
4
4
3
3
0
0
0
0
0
0
0
0
0
0
0
0
0
0
0
0
0
0
0
0
0
0
0
1
2
2
2
4
4
3
3
0
0
0
0
0
0
0
0
0
0
0
0
0
0
0
0
0
0
0
0
0
0
0
1
2
2
2
4
4
3
3
0
0
0
0
0
0
0
0
0
0
0
0
0
0
0
0
0
0
0
0
0
0
0
1
2
2
2
4
4
3
3
0
0
0
0
0
0
0
0
0
0
0
0
0
0
0
0
0
0
0
0
0
0
0
1
2
2
2
4
4
3
3
0
0
0
0
0
0
0
0
0
0
0
0
0
0
0
0
0
0
0
0
0
0
0
1
2
2
2
4
4
3
3
0
0
0
0
0
0
0
0
0
0
0
0
0
0
0
0
0
0
0
0
0
0
0
1
2
2
2
4
4
3
3
0
0
0
0
0
0
0
0
0
0
0
0
0
0
0
0
0
0
0
0
0
0
0
1
2
2
2
4
4
3
3
0
0
0
0
0
0
0
0
0
0
0
0
0
0
0
0
0
0
0
0
0
0
0
1
2
2
2
4
4
3
3
0
0
0
0
0
0
0
0
0
0
0
0
0
0
0
0
0
0
0
0
0
0
0
1
2
2
2
4
4
3
3
0
0
0
0
0
0
0
0
0
0
0
0
0
0
0
0
0
0
0
0
0
0
0
1
2
2
2
4
4
3
3
0
0
0
0
0
0
0
0
0
0
0
0
0
0
0
0
0
0
0
0
0
0
0
1
2
2
2
4
4
3
3
0
0
0
0
0
0
0
0
0
0
0
0
0
0
0
0
0
0
0
0
0
0
0
1
2
2
2
4
4
3
3
0
0
0
0
0
0
0
0
0
0
0
0
0
0
0
0
0
0
0
0
0
0
0
1
2
2
2
4
4
3
3
0
0
0
0
0
0
0
0
0
0
0
0
0
0
0
0
0
0
0
0
0
0
0
1
2
2
2
4
4
3
3
0
0
0
0
0
0
0
0
0
0
0
0
0
0
0
0
0
0
0
0
0
0
0
1
2
2
2
4
4
3
3
0
0
0
0
0
0
0
0
0
0
0
0
0
0
0
0
0
0
0
0
0
0
0
1
2
2
2
4
4
3
3
0
0
0
0
0
0
0
0
0
0
0
0
0
0
0
0
0
0
0
0
0
0
0
1
2
2
2
4
4
3
3
0
0
0
0
0
0
0
0
0
0
0
0
0
0
0
0
0
0
0
0
0
0
0
1
2
2
2
4
4
3
3
0
0
0
0
0
0
0
0
0
0
0
0
0
0
0
0
0
0
0
0
0
0
0
1
2
2
2
4
4
3
3
0
0
0
0
0
0
0
0
0
0
0
0
0
0
0
0
0
0
0
0
0
0
0
1
2
2
2
4
4
3
3
0
0
0
0
0
0
0
0
0
0
0
0
0
0
0
0
0
0
0
0
0
0
0
1
2
2
2
4
4
3
3
0
0
0
0
0
0
0
0
0
0
0
0
0
0
0
0
0
0
0
0
0
0
0
1
2
2
2
4
4
3
3
0
0
0
0
0
0
0
0
0
0
0
0
0
0
0
0
0
0
0
0
0
0
0
1
2
2
2
4
4
3
3
0
0
0
0
0
0
0
0
0
0
0
0
0
0
0
0
0
0
0
0
0
0
0
1
2
2
2
4
4
3
3
0
0
0
0
0
0
0
0
0
0
0
0
0
0
0
0
0
0
0
0
0
0
0
1
2
2
2
4
4
3
3
0
0
0
0
0
0
0
0
0
0
0
0
0
0
0
0
0
0
0
0
0
0
0
1
2
2
2
4
4
3
3
0
0
0
0
0
0
0
0
0
0
0
0
0
0
0
0
0
0
0
0
0
0
0
1
2
2
2
4
4
3
3
0
0
0
0
0
0
0
0
0
0
0
0
0
0
0
0
0
0
0
0
0
0
0
1
2
2
2
4
4
3
3
0
0
0
0
0
0
0
0
0
0
0
0
0
0
0
0
0
0
0
0
0
0
0
1
2
2
2
4
4
3
3
0
0
0
0
0
0
0
0
0
0
0
0
0
0
0
0
0
0
0
0
0
0
0
1
2
2
2
4
4
3
3
0
0
0
0
0
0
0
0
0
0
0
0
0
0
0
0
0
0
0
0
0
0
0
1
2
2
2
4
4
3
3
0
0
0
0
0
0
0
0
0
0
0
0
0
0
0
0
0
0
0
0
0
0
1
1
2
2
2
4
4
3
3
0
0
0
0
0
0
0
0
0
0
0
0
0
0
0
0
0
0
0
0
0
0
1
1
2
2
2
4
4
3
3
0
0
0
0
0
0
0
0
0
0
0
0
0
0
0
0
0
0
0
0
0
0
1
1
2
2
2
4
4
3
3
3
3
3
3
3
3
3
3
3
3
3
3
3
3
3
3
3
3
3
3
3
3
3
3
2
2
2
4
4
3
3
3
3
3
3
3
3
3
3
3
3
3
3
3
3
3
3
3
3
3
3
3
3
3
3
2
2
2
4
4
4
4
4
4
4
4
4
4
4
4
4
4
4
4
4
4
4
4
4
4
4
4
4
4
4
4
2
2
2
4
4
4
4
4
4
4
4
4
4
4
4
4
4
4
4
4
4
4
4
4
4
4
4
4
4
4
4
2
2
2
</DataArray>
<DataArray NumberOfComponents='1' type='Float32' Name='Temperature' format='ascii'>
0.000000
0.000000
0.000000
0.000000
0.000000
0.000000
0.000000
0.000000
0.000000
0.000000
0.000000
0.000000
0.000000
0.000000
0.000000
0.000000
0.000000
0.000000
0.000000
0.000000
0.000000
0.000000
0.000000
0.000000
0.000000
0.000000
0.000000
0.000000
-5.000000
-5.000000
-5.000000
0.000000
0.000000
0.000000
0.000000
0.000000
0.000000
0.000000
0.000000
0.000000
0.000000
0.000000
0.000000
0.000000
0.000000
0.000000
0.000000
0.000000
0.000000
0.000000
0.000000
0.000000
0.000000
0.000000
0.000000
0.000000
0.000000
0.000000
0.000000
-5.000000
-5.000000
-5.000000
0.000000
0.000000
0.000000
0.000000
0.000000
0.000000
0.000000
0.000000
0.000000
0.000000
0.000000
0.000000
0.000000
0.000000
0.000000
0.000000
0.000000
0.000000
0.000000
0.000000
0.000000
0.000000
0.000000
0.000000
0.000000
0.000000
0.000000
0.000000
-5.000000
-5.000000
-5.000000
0.000000
0.000000
0.000000
0.000000
0.000000
0.000000
0.000000
0.000000
0.000000
0.000000
0.000000
0.000000
0.000000
0.000000
0.000000
0.000000
0.000000
0.000000
0.000000
0.000000
0.000000
0.000000
0.000000
0.000000
0.000000
0.000000
0.000000
0.000000
-5.000000
-5.000000
-5.000000
0.000000
0.000000
0.000000
0.000000
0.257621
0.450832
0.630276
0.780392
0.901624
0.995504
1.065841
1.117033
1.153164
1.177437
1.191986
1.197903
1.195314
1.183400
1.160294
1.122891
1.066697
0.985899
0.873800
0.724333
0.531640
0.303854
0.009449
0.001574
-5.000000
-5.000000
-5.000000
0.000000
0.000000
0.000000
0.000000
0.451928
0.790746
1.106567
1.371819
1.587397
1.755858
1.883641
1.978103
2.045979
2.092439
2.120815
2.132709
2.128180
2.105802
2.062497
1.993185
1.890484
1.744804
1.545056
1.281239
0.942914
0.548648
0.009551
0.002192
-5.000000
-5.000000
-5.000000
0.000000
0.000000
0.000000
0.000000
0.634702
1.111728
1.558103
1.935635
2.245681
2.491602
2.681881
2.826004
2.932390
3.007196
3.054087
3.074532
3.068204
3.033127
2.965453
2.858930
2.704382
2.489733
2.200889
1.825167
1.348878
0.797827
0.009965
0.002923
-5.000000
-5.000000
-5.000000
0.000000
0.000000
0.000000
0.000000
0.792094
1.389526
1.952028
2.432872
2.834031
3.159302
3.418195
3.620876
3.775761
3.888289
3.960956
3.994007
3.986183
3.935068
3.836815
3.685377
3.471644
3.183200
2.805172
2.324225
1.725774
1.041043
0.092761
0.003166
-5.000000
-5.000000
-5.000000
0.000000
0.000000
0.000000
0.000000
0.926815
1.629461
2.296899
2.876136
3.370050
3.782491
4.122774
4.399886
4.619984
4.785435
4.895442
4.947436
4.938418
4.865630
4.726258
4.516303
4.229154
3.854757
3.380092
2.793261
2.081099
1.277719
0.217955
0.003458
-5.000000
-5.000000
-5.000000
0.000000
0.000000
0.000000
0.000000
1.043196
1.839661
2.605382
3.283447
3.878126
4.392941
4.835575
5.211522
5.521753
5.762427
5.926573
6.006622
5.996693
5.893780
5.697435
5.408116
5.024829
4.543253
3.955321
3.252839
2.425385
1.508373
0.343157
0.004101
-5.000000
-5.000000
-5.000000
0.000000
0.000000
0.000000
0.000000
1.148114
2.032763
2.896522
3.680875
4.392193
5.033326
5.608710
6.117573
6.552077
6.898208
7.139122
7.259414
7.248814
7.104140
6.828978
6.431238
5.919413
5.299008
4.570548
3.732095
2.776957
1.740829
0.468844
0.004317
-5.000000
-5.000000
-5.000000
0.000000
0.000000
0.000000
0.000000
1.248833
2.222005
3.190061
4.095098
4.946523
5.746231
6.493656
7.178596
7.780152
8.269403
8.615166
8.790757
8.779669
8.578602
8.197138
7.654201
6.972333
6.171654
5.265476
4.261021
3.156519
1.987318
0.600503
0.004124
-5.000000
-5.000000
-5.000000
0.000000
0.000000
0.000000
0.000000
1.351480
2.418425
3.502177
4.547527
5.568022
6.564391
7.529274
8.439650
9.256909
9.931976
10.414355
10.662233
10.650784
10.376633
9.857516
9.127301
8.227611
7.198432
6.070430
4.863141
3.581089
2.258801
0.743872
0.004730
-5.000000
-5.000000
-5.000000
0.000000
0.000000
0.000000
0.000000
1.459862
2.628625
3.842007
5.049342
6.269478
7.501850
8.730615
9.916623
10.998935
11.903066
12.554206
12.891532
12.879803
12.515596
11.826953
10.866613
9.700309
8.393137
6.997651
5.548818
4.058827
2.560965
0.902100
0.004610
-5.000000
-5.000000
-5.000000
0.000000
0.000000
0.000000
0.000000
1.574881
2.853643
4.209791
5.598718
7.045605
8.548538
10.081793
11.587264
12.977691
14.148609
14.996536
15.438258
15.426296
14.957196
14.071167
12.843225
11.367587
9.739009
8.035858
6.311206
4.586082
2.892150
1.074597
0.005055
-5.000000
-5.000000
-5.000000
0.000000
0.000000
0.000000
0.000000
1.694592
3.089030
4.596964
6.180870
7.872985
9.670034
11.535478
13.390344
15.118318
16.581819
17.645700
18.202044
18.189877
17.605726
16.503245
14.982055
13.167857
11.188191
9.149920
7.126046
5.147219
3.243211
1.256862
0.005141
-5.000000
-5.000000
-5.000000
0.000000
0.000000
0.000000
0.000000
1.814843
3.326103
4.988173
6.771039
8.714255
10.813187
13.020150
15.234621
17.310262
19.075256
20.361732
21.036247
21.023897
20.321195
18.995689
17.172441
15.009698
12.668902
10.286368
7.955672
5.717359
3.599211
1.441406
0.004900
-5.000000
-5.000000
-5.000000
0.000000
0.000000
0.000000
0.000000
1.930328
3.554002
5.364684
7.339671
9.525572
11.916394
14.453628
17.015870
19.427728
21.484286
22.986029
23.774834
23.762323
22.945002
21.403860
19.288560
16.788826
14.098878
11.383528
8.756279
6.267278
3.942414
1.619276
0.005665
-5.000000
-5.000000
-5.000000
0.000000
0.000000
0.000000
0.000000
2.035739
3.761999
5.708228
7.858310
10.265174
12.921491
15.758837
18.636830
21.353763
23.674771
25.371723
26.264165
26.251521
25.330291
23.593631
21.213466
18.407983
15.401054
12.383296
9.486312
6.769038
4.255725
1.781702
0.005729
-5.000000
-5.000000
-5.000000
0.000000
0.000000
0.000000
0.000000
2.126739
3.941404
6.004188
8.304470
10.900451
13.783525
16.876730
20.023524
22.999887
25.545620
27.408393
28.388856
28.376111
27.366648
25.463922
22.858691
19.793207
16.516419
13.240814
10.113397
7.200665
4.525575
1.921718
0.006059
-5.000000
-5.000000
-5.000000
0.000000
0.000000
0.000000
0.000000
2.200486
4.086604
6.243293
8.664173
11.411531
14.475612
17.772580
21.133045
24.315346
27.039306
29.033519
30.083741
30.070923
28.991549
26.957200
24.173476
20.901594
17.410272
13.929274
10.617842
7.548556
4.743447
2.034891
0.005633
-5.000000
-5.000000
-5.000000
0.000000
0.000000
0.000000
0.000000
2.255666
4.195087
6.421574
8.931756
11.790827
14.988092
18.434616
21.951595
25.284525
28.138715
30.228917
31.330068
31.317203
30.186799
28.056336
25.142188
21.719331
18.070839
14.439051
10.992157
7.807256
4.905771
2.119356
0.006286
-5.000000
-5.000000
-5.000000
0.000000
0.000000
0.000000
0.000000
2.292104
4.266625
6.538919
9.107504
12.039408
15.323270
18.866814
22.485147
25.915487
28.853819
31.006004
32.140035
32.127143
30.963800
28.771275
25.772860
22.252364
18.502080
14.772444
11.237433
7.977102
5.012531
2.174977
0.006161
-5.000000
-5.000000
-5.000000
0.000000
0.000000
0.000000
0.000000
2.310170
4.302053
6.596950
9.194275
12.161937
15.488226
19.079225
22.747066
26.224940
29.204303
31.386701
32.536756
32.523852
31.344459
29.121684
26.082176
22.514031
18.714019
14.936513
11.358315
8.060933
5.065292
2.202496
0.006286
-5.000000
-5.000000
-5.000000
0.000000
0.000000
0.000000
0.000000
2.310212
4.302128
6.597053
9.194398
12.162068
15.488353
19.079335
22.747145
26.224984
29.204312
31.386682
32.536720
32.523816
31.344439
29.121692
26.082219
22.514108
18.714125
14.936635
11.358438
8.061043
5.065376
2.202545
0.006287
-5.000000
-5.000000
-5.000000
0.000000
0.000000
0.000000
0.000000
2.292228
4.266840
6.539214
9.107850
12.039770
15.323604
18.867076
22.485302
25.915516
28.853725
31.005813
32.139790
32.126898
30.963609
28.771180
25.772886
22.252513
18.502332
14.772761
11.237769
7.977410
5.012769
2.175120
0.006166
-5.000000
-5.000000
-5.000000
0.000000
0.000000
0.000000
0.000000
2.255861
4.195422
6.422023
8.932266
11.791329
14.988503
18.434855
21.951599
25.284263
28.138198
30.228200
31.329242
31.316376
30.186081
28.055815
25.141920
21.719326
18.071062
14.439435
10.992616
7.807703
4.906129
2.119577
0.006298
-5.000000
-5.000000
-5.000000
0.000000
0.000000
0.000000
0.000000
2.200736
4.087028
6.243843
8.664764
11.412049
14.475925
17.772562
21.132597
24.314426
27.037942
29.031811
30.081844
30.069025
28.989838
26.955832
24.172549
20.901133
17.410232
13.929552
10.618303
7.549063
4.743878
2.035166
0.005656
-5.000000
-5.000000
-5.000000
0.000000
0.000000
0.000000
0.000000
2.127029
3.941884
6.004787
8.305061
10.900869
13.783581
16.876242
20.022356
22.997986
25.543038
27.405285
28.385463
28.372716
27.363537
25.461334
22.856781
19.792023
16.515904
13.240825
10.113745
7.201154
4.526030
1.922023
0.006097
-5.000000
-5.000000
-5.000000
0.000000
0.000000
0.000000
0.000000
2.036055
3.762510
5.708837
7.858848
10.265422
12.921202
15.757773
18.634819
21.350742
23.670816
25.367052
26.259105
26.246461
25.325618
23.589671
21.210434
18.405953
15.399958
12.382954
9.486480
6.769459
4.256172
1.782020
0.005777
-5.000000
-5.000000
-5.000000
0.000000
0.000000
0.000000
0.000000
1.930660
3.554531
5.365288
7.340148
9.525657
11.915791
14.452054
17.013119
19.423732
21.479143
22.980009
23.768338
23.755826
22.938979
21.398711
19.284552
16.786053
14.097267
11.382866
8.756274
6.267625
3.942842
1.619599
0.005738
-5.000000
-5.000000
-5.000000
0.000000
0.000000
0.000000
0.000000
1.815190
3.326649
4.988787
6.771496
8.714265
10.812423
13.018305
15.231470
17.305731
19.069458
20.354964
21.028954
21.016602
20.314423
18.989883
17.167896
15.006522
12.667016
10.285540
7.955584
5.717675
3.599637
1.441736
0.004987
-5.000000
-5.000000
-5.000000
0.000000
0.000000
0.000000
0.000000
1.694954
3.089605
4.597620
6.181380
7.873060
9.669346
11.533718
13.387286
15.113887
16.576125
17.639040
18.194860
18.182691
17.599061
16.497542
14.977607
13.164771
11.186385
9.149162
7.126016
5.147581
3.243668
1.257209
0.005216
-5.000000
-5.000000
-5.000000
0.000000
0.000000
0.000000
0.000000
1.575263
2.854260
4.210524
5.599361
7.045892
8.548169
10.080481
11.584801
12.974003
14.143790
14.990850
15.432102
15.420138
14.951504
14.066337
12.839517
11.365091
9.737646
8.035411
6.311380
4.586568
2.892675
1.074974
0.005122
-5.000000
-5.000000
-5.000000
0.000000
0.000000
0.000000
0.000000
1.460263
2.629289
3.842838
5.050169
6.270078
7.501971
8.730014
9.915119
10.996459
11.899686
12.550129
12.887075
12.875343
12.511510
11.823558
10.864111
9.698765
8.392476
6.997686
5.549296
4.059489
2.561581
0.902514
0.004675
-5.000000
-5.000000
-5.000000
0.000000
0.000000
0.000000
0.000000
1.351893
2.419127
3.503100
4.548541
5.568958
6.565053
7.529473
8.439240
9.255825
9.930255
10.412139
10.659745
10.648293
10.374406
9.855776
9.126185
8.227153
7.198562
6.070996
4.863946
3.581932
2.259505
0.744321
0.004770
-5.000000
-5.000000
-5.000000
0.000000
0.000000
0.000000
0.000000
1.249245
2.222720
3.191038
4.096249
4.947733
5.747361
6.494568
7.179178
7.780346
8.269217
8.614678
8.790101
8.779009
8.578100
8.196926
7.654354
6.972857
6.172485
5.266498
4.262092
3.157497
1.988079
0.600973
0.004174
-5.000000
-5.000000
-5.000000
0.000000
0.000000
0.000000
0.000000
1.148501
2.033447
2.897488
3.682071
4.393548
5.034751
5.610112
6.118871
6.553218
6.899179
7.139948
7.260156
7.249551
7.104949
6.829916
6.432330
5.920642
5.300317
4.571854
3.733303
2.777980
1.741595
0.469315
0.004385
-5.000000
-5.000000
-5.000000
0.000000
0.000000
0.000000
0.000000
1.043531
1.840263
2.606255
3.284569
3.879462
4.394442
4.837183
5.213180
5.523413
5.764062
5.928174
6.008199
5.998264
5.895360
5.699032
5.409718
5.026405
4.544755
3.956692
3.254024
2.426341
1.509075
0.343603
0.004233
-5.000000
-5.000000
-5.000000
0.000000
0.000000
0.000000
0.000000
0.927071
1.629929
2.297598
2.877068
3.371207
3.783853
4.124308
4.401554
4.621746
4.787257
4.897295
4.949299
4.940273
4.867458
4.728034
4.517998
4.230731
3.856175
3.381316
2.794266
2.081876
1.278281
0.218329
0.003778
-5.000000
-5.000000
-5.000000
0.000000
0.000000
0.000000
0.000000
0.792250
1.389824
1.952494
2.433527
2.834886
3.160358
3.419438
3.622281
3.777296
3.889920
3.962648
3.995724
3.987892
3.936732
3.838398
3.686841
3.472953
3.184324
2.806092
2.324936
1.726291
1.041400
0.093005
0.003719
-5.000000
-5.000000
-5.000000
0.000000
0.000000
0.000000
0.000000
0.634755
1.111847
1.558318
1.935980
2.246181
2.492270
2.682716
2.826991
2.933507
3.008412
3.055368
3.075842
3.069504
3.034380
2.966621
2.859977
2.705277
2.490455
2.201432
1.825543
1.349118
0.797966
0.009960
0.002668
-5.000000
-5.000000
-5.000000
0.000000
0.000000
0.000000
0.000000
0.451903
0.790723
1.106578
1.371901
1.587579
1.756159
1.884068
1.978650
2.046629
2.093170
2.121600
2.133518
2.128980
2.106564
2.063187
1.993776
1.890952
1.745138
1.545259
1.281330
0.942936
0.548619
0.009800
0.002271
-5.000000
-5.000000
-5.000000
0.000000
0.000000
0.000000
0.000000
0.257562
0.450745
0.630183
0.780324
0.901607
0.995554
1.065967
1.117233
1.153429
1.177753
1.192337
1.198269
1.195675
1.183735
1.160583
1.123116
1.066844
0.985964
0.873788
0.724265
0.531551
0.303742
0.009507
-0.000764
-5.000000
-5.000000
-5.000000
0.000000
0.000000
0.000000
0.000000
0.000000
0.000000
0.000000
0.000000
0.000000
0.000000
0.000000
0.000000
0.000000
0.000000
0.000000
0.000000
0.000000
0.000000
0.000000
0.000000
0.000000
0.000000
0.000000
0.000000
0.000000
0.000000
0.000000
0.000000
-5.000000
-5.000000
-5.000000
0.000000
0.000000
0.000000
0.000000
0.000000
0.000000
0.000000
0.000000
0.000000
0.000000
0.000000
0.000000
0.000000
0.000000
0.000000
0.000000
0.000000
0.000000
0.000000
0.000000
0.000000
0.000000
0.000000
0.000000
0.000000
0.000000
0.000000
0.000000
-5.000000
-5.000000
-5.000000
0.000000
0.000000
0.000000
0.000000
0.000000
0.000000
0.000000
0.000000
0.000000
0.000000
0.000000
0.000000
0.000000
0.000000
0.000000
0.000000
0.000000
0.000000
0.000000
0.000000
0.000000
0.000000
0.000000
0.000000
0.000000
0.000000
0.000000
0.000000
-5.000000
-5.000000
-5.000000
0.000000
0.000000
0.000000
0.000000
0.000000
0.000000
0.000000
0.000000
0.000000
0.000000
0.000000
0.000000
0.000000
0.000000
0.000000
0.000000
0.000000
0.000000
0.000000
0.000000
0.000000
0.000000
0.000000
0.000000
0.000000
0.000000
0.000000
0.000000
-5.000000
-5.000000
-5.000000
</DataArray>
</PointData>
<Cells>
<DataArray type='Int32' Name='connectivity' format='ascii'>
0
1
2
3
4
5
6
7
8
9
10
11
12
13
14
15
16
17
18
19
20
21
22
23
24
25
26
27
28
29
30
31
32
33
34
35
36
37
38
39
40
41
42
43
44
45
46
47
48
49
50
51
52
53
54
55
56
57
58
59
60
61
62
63
64
65
66
67
68
69
70
71
72
73
74
75
76
77
78
79
80
81
82
83
84
85
86
87
88
89
90
91
92
93
94
95
96
97
98
99
100
101
102
103
104
105
106
107
108
109
110
111
112
113
114
115
116
117
118
119
120
121
122
123
124
125
126
127
128
129
130
131
132
133
134
135
136
137
138
139
140
141
142
143
144
145
146
147
148
149
150
151
152
153
154
155
156
157
158
159
160
161
162
163
164
165
166
167
168
169
170
171
172
173
174
175
176
177
178
179
180
181
182
183
184
185
186
187
188
189
190
191
192
193
194
195
196
197
198
199
200
201
202
203
204
205
206
207
208
209
210
211
212
213
214
215
216
217
218
219
220
221
222
223
224
225
226
227
228
229
230
231
232
233
234
235
236
237
238
239
240
241
242
243
244
245
246
247
248
249
250
251
252
253
254
255
256
257
258
259
260
261
262
263
264
265
266
267
268
269
270
271
272
273
274
275
276
277
278
279
280
281
282
283
284
285
286
287
288
289
290
291
292
293
294
295
296
297
298
299
300
301
302
303
304
305
306
307
308
309
310
311
312
313
314
315
316
317
318
319
320
321
322
323
324
325
326
327
328
329
330
331
332
333
334
335
336
337
338
339
340
341
342
343
344
345
346
347
348
349
350
351
352
353
354
355
356
357
358
359
360
361
362
363
364
365
366
367
368
369
370
371
372
373
374
375
376
377
378
379
380
381
382
383
384
385
386
387
388
389
390
391
392
393
394
395
396
397
398
399
400
401
402
403
404
405
406
407
408
409
410
411
412
413
414
415
416
417
418
419
420
421
422
423
424
425
426
427
428
429
430
431
432
433
434
435
436
437
438
439
440
441
442
443
444
445
446
447
448
449
450
451
452
453
454
455
456
457
458
459
460
461
462
463
464
465
466
467
468
469
470
471
472
473
474
475
476
477
478
479
480
481
482
483
484
485
486
487
488
489
490
491
492
493
494
495
496
497
498
499
500
501
502
503
504
505
506
507
508
509
510
511
512
513
514
515
516
517
518
519
520
521
522
523
524
525
526
527
528
529
530
531
532
533
534
535
536
537
538
539
540
541
542
543
544
545
546
547
548
549
550
551
552
553
554
555
556
557
558
559
560
561
562
563
564
565
566
567
568
569
570
571
572
573
574
575
576
577
578
579
580
581
582
583
584
585
586
587
588
589
590
591
592
593
594
595
596
597
598
599
600
601
602
603
604
605
606
607
608
609
610
611
612
613
614
615
616
617
618
619
620
621
622
623
624
625
626
627
628
629
630
631
632
633
634
635
636
637
638
639
640
641
642
643
644
645
646
647
648
649
650
651
652
653
654
655
656
657
658
659
660
661
662
663
664
665
666
667
668
669
670
671
672
673
674
675
676
677
678
679
680
681
682
683
684
685
686
687
688
689
690
691
692
693
694
695
696
697
698
699
700
701
702
703
704
705
706
707
708
709
710
711
712
713
714
715
716
717
718
719
720
721
722
723
724
725
726
727
728
729
730
731
732
733
734
735
736
737
738
739
740
741
742
743
744
745
746
747