<?xml version='1.0' encoding='UTF-8'?>
<VTKFile xmlns='VTK' byte_order='LittleEndian' version='0.1' type='UnstructuredGrid'>
<UnstructuredGrid>
<Piece NumberOfCells='1488' NumberOfPoints='1488'>
<Points>
<DataArray NumberOfComponents='3' type='Float32' Name='Position' format='ascii'>
-0.075000 -0.075000 0.000000
-0.075000 -0.050000 0.000000
-0.075000 -0.025000 0.000000
-0.075000 0.000000 0.000000
-0.075000 0.025000 0.000000
-0.075000 0.050000 0.000000
-0.075000 0.075000 0.000000
-0.075000 0.100000 0.000000
-0.075000 0.125000 0.000000
-0.075000 0.150000 0.000000
-0.075000 0.175000 0.000000
-0.075000 0.200000 0.000000
-0.075000 0.225000 0.000000
-0.075000 0.250000 0.000000
-0.075000 0.275000 0.000000
-0.075000 0.300000 0.000000
-0.075000 0.325000 0.000000
-0.075000 0.350000 0.000000
-0.075000 0.375000 0.000000
-0.075000 0.400000 0.000000
-0.075000 0.425000 0.000000
-0.075000 0.450000 0.000000
-0.075000 0.475000 0.000000
-0.075000 0.500000 0.000000
-0.075000 0.525000 0.000000
-0.075000 0.550000 0.000000
-0.075000 0.575000 0.000000
-0.075000 0.600000 0.000000
-0.075000 0.625000 0.000000
-0.075000 0.650000 0.000000
-0.075000 0.675000 0.000000
-0.050000 -0.075000 0.000000
-0.050000 -0.050000 0.000000
-0.050000 -0.025000 0.000000
-0.050000 0.000000 0.000000
-0.050000 0.025000 0.000000
-0.050000 0.050000 0.000000
-0.050000 0.075000 0.000000
-0.050000 0.100000 0.000000
-0.050000 0.125000 0.000000
-0.050000 0.150000 0.000000
-0.050000 0.175000 0.000000
-0.050000 0.200000 0.000000
-0.050000 0.225000 0.000000
-0.050000 0.250000 0.000000
-0.050000 0.275000 0.000000
-0.050000 0.300000 0.000000
-0.050000 0.325000 0.000000
-0.050000 0.350000 0.000000
-0.050000 0.375000 0.000000
-0.050000 0.400000 0.000000
-0.050000 0.425000 0.000000
-0.050000 0.450000 0.000000
-0.050000 0.475000 0.000000
-0.050000 0.500000 0.000000
-0.050000 0.525000 0.000000
-0.050000 0.550000 0.000000
-0.050000 0.575000 0.000000
-0.050000 0.600000 0.000000
-0.050000 0.625000 0.000000
-0.050000 0.650000 0.000000
-0.050000 0.675000 0.000000
-0.025000 -0.075000 0.000000
-0.025000 -0.050000 0.000000
-0.025000 -0.025000 0.000000
-0.025000 0.000000 0.000000
-0.025000 0.025000 0.000000
-0.025000 0.050000 0.000000
-0.025000 0.075000 0.000000
-0.025000 0.100000 0.000000
-0.025000 0.125000 0.000000
-0.025000 0.150000 0.000000
-0.025000 0.175000 0.000000
-0.025000 0.200000 0.000000
-0.025000 0.225000 0.000000
-0.025000 0.250000 0.000000
-0.025000 0.275000 0.000000
-0.025000 0.300000 0.000000
-0.025000 0.325000 0.000000
-0.025000 0.350000 0.000000
-0.025000 0.375000 0.000000
-0.025000 0.400000 0.000000
-0.025000 0.425000 0.000000
-0.025000 0.450000 0.000000
-0.025000 0.475000 0.000000
-0.025000 0.500000 0.000000
-0.025000 0.525000 0.000000
-0.025000 0.550000 0.000000
-0.025000 0.575000 0.000000
-0.025000 0.600000 0.000000
-0.025000 0.625000 0.000000
-0.025000 0.650000 0.000000
-0.025000 0.675000 0.000000
0.000000 -0.075000 0.000000
0.000000 -0.050000 0.000000
0.000000 -0.025000 0.000000
0.000000 0.000000 0.000000
0.000000 0.025000 0.000000
0.000000 0.050000 0.000000
0.000000 0.075000 0.000000
0.000000 0.100000 0.000000
0.000000 0.125000 0.000000
0.000000 0.150000 0.000000
0.000000 0.175000 0.000000
0.000000 0.200000 0.000000
0.000000 0.225000 0.000000
0.000000 0.250000 0.000000
0.000000 0.275000 0.000000
0.000000 0.300000 0.000000
0.000000 0.325000 0.000000
0.000000 0.350000 0.000000
0.000000 0.375000 0.000000
0.000000 0.400000 0.000000
0.000000 0.425000 0.000000
0.000000 0.450000 0.000000
0.000000 0.475000 0.000000
0.000000 0.500000 0.000000
0.000000 0.525000 0.000000
0.000000 0.550000 0.000000
0.000000 0.575000 0.000000
0.000000 0.600000 0.000000
0.000000 0.625000 0.000000
0.000000 0.650000 0.000000
0.000000 0.675000 0.000000
0.025000 -0.075000 0.000000
0.025000 -0.050000 0.000000
0.025000 -0.025000 0.000000
0.025000 0.000000 0.000000
0.025000 0.025000 0.000000
0.025000 0.050000 0.000000
0.025000 0.075000 0.000000
0.025000 0.100000 0.000000
0.025000 0.125000 0.000000
0.025000 0.150000 0.000000
0.025000 0.175000 0.000000
0.025000 0.200000 0.000000
0.025000 0.225000 0.000000
0.025000 0.250000 0.000000
0.025000 0.275000 0.000000
0.025000 0.300000 0.000000
0.025000 0.325000 0.000000
0.025000 0.350000 0.000000
0.025000 0.375000 0.000000
0.025000 0.400000 0.000000
0.025000 0.425000 0.000000
0.025000 0.450000 0.000000
0.025000 0.475000 0.000000
0.025000 0.500000 0.000000
0.025000 0.525000 0.000000
0.025000 0.550000 0.000000
0.025000 0.575000 0.000000
0.025000 0.600000 0.000000
0.025000 0.625000 0.000000
0.025000 0.650000 0.000000
0.025000 0.675000 0.000000
0.050000 -0.075000 0.000000
0.050000 -0.050000 0.000000
0.050000 -0.025000 0.000000
0.050000 0.000000 0.000000
0.050000 0.025000 0.000000
0.050000 0.050000 0.000000
0.050000 0.075000 0.000000
0.050000 0.100000 0.000000
0.050000 0.125000 0.000000
0.050000 0.150000 0.000000
0.050000 0.175000 0.000000
0.050000 0.200000 0.000000
0.050000 0.225000 0.000000
0.050000 0.250000 0.000000
0.050000 0.275000 0.000000
0.050000 0.300000 0.000000
0.050000 0.325000 0.000000
0.050000 0.350000 0.000000
0.050000 0.375000 0.000000
0.050000 0.400000 0.000000
0.050000 0.425000 0.000000
0.050000 0.450000 0.000000
0.050000 0.475000 0.000000
0.050000 0.500000 0.000000
0.050000 0.525000 0.000000
0.050000 0.550000 0.000000
0.050000 0.575000 0.000000
0.050000 0.600000 0.000000
0.050000 0.625000 0.000000
0.050000 0.650000 0.000000
0.050000 0.675000 0.000000
0.075000 -0.075000 0.000000
0.075000 -0.050000 0.000000
0.075000 -0.025000 0.000000
0.075000 0.000000 0.000000
0.075000 0.025000 0.000000
0.075000 0.050000 0.000000
0.075000 0.075000 0.000000
0.075000 0.100000 0.000000
0.075000 0.125000 0.000000
0.075000 0.150000 0.000000
0.075000 0.175000 0.000000
0.075000 0.200000 0.000000
0.075000 0.225000 0.000000
0.075000 0.250000 0.000000
0.075000 0.275000 0.000000
0.075000 0.300000 0.000000
0.075000 0.325000 0.000000
0.075000 0.350000 0.000000
0.075000 0.375000 0.000000
0.075000 0.400000 0.000000
0.075000 0.425000 0.000000
0.075000 0.450000 0.000000
0.075000 0.475000 0.000000
0.075000 0.500000 0.000000
0.075000 0.525000 0.000000
0.075000 0.550000 0.000000
0.075000 0.575000 0.000000
0.075000 0.600000 0.000000
0.075000 0.625000 0.000000
0.075000 0.650000 0.000000
0.075000 0.675000 0.000000
0.100000 -0.075000 0.000000
0.100000 -0.050000 0.000000
0.100000 -0.025000 0.000000
0.100000 0.000000 0.000000
0.100000 0.025000 0.000000
0.100000 0.050000 0.000000
0.100000 0.075000 0.000000
0.100000 0.100000 0.000000
0.100000 0.125000 0.000000
0.100000 0.150000 0.000000
0.100000 0.175000 0.000000
0.100000 0.200000 0.000000
0.100000 0.225000 0.000000
0.100000 0.250000 0.000000
0.100000 0.275000 0.000000
0.100000 0.300000 0.000000
0.100000 0.325000 0.000000
0.100000 0.350000 0.000000
0.100000 0.375000 0.000000
0.100000 0.400000 0.000000
0.100000 0.425000 0.000000
0.100000 0.450000 0.000000
0.100000 0.475000 0.000000
0.100000 0.500000 0.000000
0.100000 0.525000 0.000000
0.100000 0.550000 0.000000
0.100000 0.575000 0.000000
0.100000 0.600000 0.000000
0.100000 0.625000 0.000000
0.100000 0.650000 0.000000
0.100000 0.675000 0.000000
0.125000 -0.075000 0.000000
0.125000 -0.050000 0.000000
0.125000 -0.025000 0.000000
0.125000 0.000000 0.000000
0.125000 0.025000 0.000000
0.125000 0.050000 0.000000
0.125000 0.075000 0.000000
0.125000 0.100000 0.000000
0.125000 0.125000 0.000000
0.125000 0.150000 0.000000
0.125000 0.175000 0.000000
0.125000 0.200000 0.000000
0.125000 0.225000 0.000000
0.125000 0.250000 0.000000
0.125000 0.275000 0.000000
0.125000 0.300000 0.000000
0.125000 0.325000 0.000000
0.125000 0.350000 0.000000
0.125000 0.375000 0.000000
0.125000 0.400000 0.000000
0.125000 0.425000 0.000000
0.125000 0.450000 0.000000
0.125000 0.475000 0.000000
0.125000 0.500000 0.000000
0.125000 0.525000 0.000000
0.125000 0.550000 0.000000
0.125000 0.575000 0.000000
0.125000 0.600000 0.000000
0.125000 0.625000 0.000000
0.125000 0.650000 0.000000
0.125000 0.675000 0.000000
0.150000 -0.075000 0.000000
0.150000 -0.050000 0.000000
0.150000 -0.025000 0.000000
0.150000 0.000000 0.000000
0.150000 0.025000 0.000000
0.150000 0.050000 0.000000
0.150000 0.075000 0.000000
0.150000 0.100000 0.000000
0.150000 0.125000 0.000000
0.150000 0.150000 0.000000
0.150000 0.175000 0.000000
0.150000 0.200000 0.000000
0.150000 0.225000 0.000000
0.150000 0.250000 0.000000
0.150000 0.275000 0.000000
0.150000 0.300000 0.000000
0.150000 0.325000 0.000000
0.150000 0.350000 0.000000
0.150000 0.375000 0.000000
0.150000 0.400000 0.000000
0.150000 0.425000 0.000000
0.150000 0.450000 0.000000
0.150000 0.475000 0.000000
0.150000 0.500000 0.000000
0.150000 0.525000 0.000000
0.150000 0.550000 0.000000
0.150000 0.575000 0.000000
0.150000 0.600000 0.000000
0.150000 0.625000 0.000000
0.150000 0.650000 0.000000
0.150000 0.675000 0.000000
0.175000 -0.075000 0.000000
0.175000 -0.050000 0.000000
0.175000 -0.025000 0.000000
0.175000 0.000000 0.000000
0.175000 0.025000 0.000000
0.175000 0.050000 0.000000
0.175000 0.075000 0.000000
0.175000 0.100000 0.000000
0.175000 0.125000 0.000000
0.175000 0.150000 0.000000
0.175000 0.175000 0.000000
0.175000 0.200000 0.000000
0.175000 0.225000 0.000000
0.175000 0.250000 0.000000
0.175000 0.275000 0.000000
0.175000 0.300000 0.000000
0.175000 0.325000 0.000000
0.175000 0.350000 0.000000
0.175000 0.375000 0.000000
0.175000 0.400000 0.000000
0.175000 0.425000 0.000000
0.175000 0.450000 0.000000
0.175000 0.475000 0.000000
0.175000 0.500000 0.000000
0.175000 0.525000 0.000000
0.175000 0.550000 0.000000
0.175000 0.575000 0.000000
0.175000 0.600000 0.000000
0.175000 0.625000 0.000000
0.175000 0.650000 0.000000
0.175000 0.675000 0.000000
0.200000 -0.075000 0.000000
0.200000 -0.050000 0.000000
0.200000 -0.025000 0.000000
0.200000 0.000000 0.000000
0.200000 0.025000 0.000000
0.200000 0.050000 0.000000
0.200000 0.075000 0.000000
0.200000 0.100000 0.000000
0.200000 0.125000 0.000000
0.200000 0.150000 0.000000
0.200000 0.175000 0.000000
0.200000 0.200000 0.000000
0.200000 0.225000 0.000000
0.200000 0.250000 0.000000
[...]
<PointData>
<DataArray NumberOfComponents='1' type='Int32' Name='ParticleType' format='ascii'>
4
4
4
4
4
4
4
4
4
4
4
4
4
4
4
4
4
4
4
4
4
4
4
4
4
4
4
4
2
2
2
4
4
4
4
4
4
4
4
4
4
4
4
4
4
4
4
4
4
4
4
4
4
4
4
4
4
4
4
2
2
2
4
4
3
3
3
3
3
3
3
3
3
3
3
3
3
3
3
3
3
3
3
3
3
3
3
3
3
3
2
2
2
4
4
3
3
3
3
3
3
3
3
3
3
3
3
3
3
3
3
3
3
3
3
3
3
3
3
3
3
2
2
2
4
4
3
3
0
0
0
0
0
0
0
0
0
0
0
0
0
0
0
0
0
0
0
0
0
0
0
1
2
2
2
4
4
3
3
0
0
0
0
0
0
0
0
0
0
0
0
0
0
0
0
0
0
0
0
0
0
0
1
2
2
2
4
4
3
3
0
0
0
0
0
0
0
0
0
0
0
0
0
0
0
0
0
0
0
0
0
0
0
1
2
2
2
4
4
3
3
0
0
0
0
0
0
0
0
0
0
0
0
0
0
0
0
0
0
0
0
0
0
0
1
2
2
2
4
4
3
3
0
0
0
0
0
0
0
0
0
0
0
0
0
0
0
0
0
0
0
0
0
0
0
1
2
2
2
4
4
3
3
0
0
0
0
0
0
0
0
0
0
0
0
0
0
0
0
0
0
0
0
0
0
0
1
2
2
2
4
4
3
3
0
0
0
0
0
0
0
0
0
0
0
0
0
0
0
0
0
0
0
0
0
0
0
1
2
2
2
4
4
3
3
0
0
0
0
0
0
0
0
0
0
0
0
0
0
0
0
0
0
0
0
0
0
0
1
2
2
2
4
4
3
3
0
0
0
0
0
0
0
0
0
0
0
0
0
0
0
0
0
0
0
0
0
0
0
1
2
2
2
4
4
3
3
0
0
0
0
0
0
0
0
0
0
0
0
0
0
0
0
0
0
0
0
0
0
0
1
2
2
2
4
4
3
3
0
0
0
0
0
0
0
0
0
0
0
0
0
0
0
0
0
0
0
0
0
0
0
1
2
2
2
4
4
3
3
0
0
0
0
0
0
0
0
0
0
0
0
0
0
0
0
0
0
0
0
0
0
0
1
2
2
2
4
4
3
3
0
0
0
0
0
0
0
0
0
0
0
0
0
0
0
0
0
0
0
0
0
0
0
1
2
2
2
4
4
3
3
0
0
0
0
0
0
0
0
0
0
0
0
0
0
0
0
0
0
0
0
0
0
0
1
2
2
2
4
4
3
3
0
0
0
0
0
0
0
0
0
0
0
0
0
0
0
0
0
0
0
0
0
0
0
1
2
2
2
4
4
3
3
0
0
0
0
0
0
0
0
0
0
0
0
0
0
0
0
0
0
0
0
0
0
0
1
2
2
2
4
4
3
3
0
0
0
0
0
0
0
0
0
0
0
0
0
0
0
0
0
0
0
0
0
0
0
1
2
2
2
4
4
3
3
0
0
0
0
0
0
0
0
0
0
0
0
0
0
0
0
0
0
0
0
0
0
0
1
2
2
2
4
4
3
3
0
0
0
0
0
0
0
0
0
0
0
0
0
0
0
0
0
0
0
0
0
0
0
1
2
2
2
4
4
3
3
0
0
0
0
0
0
0
0
0
0
0
0
0
0
0
0
0
0
0
0
0
0
0
1
2
2
2
4
4
3
3
0
0
0
0
0
0
0
0
0
0
0
0
0
0
0
0
0
0
0
0
0
0
0
1
2
2
2
4
4
3
3
0
0
0
0
0
0
0
0
0
0
0
0
0
0
0
0
0
0
0
0
0
0
0
1
2
2
2
4
4
3
3
0
0
0
0
0
0
0
0
0
0
0
0
0
0
0
0
0
0
0
0
0
0
0
1
2
2
2
4
4
3
3
0
0
0
0
0
0
0
0
0
0
0
0
0
0
0
0
0
0
0
0
0
0
0
1
2
2
2
4
4
3
3
0
0
0
0
0
0
0
0
0
0
0
0
0
0
0
0
0
0
0
0
0
0
0
1
2
2
2
4
4
3
3
0
0
0
0
0
0
0
0
0
0
0
0
0
0
0
0
0
0
0
0
0
0
0
1
2
2
2
4
4
3
3
0
0
0
0
0
0
0
0
0
0
0
0
0
0
0
0
0
0
0
0
0
0
0
1
2
2
2
4
4
3
3
0
0
0
0
0
0
0
0
0
0
0
0
0
0
0
0
0
0
0
0
0
0
0
1
2
2
2
4
4
3
3
0
0
0
0
0
0
0
0
0
0
0
0
0
0
0
0
0
0
0
0
0
0
0
1
2
2
2
4
4
3
3
0
0
0
0
0
0
0
0
0
0
0
0
0
0
0
0
0
0
0
0
0
0
0
1
2
2
2
4
4
3
3
0
0
0
0
0
0
0
0
0
0
0
0
0
0
0
0
0
0
0
0
0
0
0
1
2
2
2
4
4
3
3
0
0
0
0
0
0
0
0
0
0
0
0
0
0
0
0
0
0
0
0
0
0
0
1
2
2
2
4
4
3
3
0
0
0
0
0
0
0
0
0
0
0
0
0
0
0
0
0
0
0
0
0
0
0
1
2
2
2
4
4
3
3
0
0
0
0
0
0
0
0
0
0
0
0
0
0
0
0
0
0
0
0
0
0
0
1
2
2
2
4
4
3
3
0
0
0
0
0
0
0
0
0
0
0
0
0
0
0
0
0
0
0
0
0
0
0
1
2
2
2
4
4
3
3
0
0
0
0
0
0
0
0
0
0
0
0
0
0
0
0
0
0
0
0
0
0
0
1
2
2
2
4
4
3
3
0
0
0
0
0
0
0
0
0
0
0
0
0
0
0
0
0
0
0
0
0
0
0
1
2
2
2
4
4
3
3
0
0
0
0
0
0
0
0
0
0
0
0
0
0
0
0
0
0
0
0
0
0
0
1
2
2
2
4
4
3
3
0
0
0
0
0
0
0
0
0
0
0
0
0
0
0
0
0
0
0
0
0
0
0
1
2
2
2
4
4
3
3
0
0
0
0
0
0
0
0
0
0
0
0
0
0
0
0
0
0
0
0
0
0
0
1
2
2
2
4
4
3
3
3
3
3
3
3
3
3
3
3
3
3
3
3
3
3
3
3
3
3
3
3
3
3
3
2
2
2
4
4
3
3
3
3
3
3
3
3
3
3
3
3
3
3
3
3
3
3
3
3
3
3
3
3
3
3
2
2
2
4
4
4
4
4
4
4
4
4
4
4
4
4
4
4
4
4
4
4
4
4
4
4
4
4
4
4
4
2
2
2
4
4
4
4
4
4
4
4
4
4
4
4
4
4
4
4
4
4
4
4
4
4
4
4
4
4
4
4
2
2
2
</DataArray>
<DataArray NumberOfComponents='1' type='Float32' Name='Temperature' format='ascii'>
0.000000
0.000000
0.000000
0.000000
0.000000
0.000000
0.000000
0.000000
0.000000
0.000000
0.000000
0.000000
0.000000
0.000000
0.000000
0.000000
0.000000
0.000000
0.000000
0.000000
0.000000
0.000000
0.000000
0.000000
0.000000
0.000000
0.000000
0.000000
-5.000000
-5.000000
-5.000000
0.000000
0.000000
0.000000
0.000000
0.000000
0.000000
0.000000
0.000000
0.000000
0.000000
0.000000
0.000000
0.000000
0.000000
0.000000
0.000000
0.000000
0.000000
0.000000
0.000000
0.000000
0.000000
0.000000
0.000000
0.000000
0.000000
0.000000
0.000000
-5.000000
-5.000000
-5.000000
0.000000
0.000000
0.000000
0.000000
0.000000
0.000000
0.000000
0.000000
0.000000
0.000000
0.000000
0.000000
0.000000
0.000000
0.000000
0.000000
0.000000
0.000000
0.000000
0.000000
0.000000
0.000000
0.000000
0.000000
0.000000
0.000000
0.000000
0.000000
-5.000000
-5.000000
-5.000000
0.000000
0.000000
0.000000
0.000000
0.000000
0.000000
0.000000
0.000000
0.000000
0.000000
0.000000
0.000000
0.000000
0.000000
0.000000
0.000000
0.000000
0.000000
0.000000
0.000000
0.000000
0.000000
0.000000
0.000000
0.000000
0.000000
0.000000
0.000000
-5.000000
-5.000000
-5.000000
0.000000
0.000000
0.000000
0.000000
0.540879
0.902776
1.188286
1.376988
1.492280
1.556895
1.590756
1.607574
1.615649
1.619468
1.621223
1.621863
1.621665
1.620422
1.617282
1.610144
1.594422
1.560986
1.493208
1.364603
1.133897
0.774302
0.039803
0.007666
-5.000000
-5.000000
-5.000000
0.000000
0.000000
0.000000
0.000000
0.902772
1.508133
1.988523
2.307514
2.503529
2.614194
2.672856
2.702588
2.717381
2.724771
2.728409
2.729841
2.729500
2.727034
2.721030
2.707989
2.680250
2.622570
2.507403
2.291714
1.911423
1.331485
0.339924
0.007909
-5.000000
-5.000000
-5.000000
0.000000
0.000000
0.000000
0.000000
1.188462
1.988860
2.626854
3.053233
3.317375
3.468382
3.550213
3.593400
3.616409
3.629054
3.635947
3.638935
3.638472
3.634082
3.623993
3.603753
3.563450
3.483217
3.327260
3.040313
2.544230
1.795140
0.605202
0.008207
-5.000000
-5.000000
-5.000000
0.000000
0.000000
0.000000
0.000000
1.377798
2.309104
3.055100
3.557568
3.872639
4.056757
4.160777
4.219942
4.255225
4.277311
4.290784
4.297156
4.296605
4.288565
4.271301
4.240246
4.184664
4.082338
3.892767
3.553445
2.978536
2.118085
0.794452
0.008209
-5.000000
-5.000000
-5.000000
0.000000
0.000000
0.000000
0.000000
1.494622
2.508314
3.324644
3.880175
4.235335
4.451143
4.582451
4.666599
4.724687
4.766162
4.793852
4.807743
4.807135
4.791406
4.759532
4.708194
4.627894
4.496796
4.273075
3.890832
3.259865
2.325811
0.916307
0.008258
-5.000000
-5.000000
-5.000000
0.000000
0.000000
0.000000
0.000000
1.562390
2.625848
3.488164
4.084201
4.478009
4.733938
4.908808
5.039320
5.143316
5.225371
5.283333
5.313358
5.312723
5.280767
5.218394
5.125950
4.998632
4.819022
4.547944
4.119492
3.441282
2.455385
0.990874
0.008558
-5.000000
-5.000000
-5.000000
0.000000
0.000000
0.000000
0.000000
1.602085
2.697662
3.595197
4.231457
4.675414
4.995293
5.248779
5.468604
5.663850
5.827645
5.946837
6.009518
6.008878
5.944231
5.820516
5.646052
5.426890
5.156834
4.805166
4.309611
3.576764
2.544453
1.039418
0.008600
-5.000000
-5.000000
-5.000000
0.000000
0.000000
0.000000
0.000000
1.628739
2.750164
3.683686
4.372355
4.893722
5.322688
5.717771
6.103156
6.469903
6.788009
7.022701
7.146839
7.146205
7.020096
6.780831
6.451918
6.060964
5.624790
5.130548
4.524308
3.711674
2.623323
1.078724
0.008374
-5.000000
-5.000000
-5.000000
0.000000
0.000000
0.000000
0.000000
1.651959
2.800762
3.779998
4.544797
5.187798
5.796380
6.431496
7.102563
7.767823
8.354831
8.790096
9.020486
9.019848
8.787471
8.347591
7.749701
7.060103
6.338006
5.603274
4.816589
3.880921
2.713837
1.120433
0.008674
-5.000000
-5.000000
-5.000000
0.000000
0.000000
0.000000
0.000000
1.677056
2.859289
3.899657
4.772625
5.595265
6.476694
7.484391
8.605608
9.744749
10.758315
11.509990
11.906976
11.906299
11.507242
10.750856
9.726326
8.562798
7.390498
6.283024
5.223036
4.106728
2.829092
1.171249
0.008476
-5.000000
-5.000000
-5.000000
0.000000
0.000000
0.000000
0.000000
1.706061
2.929194
4.047455
5.062358
6.126163
7.381400
8.909212
10.668323
12.483676
14.104693
15.303312
15.933772
15.933000
15.300263
14.096720
12.464591
10.624839
8.814740
7.187200
5.753158
4.394824
2.972749
1.233245
0.008652
-5.000000
-5.000000
-5.000000
0.000000
0.000000
0.000000
0.000000
1.738493
3.008492
4.217648
5.400658
6.753955
8.463974
10.633689
13.189460
15.855776
18.237832
19.992243
20.910862
20.909934
19.988703
18.229022
15.835615
13.144905
10.538365
8.269133
6.380199
4.731563
3.138705
1.304124
0.008573
-5.000000
-5.000000
-5.000000
0.000000
0.000000
0.000000
0.000000
1.772164
3.091224
4.396122
5.757100
7.418320
9.614513
12.474105
15.891808
19.491777
22.698166
25.051479
26.279727
26.278617
25.047363
22.688358
19.470294
15.845943
12.377788
9.418978
7.043822
5.086481
3.312928
1.378277
0.008256
-5.000000
-5.000000
-5.000000
0.000000
0.000000
0.000000
0.000000
1.804170
3.169782
4.565289
6.094120
8.044563
10.695182
14.196162
18.409841
22.860009
26.826778
29.735437
31.251628
31.250363
29.730832
26.816139
22.837461
18.362924
14.099028
10.499067
7.669413
5.422096
3.478092
1.448727
0.008670
-5.000000
-5.000000
-5.000000
0.000000
0.000000
0.000000
0.000000
1.831919
3.237517
4.710098
6.380184
8.571174
11.594933
15.615200
20.465767
25.591080
30.164369
33.519325
35.268674
35.267313
33.514424
30.153228
25.567897
20.418229
15.517585
11.398458
8.195532
5.706963
3.619411
1.509373
0.008595
-5.000000
-5.000000
-5.000000
0.000000
0.000000
0.000000
0.000000
1.853869
3.290614
4.822311
6.598976
8.968335
12.263847
16.655628
21.955244
27.553358
32.552287
36.223009
38.138630
38.137234
36.217996
32.540956
27.529936
21.907479
16.557845
12.067225
8.592371
5.924819
3.728816
1.556771
0.008738
-5.000000
-5.000000
-5.000000
0.000000
0.000000
0.000000
0.000000
1.869723
3.328527
4.901280
6.750485
9.238782
12.711872
17.342051
22.925943
28.821350
34.088189
37.958791
39.980313
39.978920
37.953783
34.076856
28.797924
22.878185
17.244287
12.515239
8.862632
6.075651
3.805711
1.590473
0.008334
-5.000000
-5.000000
-5.000000
0.000000
0.000000
0.000000
0.000000
1.880143
3.353131
4.951721
6.845593
9.405588
12.983595
17.752211
23.499136
29.563964
34.983464
38.968406
41.050788
41.049414
38.963447
34.972203
29.540624
23.451473
17.654537
12.787006
9.029340
6.170312
3.854757
1.612272
0.008772
-5.000000
-5.000000
-5.000000
0.000000
0.000000
0.000000
0.000000
1.886221
3.367311
4.980357
6.898711
9.497242
13.130641
17.971266
23.802091
29.953622
35.451184
39.494731
41.608402
41.607045
39.489820
35.439995
29.930370
23.754521
17.873675
12.934100
9.120946
6.223164
3.882561
1.624780
0.008638
-5.000000
-5.000000
-5.000000
0.000000
0.000000
0.000000
0.000000
1.888974
3.373674
4.993058
6.921979
9.536902
13.193556
18.064084
23.929484
30.116593
35.646158
39.713760
41.840297
41.838949
39.708876
35.635011
30.093391
23.881966
17.966540
12.997042
9.160587
6.246310
3.894877
1.630376
0.008716
-5.000000
-5.000000
-5.000000
0.000000
0.000000
0.000000
0.000000
1.888992
3.373710
4.993121
6.922079
9.537050
13.193761
18.064354
23.929820
30.116993
35.646614
39.714256
41.840816
41.839468
39.709373
35.635466
30.093791
23.882302
17.966809
12.997247
9.160734
6.246409
3.894937
1.630407
0.008717
-5.000000
-5.000000
-5.000000
0.000000
0.000000
0.000000
0.000000
1.886275
3.367423
4.980551
6.899015
9.497688
13.131253
17.972058
23.803067
29.954771
35.452483
39.496141
41.609873
41.608515
39.491230
35.441294
29.931519
23.755497
17.874467
12.934711
9.121390
6.223465
3.882746
1.624875
0.008642
-5.000000
-5.000000
-5.000000
0.000000
0.000000
0.000000
0.000000
1.880237
3.353324
4.952054
6.846109
9.406327
12.984580
17.753446
23.500606
29.565643
34.985320
38.970395
41.052849
41.051474
38.965435
34.974059
29.542303
23.452942
17.655771
12.787989
9.030075
6.170821
3.855074
1.612437
0.008781
-5.000000
-5.000000
-5.000000
0.000000
0.000000
0.000000
0.000000
1.869861
3.328808
4.901757
6.751204
9.239771
12.713118
17.343502
22.927528
28.823014
34.089905
37.960548
39.982097
39.980704
37.955540
34.078571
28.799587
22.879769
17.245737
12.516483
8.863616
6.076360
3.806164
1.590713
0.008351
-5.000000
-5.000000
-5.000000
0.000000
0.000000
0.000000
0.000000
1.854052
3.290983
4.822922
6.599863
8.969476
12.265136
16.656883
21.956273
27.554049
32.552647
36.223135
38.138643
38.137248
36.218121
32.541314
27.530625
21.908507
16.559097
12.068511
8.593506
5.925692
3.729396
1.557086
0.008766
-5.000000
-5.000000
-5.000000
0.000000
0.000000
0.000000
0.000000
1.832143
3.237962
4.710817
6.381178
8.572335
11.595991
15.615759
20.465435
25.589653
30.161928
33.516164
35.265157
35.263796
33.511262
30.150785
25.566468
20.417894
15.518142
11.399513
8.196684
5.707940
3.620093
1.509752
0.008630
-5.000000
-5.000000
-5.000000
0.000000
0.000000
0.000000
0.000000
1.804425
3.170284
4.566081
6.095160
8.045639
10.695837
14.195736
18.407692
22.855821
26.820734
29.728084
31.243630
31.242364
29.723478
26.810093
22.833272
18.360772
14.098599
10.499717
7.670480
5.423116
3.478841
1.449155
0.008724
-5.000000
-5.000000
-5.000000
0.000000
0.000000
0.000000
0.000000
1.772437
3.091758
4.396951
5.758152
7.419311
9.614850
12.472932
15.888287
19.485496
22.689399
25.040975
26.268372
26.267262
25.036858
22.679590
19.464013
15.842420
12.376612
9.419310
7.044802
5.087512
3.313711
1.378731
0.008317
-5.000000
-5.000000
-5.000000
0.000000
0.000000
0.000000
0.000000
1.738769
3.009031
4.218484
5.401719
6.754956
8.464322
10.632528
13.185951
15.849509
18.229079
19.981753
20.899521
20.898592
19.978212
18.220268
15.829347
13.141395
10.537201
8.269476
6.381189
4.732602
3.139493
1.304580
0.008625
-5.000000
-5.000000
-5.000000
0.000000
0.000000
0.000000
0.000000
1.706326
2.929715
4.048273
5.063431
6.127276
7.382096
8.908829
10.666219
12.479536
14.098697
15.296008
15.925824
15.925051
15.292958
14.090723
12.460449
10.622732
8.814353
7.187889
5.754259
4.395872
2.973518
1.233684
0.008698
-5.000000
-5.000000
-5.000000
0.000000
0.000000
0.000000
0.000000
1.677303
2.859776
3.900434
4.773691
5.596507
6.477843
7.485048
8.605379
9.743429
10.755984
11.506941
11.903572
11.902895
11.504192
10.748523
9.725003
8.562564
7.391149
6.284165
5.224265
4.107768
2.829820
1.171656
0.008519
-5.000000
-5.000000
-5.000000
0.000000
0.000000
0.000000
0.000000
1.652188
2.801212
3.780722
4.545825
5.189103
5.797850
6.432946
7.103798
7.768728
8.355412
8.790448
9.020728
9.020090
8.787822
8.348169
7.750603
7.061333
6.339447
5.604732
4.817875
3.881918
2.714508
1.120802
0.008700
-5.000000
-5.000000
-5.000000
0.000000
0.000000
0.000000
0.000000
1.628960
2.750591
3.684366
4.373328
4.895006
5.324265
5.719580
6.105123
6.471966
6.790138
7.024881
7.149052
7.148417
7.022275
6.782957
6.453977
6.062923
5.626587
5.132105
4.525563
3.712604
2.623939
1.079063
0.008406
-5.000000
-5.000000
-5.000000
0.000000
0.000000
0.000000
0.000000
1.602312
2.698090
3.595861
4.232390
4.676642
4.996829
5.250618
5.470722
5.666215
5.830215
5.949560
6.012324
6.011684
5.946953
5.823083
5.648410
5.428996
5.158652
4.806670
4.310791
3.577631
2.545032
1.039747
0.008643
-5.000000
-5.000000
-5.000000
0.000000
0.000000
0.000000
0.000000
1.562632
2.626294
3.488836
4.085117
4.479184
4.735384
4.910528
5.041305
5.145544
5.227805
5.285918
5.316023
5.315388
5.283350
5.220823
5.128168
5.000598
4.820709
4.549338
4.120591
3.442099
2.455943
0.991207
0.008643
-5.000000
-5.000000
-5.000000
0.000000
0.000000
0.000000
0.000000
1.494863
2.508756
3.325305
3.881059
4.236445
4.452476
4.584002
4.668355
4.726629
4.768259
4.796062
4.810011
4.809403
4.793612
4.761621
4.710121
4.629621
4.498297
4.274329
3.891828
3.260606
2.326318
0.916619
0.008462
-5.000000
-5.000000
-5.000000
0.000000
0.000000
0.000000
0.000000
1.377983
2.309458
3.055646
3.558315
3.873585
4.057889
4.162076
4.221390
4.256800
4.278989
4.292534
4.298944
4.298392
4.290312
4.272969
4.241800
4.186073
4.083569
3.893790
3.554237
2.979092
2.118435
0.794658
0.008556
-5.000000
-5.000000
-5.000000
0.000000
0.000000
0.000000
0.000000
1.188511
1.988992
2.627119
3.053663
3.317975
3.469139
3.551102
3.594396
3.617489
3.630198
3.637135
3.640145
3.639680
3.635265
3.625126
3.604809
3.564398
3.484022
3.327884
3.040728
2.544434
1.795179
0.605155
0.008050
-5.000000
-5.000000
-5.000000
0.000000
0.000000
0.000000
0.000000
0.902634
1.507963
1.988399
2.307501
2.503648
2.614437
2.673201
2.703010
2.717859
2.725288
2.728950
2.730394
2.730052
2.727571
2.721535
2.708442
2.680623
2.622829
2.507511
2.291645
1.911188
1.331140
0.339582
0.007957
-5.000000
-5.000000
-5.000000
0.000000
0.000000
0.000000
0.000000
0.540617
0.902396
1.187880
1.376633
1.492008
1.556707
1.590636
1.607503
1.615612
1.619452
1.621221
1.621866
1.621667
1.620415
1.617257
1.610086
1.594312
1.560798
1.492913
1.364185
1.133374
0.773735
0.039278
0.006280
-5.000000
-5.000000
-5.000000
0.000000
0.000000
0.000000
0.000000
0.000000
0.000000
0.000000
0.000000
0.000000
0.000000
0.000000
0.000000
0.000000
0.000000
0.000000
0.000000
0.000000
0.000000
0.000000
0.000000
0.000000
0.000000
0.000000
0.000000
0.000000
0.000000
0.000000
0.000000
-5.000000
-5.000000
-5.000000
0.000000
0.000000
0.000000
0.000000
0.000000
0.000000
0.000000
0.000000
0.000000
0.000000
0.000000
0.000000
0.000000
0.000000
0.000000
0.000000
0.000000
0.000000
0.000000
0.000000
0.000000
0.000000
0.000000
0.000000
0.000000
0.000000
0.000000
0.000000
-5.000000
-5.000000
-5.000000
0.000000
0.000000
0.000000
0.000000
0.000000
0.000000
0.000000
0.000000
0.000000
0.000000
0.000000
0.000000
0.000000
0.000000
0.000000
0.000000
0.000000
0.000000
0.000000
0.000000
0.000000
0.000000
0.000000
0.000000
0.000000
0.000000
0.000000
0.000000
-5.000000
-5.000000
-5.000000
0.000000
0.000000
0.000000
0.000000
0.000000
0.000000
0.000000
0.000000
0.000000
0.000000
0.000000
0.000000
0.000000
0.000000
0.000000
0.000000
0.000000
0.000000
0.000000
0.000000
0.000000
0.000000
0.000000
0.000000
0.000000
0.000000
0.000000
0.000000
-5.000000
-5.000000
-5.000000
</DataArray>
</PointData>
<Cells>
<DataArray type='Int32' Name='connectivity' format='ascii'>
0
1
2
3
4
5
6
7
8
9
10
11
12
13
14
15
16
17
18
19
20
21
22
23
24
25
26
27
28
29
30
31
32
33
34
35
36
37
38
39
40
41
42
43
44
45
46
47
48
49
50
51
52
53
54
55
56
57
58
59
60
61
62
63
64
65
66
67
68
69
70
71
72
73
74
75
76
77
78
79
80
81
82
83
84
85
86
87
88
89
90
91
92
93
94
95
96
97
98
99
100
101
102
103
104
105
106
107
108
109
110
111
112
113
114
115
116
117
118
119
120
121
122
123
124
125
126
127
128
129
130
131
132
133
134
135
136
137
138
139
140
141
142
143
144
145
146
147
148
149
150
151
152
153
154
155
156
157
158
159
160
161
162
163
164
165
166
167
168
169
170
171
172
173
174
175
176
177
178
179
180
181
182
183
184
185
186
187
188
189
190
191
192
193
194
195
196
197
198
199
200
201
202
203
204
205
206
207
208
209
210
211
212
213
214
215
216
217
218
219
220
221
222
223
224
225
226
227
228
229
230
231
232
233
234
235
236
237
238
239
240
241
242
243
244
245
246
247
248
249
250
251
252
253
254
255
256
257
258
259
260
261
262
263
264
265
266
267
268
269
270
271
272
273
274
275
276
277
278
279
280
281
282
283
284
285
286
287
288
289
290
291
292
293
294
295
296
297
298
299
300
301
302
303
304
305
306
307
308
309
310
311
312
313
314
315
316
317
318
319
320
321
322
323
324
325
326
327
328
329
330
331
332
333
334
335
336
337
338
339
340
341
342
343
344
345
346
347
348
349
350
351
352
353
354
355
356
357
358
359
360
361
362
363
364
365
366
367
368
369
370
371
372
373
374
375
376
377
378
379
380
381
382
383
384
385
386
387
388
389
390
391
392
393
394
395
396
397
398
399
400
401
402
403
404
405
406
407
408
409
410
411
412
413
414
415
416
417
418
419
420
421
422
423
424
425
426
427
428
429
430
431
432
433
434
435
436
437
438
439
440
441
442
443
444
445
446
447
448
449
450
451
452
453
454
455
456
457
458
459
460
461
462
463
464
465
466
467
468
469
470
471
472
473
474
475
476
477
478
479
480
481
482
483
484
485
486
487
488
489
490
491
492
493
494
495
496
497
498
499
500
501
502
503
504
505
506
507
508
509
510
511
512
513
514
515
516
517
518
519
520
521
522
523
524
525
526
527
528
529
530
531
532
533
534
535
536
537
538
539
540
541
542
543
544
545
546
547
548
549
550
551
552
553
554
555
556
557
558
559
560
561
562
563
564
565
566
567
568
569
570
571
572
573
574
575
576
577
578
579
580
581
582
583
584
585
586
587
588
589
590
591
592
593
594
595
596
597
598
599
600
601
602
603
604
605
606
607
608
609
610
611
612
613
614
615
616
617
618
619
620
621
622
623
624
625
626
627
628
629
630
631
632
633
634
635
636
637
638
639
640
641
642
643
644
645
646
647
648
649
650
651
652
653
654
655
656
657
658
659
660
661
662
663
664
665
666
667
668
669
670
671
672
673
674
675
676
677
678
679
680
681
682
683
684
685
686
687
688
689
690
691
692
693
694
695
696
697
698
699
700
701
702
703
704
705
706
707
708
709
710
711
712
713
714
715
716
717
718
719
720
721
722
723
724
725
726
727
728
729
730
731
732
733
734
735
736
737
738
739
740
741
742
743
744
745
746
747
748
749
750
751
752
753
754
755
756
757
758